<event>
12    1  0.9321077E-008  0.8972235E+03  0.7818608E-02  0.9429059E-01
          1   -1    0    0  501    0  0.00000000000E+00  0.00000000000E+00  0.97339736661E+03  0.97339736661E+03  0.00000000000E+00 0. -1.
         -1   -1    0    0    0  501 -0.00000000000E+00 -0.00000000000E+00 -0.90156654535E+03  0.90156654535E+03  0.00000000000E+00 0.  1.
         23    2    1    2    0    0  0.72574392828E+03  0.34573708371E+03  0.26698503896E+03  0.85303674750E+03  0.10075862775E+03 0.  0.
    5000000    2    1    2    0    0 -0.72574392828E+03 -0.34573708371E+03 -0.19515421771E+03  0.10219271645E+04  0.60000965016E+03 0.  0.
         23    2    4    4    0    0 -0.45325408855E+03 -0.48767448229E+03 -0.20131701715E+03  0.70158015575E+03  0.91763304732E+02 0.  0.
         23    2    4    4    0    0 -0.27248983974E+03  0.14193739858E+03  0.61627994355E+01  0.32034700871E+03  0.90483633980E+02 0.  0.
          1    1    3    3  502    0  0.61108813027E+03  0.26812795557E+03  0.18652151181E+03  0.69290084275E+03  0.00000000000E+00 0. -1.
         -1    1    3    3    0  502  0.11465579801E+03  0.77609128142E+02  0.80463527156E+02  0.16013590475E+03  0.00000000000E+00 0.  1.
         15    1    5    5    0    0 -0.20724602918E+03 -0.16771439926E+03 -0.10571522466E+03  0.28680638553E+03  0.17770000000E+01 0.  1.
        -15    1    5    5    0    0 -0.24600805937E+03 -0.31996008303E+03 -0.95601792485E+02  0.41477377022E+03  0.17770000000E+01 0. -1.
          1    1    6    6  503    0 -0.12152511597E+03  0.11049428979E+03  0.20292214293E+02  0.16549657352E+03  0.00000000000E+00 0. -1.
         -1    1    6    6    0  503 -0.15096472377E+03  0.31443108786E+02 -0.14129414858E+02  0.15485043519E+03  0.00000000000E+00 0.  1.
<mgrwt>
<rscale>  0 0.89722352E+03</rscale>
<asrwt>0</asrwt>
<pdfrwt beam="1">  1        1 0.14975344E+00 0.89722352E+03</pdfrwt>
<pdfrwt beam="2">  1       -1 0.13870255E+00 0.89722352E+03</pdfrwt>
<totfact> 0.69168956E+00</totfact>
</mgrwt>
</event>
<event>
12    1  0.9321077E-008  0.2133183E+04  0.7818608E-02  0.8546765E-01
          1   -1    0    0  501    0  0.00000000000E+00  0.00000000000E+00  0.18254076005E+04  0.18254076005E+04  0.00000000000E+00 0. -1.
         -1   -1    0    0    0  501 -0.00000000000E+00 -0.00000000000E+00 -0.25585611352E+04  0.25585611352E+04  0.00000000000E+00 0.  1.
         23    2    1    2    0    0 -0.11072761867E+04  0.18058224583E+04 -0.33715764799E+03  0.21470084065E+04  0.94416703287E+02 0.  0.
    5000000    2    1    2    0    0  0.11072761867E+04 -0.18058224583E+04 -0.39599588677E+03  0.22369603291E+04  0.60010288066E+03 0.  0.
         23    2    4    4    0    0  0.41647611403E+03 -0.10081015041E+04 -0.43123219590E+03  0.11764261604E+04  0.91084070878E+02 0.  0.
         23    2    4    4    0    0  0.69080007264E+03 -0.79772095411E+03  0.35236309135E+02  0.10605341687E+04  0.99637665824E+02 0.  0.
          1    1    3    3  502    0 -0.47642088989E+03  0.76678783161E+03 -0.19070269818E+03  0.92266351511E+03  0.00000000000E+00 0. -1.
         -1    1    3    3    0  502 -0.63085529679E+03  0.10390346266E+04 -0.14645494981E+03  0.12243448914E+04  0.00000000000E+00 0.  1.
         15    1    5    5    0    0  0.28906231622E+03 -0.66488029271E+03 -0.24215537407E+03  0.76437242835E+03  0.17770000000E+01 0.  1.
        -15    1    5    5    0    0  0.12741379782E+03 -0.34322121143E+03 -0.18907682183E+03  0.41205373209E+03  0.17770000000E+01 0. -1.
          1    1    6    6  503    0  0.46438648700E+03 -0.49230197003E+03  0.60748953655E+02  0.67948986333E+03  0.00000000000E+00 0. -1.
         -1    1    6    6    0  503  0.22641358564E+03 -0.30541898409E+03 -0.25512644521E+02  0.38104430534E+03  0.00000000000E+00 0.  1.
<mgrwt>
<rscale>  0 0.21331828E+04</rscale>
<asrwt>0</asrwt>
<pdfrwt beam="1">  1        1 0.28083194E+00 0.21331828E+04</pdfrwt>
<pdfrwt beam="2">  1       -1 0.39362479E+00 0.21331828E+04</pdfrwt>
<totfact> 0.27181239E-02</totfact>
</mgrwt>
</event>
<event>
12    1  0.9321077E-008  0.9020395E+03  0.7818608E-02  0.9423036E-01
         -1   -1    0    0    0  501 -0.00000000000E+00  0.00000000000E+00  0.36293940383E+03  0.36293940383E+03  0.00000000000E+00 0.  1.
          1   -1    0    0  501    0  0.00000000000E+00 -0.00000000000E+00 -0.25105607214E+04  0.25105607214E+04  0.00000000000E+00 0. -1.
         23    2    1    2    0    0 -0.65246576036E+01 -0.83695451253E+03 -0.68946478570E+03  0.10883461854E+04  0.92737810268E+02 0.  0.
    5000000    2    1    2    0    0  0.65246576036E+01  0.83695451253E+03 -0.14581565319E+04  0.17851539398E+04  0.60001557485E+03 0.  0.
         23    2    4    4    0    0 -0.21573621631E+03  0.28331942737E+03 -0.85986798849E+03  0.93499949251E+03  0.89660919079E+02 0.  0.
         23    2    4    4    0    0  0.22226087391E+03  0.55363508516E+03 -0.59828854342E+03  0.85015444730E+03  0.94348818129E+02 0.  0.
          1    1    3    3  502    0 -0.65596884914E+01 -0.65496177893E+03 -0.48764440464E+03  0.81658742750E+03  0.00000000000E+00 0. -1.
         -1    1    3    3    0  502  0.35030887767E-01 -0.18199273360E+03 -0.20182038105E+03  0.27175875794E+03  0.00000000000E+00 0.  1.
         15    1    5    5    0    0 -0.76750316727E+02  0.16929518604E+03 -0.47994766211E+03  0.51468863134E+03  0.17770000000E+01 0. -1.
        -15    1    5    5    0    0 -0.13898589958E+03  0.11402424134E+03 -0.37992032637E+03  0.42031086117E+03  0.17770000000E+01 0.  1.
          3    1    6    6  503    0  0.13160043554E+03  0.41839741098E+03 -0.40025281495E+03  0.59378226989E+03  0.00000000000E+00 0. -1.
         -3    1    6    6    0  503  0.90660438374E+02  0.13523767418E+03 -0.19803572846E+03  0.25637217741E+03  0.00000000000E+00 0.  1.
<mgrwt>
<rscale>  0 0.90203947E+03</rscale>
<asrwt>0</asrwt>
<pdfrwt beam="1">  1        1 0.38624012E+00 0.90203947E+03</pdfrwt>
<pdfrwt beam="2">  1       -1 0.55836830E-01 0.90203947E+03</pdfrwt>
<totfact> 0.44647774E+00</totfact>
</mgrwt>
</event>
<event>
12    1  0.9321077E-008  0.1658635E+04  0.7818608E-02  0.8785315E-01
         -2   -1    0    0    0  501 -0.00000000000E+00  0.00000000000E+00  0.15080351257E+04  0.15080351257E+04  0.00000000000E+00 0.  1.
          2   -1    0    0  501    0  0.00000000000E+00 -0.00000000000E+00 -0.19203213279E+04  0.19203213279E+04  0.00000000000E+00 0. -1.
         23    2    1    2    0    0  0.19082359152E+03 -0.16242581180E+04  0.76390283260E+00  0.16380420470E+04  0.92482903307E+02 0.  0.
    5000000    2    1    2    0    0 -0.19082359152E+03  0.16242581180E+04 -0.41305010501E+03  0.17903144066E+04  0.59998934033E+03 0.  0.
         23    2    4    4    0    0  0.11020437826E+03  0.30304873699E+03  0.81088728185E+02  0.34516666736E+03  0.92634250884E+02 0.  0.
         23    2    4    4    0    0 -0.30102796978E+03  0.13212093810E+04 -0.49413883319E+03  0.14451477393E+04  0.89815003811E+02 0.  0.
          3    1    3    3  502    0  0.14335070191E+03 -0.13605380864E+04 -0.29443077428E+02  0.13683859846E+04  0.00000000000E+00 0. -1.
         -3    1    3    3    0  502  0.47472889607E+02 -0.26372003160E+03  0.30206980260E+02  0.26965606237E+03  0.00000000000E+00 0.  1.
         15    1    5    5    0    0  0.56431738716E+02  0.22056822310E+03  0.18383523902E+02  0.22842065111E+03  0.17770000000E+01 0.  1.
        -15    1    5    5    0    0  0.53772639544E+02  0.82480513889E+02  0.62705204283E+02  0.11674601624E+03  0.17770000000E+01 0. -1.
          3    1    6    6  503    0 -0.49782172918E+02  0.22977801850E+03 -0.12258802501E+03  0.26514906450E+03  0.00000000000E+00 0. -1.
         -3    1    6    6    0  503 -0.25124579686E+03  0.10914313625E+04 -0.37155080818E+03  0.11799986748E+04  0.00000000000E+00 0.  1.
<mgrwt>
<rscale>  0 0.16586349E+04</rscale>
<asrwt>0</asrwt>
<pdfrwt beam="1">  1        2 0.29543405E+00 0.16586349E+04</pdfrwt>
<pdfrwt beam="2">  1       -2 0.23200540E+00 0.16586349E+04</pdfrwt>
<totfact> 0.56762905E-01</totfact>
</mgrwt>
</event>
<event>
12    1  0.9321077E-008  0.6741519E+03  0.7818608E-02  0.9762486E-01
          2   -1    0    0  501    0  0.00000000000E+00  0.00000000000E+00  0.20189281328E+04  0.20189281328E+04  0.00000000000E+00 0.  1.
         -2   -1    0    0    0  501 -0.00000000000E+00 -0.00000000000E+00 -0.24897827448E+03  0.24897827448E+03  0.00000000000E+00 0. -1.
         23    2    1    2    0    0  0.34939345266E+03  0.41610283921E+03  0.10441116094E+04  0.11804971380E+04  0.90482498085E+02 0.  0.
    5000000    2    1    2    0    0 -0.34939345266E+03 -0.41610283921E+03  0.72583824888E+03  0.10874092692E+04  0.60033357199E+03 0.  0.
         23    2    4    4    0    0  0.11915424839E+03 -0.26730254501E+03  0.23003545352E+03  0.38309600540E+03  0.90542001318E+02 0.  0.
         23    2    4    4    0    0 -0.46854770105E+03 -0.14880029420E+03  0.49580279536E+03  0.70431326380E+03  0.92511004548E+02 0.  0.
          2    1    3    3  502    0  0.15136148288E+03  0.22836777668E+03  0.45234045209E+03  0.52884215464E+03  0.00000000000E+00 0.  1.
         -2    1    3    3    0  502  0.19803196978E+03  0.18773506252E+03  0.59177115731E+03  0.65165498339E+03  0.00000000000E+00 0. -1.
         15    1    5    5    0    0  0.81253925973E+02 -0.90706122450E+02  0.63210558177E+02  0.13721710364E+03  0.17770000000E+01 0. -1.
        -15    1    5    5    0    0  0.37900322419E+02 -0.17659642256E+03  0.16682489534E+03  0.24587890177E+03  0.17770000000E+01 0.  1.
          3    1    6    6  503    0 -0.17123864908E+03 -0.11697200052E+02  0.19406487152E+03  0.25907657900E+03  0.00000000000E+00 0. -1.
         -3    1    6    6    0  503 -0.29730905197E+03 -0.13710309414E+03  0.30173792384E+03  0.44523668480E+03  0.00000000000E+00 0.  1.
<mgrwt>
<rscale>  0 0.67415190E+03</rscale>
<asrwt>0</asrwt>
<pdfrwt beam="1">  1        2 0.31060432E+00 0.67415190E+03</pdfrwt>
<pdfrwt beam="2">  1       -2 0.38304351E-01 0.67415190E+03</pdfrwt>
<totfact> 0.43705418E+01</totfact>
</mgrwt>
</event>
<event>
12    1  0.9321077E-008  0.1372619E+04  0.7818608E-02  0.8973881E-01
         -1   -1    0    0    0  501 -0.00000000000E+00  0.00000000000E+00  0.79483765888E+03  0.79483765888E+03  0.00000000000E+00 0.  1.
          1   -1    0    0  501    0  0.00000000000E+00 -0.00000000000E+00 -0.25547740868E+04  0.25547740868E+04  0.00000000000E+00 0. -1.
         23    2    1    2    0    0  0.11207876292E+04 -0.77078482722E+03 -0.82450399133E+03  0.15931538832E+04  0.89768058472E+02 0.  0.
    5000000    2    1    2    0    0 -0.11207876292E+04  0.77078482722E+03 -0.93543243662E+03  0.17564578625E+04  0.59986350091E+03 0.  0.
         23    2    4    4    0    0 -0.26051352500E+03  0.30833897905E+03 -0.57939045314E+03  0.71300544787E+03  0.98707896279E+02 0.  0.
         23    2    4    4    0    0 -0.86027410415E+03  0.46244584817E+03 -0.35604198348E+03  0.10434524146E+04  0.89996393464E+02 0.  0.
          3    1    3    3  502    0  0.17085834509E+03 -0.13305258651E+03 -0.96861581397E+02  0.23722927900E+03  0.00000000000E+00 0. -1.
         -3    1    3    3    0  502  0.94992928406E+03 -0.63773224071E+03 -0.72764240993E+03  0.13559246042E+04  0.00000000000E+00 0.  1.
         15    1    5    5    0    0 -0.58008513537E+02  0.11006665376E+03 -0.24406565074E+03  0.27395411205E+03  0.17770000000E+01 0. -1.
        -15    1    5    5    0    0 -0.20250501146E+03  0.19827232528E+03 -0.33532480241E+03  0.43905133581E+03  0.17770000000E+01 0.  1.
          2    1    6    6  503    0 -0.41709927218E+03  0.22302686595E+03 -0.22030196510E+03  0.52177173325E+03  0.00000000000E+00 0. -1.
         -2    1    6    6    0  503 -0.44317483197E+03  0.23941898222E+03 -0.13574001838E+03  0.52168068138E+03  0.00000000000E+00 0.  1.
<mgrwt>
<rscale>  0 0.13726186E+04</rscale>
<asrwt>0</asrwt>
<pdfrwt beam="1">  1        1 0.39304217E+00 0.13726186E+04</pdfrwt>
<pdfrwt beam="2">  1       -1 0.12228272E+00 0.13726186E+04</pdfrwt>
<totfact> 0.70957086E-01</totfact>
</mgrwt>
</event>
<event>
12    1  0.9321077E-008  0.5553033E+03  0.7818608E-02  0.1000274E+00
          2   -1    0    0  501    0  0.00000000000E+00  0.00000000000E+00  0.63585343096E+03  0.63585343096E+03  0.00000000000E+00 0. -1.
         -2   -1    0    0    0  501 -0.00000000000E+00 -0.00000000000E+00 -0.58084121644E+03  0.58084121644E+03  0.00000000000E+00 0.  1.
         23    2    1    2    0    0 -0.46878453827E+02  0.44957700028E+03 -0.25849300335E+02  0.46126714906E+03  0.88216369552E+02 0.  0.
    5000000    2    1    2    0    0  0.46878453827E+02 -0.44957700028E+03  0.80861514850E+02  0.75542749834E+03  0.59984585691E+03 0.  0.
         23    2    4    4    0    0  0.24529816618E+03 -0.14348756754E+03  0.20200358309E+03  0.36004137720E+03  0.89802412817E+02 0.  0.
         23    2    4    4    0    0 -0.19841971235E+03 -0.30608943274E+03 -0.12114206824E+03  0.39538612114E+03  0.92702001092E+02 0.  0.
          1    1    3    3  502    0 -0.15820577124E+02  0.33326836519E+03  0.15436235420E+02  0.33400055578E+03  0.00000000000E+00 0. -1.
         -1    1    3    3    0  502 -0.31057876703E+02  0.11630863509E+03 -0.41285535755E+02  0.12726659328E+03  0.00000000000E+00 0.  1.
         15    1    5    5    0    0  0.46393112264E+02 -0.14590365472E+02  0.79545427524E+02  0.93251447169E+02  0.17770000000E+01 0.  1.
        -15    1    5    5    0    0  0.19890505392E+03 -0.12889720207E+03  0.12245815557E+03  0.26678993004E+03  0.17770000000E+01 0. -1.
          3    1    6    6  503    0 -0.10858589796E+03 -0.22516232574E+03 -0.11262078772E+03  0.27417587785E+03  0.00000000000E+00 0. -1.
         -3    1    6    6    0  503 -0.89833814398E+02 -0.80927107004E+02 -0.85212805168E+01  0.12121024329E+03  0.00000000000E+00 0.  1.
<mgrwt>
<rscale>  0 0.55530334E+03</rscale>
<asrwt>0</asrwt>
<pdfrwt beam="1">  1        2 0.97823605E-01 0.55530334E+03</pdfrwt>
<pdfrwt beam="2">  1       -2 0.89360187E-01 0.55530334E+03</pdfrwt>
<totfact> 0.51080252E+01</totfact>
</mgrwt>
</event>
<event>
12    1  0.9321077E-008  0.6842472E+03  0.7818608E-02  0.9744557E-01
         -2   -1    0    0    0  501 -0.00000000000E+00  0.00000000000E+00  0.57335768784E+03  0.57335768784E+03  0.00000000000E+00 0. -1.
          2   -1    0    0  501    0  0.00000000000E+00 -0.00000000000E+00 -0.15102866183E+04  0.15102866183E+04  0.00000000000E+00 0.  1.
         23    2    1    2    0    0  0.39849781464E+03  0.53269226157E+03  0.13677982998E+03  0.68537988156E+03  0.92061427049E+02 0.  0.
    5000000    2    1    2    0    0 -0.39849781464E+03 -0.53269226157E+03 -0.10737087604E+04  0.13982644246E+04  0.59977607902E+03 0.  0.
         23    2    4    4    0    0 -0.33434597238E+03 -0.26372118016E+03 -0.20336027293E+03  0.48040907521E+03  0.90007715327E+02 0.  0.
         23    2    4    4    0    0 -0.64151842260E+02 -0.26897108141E+03 -0.87034848749E+03  0.91785534935E+03  0.92146899854E+02 0.  0.
          4    1    3    3  502    0  0.88559637253E+02  0.10605509508E+03  0.66648292391E+02  0.15340302285E+03  0.00000000000E+00 0. -1.
         -4    1    3    3    0  502  0.30993817739E+03  0.42663716649E+03  0.70131537585E+02  0.53197685871E+03  0.00000000000E+00 0.  1.
         15    1    5    5    0    0 -0.26564746177E+03 -0.19758745977E+03 -0.11524979547E+03  0.35056390471E+03  0.17770000000E+01 0. -1.
        -15    1    5    5    0    0 -0.68698510618E+02 -0.66133720390E+02 -0.88110477455E+02  0.12984517049E+03  0.17770000000E+01 0.  1.
          3    1    6    6  503    0 -0.52268839877E+02 -0.22498867575E+03 -0.80969815917E+03  0.84199943278E+03  0.00000000000E+00 0. -1.
         -3    1    6    6    0  503 -0.11883002383E+02 -0.43982405662E+02 -0.60650328323E+02  0.75855916573E+02  0.00000000000E+00 0.  1.
<mgrwt>
<rscale>  0 0.68424718E+03</rscale>
<asrwt>0</asrwt>
<pdfrwt beam="1">  1        2 0.23235178E+00 0.68424718E+03</pdfrwt>
<pdfrwt beam="2">  1       -2 0.88208877E-01 0.68424718E+03</pdfrwt>
<totfact> 0.14331507E+01</totfact>
</mgrwt>
</event>
<event>
12    1  0.9321077E-008  0.6223119E+03  0.7818608E-02  0.9860167E-01
         -1   -1    0    0    0  501 -0.00000000000E+00  0.00000000000E+00  0.11321908641E+04  0.11321908641E+04  0.00000000000E+00 0.  1.
          1   -1    0    0  501    0  0.00000000000E+00 -0.00000000000E+00 -0.38537421641E+03  0.38537421641E+03  0.00000000000E+00 0. -1.
         23    2    1    2    0    0  0.13978339892E+03 -0.47120102642E+03  0.49264897958E+03  0.70127367534E+03  0.86671475843E+02 0.  0.
    5000000    2    1    2    0    0 -0.13978339892E+03  0.47120102642E+03  0.25416766808E+03  0.81629140514E+03  0.60013385898E+03 0.  0.
         23    2    4    4    0    0 -0.34718563715E+03  0.35008572614E+03  0.24768000430E+03  0.55944905787E+03  0.92412020468E+02 0.  0.
         23    2    4    4    0    0  0.20740223823E+03  0.12111530028E+03  0.64876637800E+01  0.25684234727E+03  0.90781590582E+02 0.  0.
          3    1    3    3  502    0  0.11722798675E+02 -0.13698752825E+03  0.17649420183E+03  0.22372574770E+03  0.00000000000E+00 0. -1.
         -3    1    3    3    0  502  0.12806060025E+03 -0.33421349817E+03  0.31615477775E+03  0.47754792764E+03  0.00000000000E+00 0.  1.
         15    1    5    5    0    0 -0.23970797087E+03  0.24491098280E+03  0.12302280496E+03  0.36411408798E+03  0.17770000000E+01 0.  1.
        -15    1    5    5    0    0 -0.10747766628E+03  0.10517474334E+03  0.12465719933E+03  0.19533496989E+03  0.17770000000E+01 0. -1.
          1    1    6    6  503    0  0.11099501027E+03  0.13753129283E+02 -0.60253609872E+01  0.11200600808E+03  0.00000000000E+00 0. -1.
         -1    1    6    6    0  503  0.96407227954E+02  0.10736217100E+03  0.12513024767E+02  0.14483633920E+03  0.00000000000E+00 0.  1.
<mgrwt>
<rscale>  0 0.62231194E+03</rscale>
<asrwt>0</asrwt>
<pdfrwt beam="1">  1        1 0.59288341E-01 0.62231194E+03</pdfrwt>
<pdfrwt beam="2">  1       -1 0.17418321E+00 0.62231194E+03</pdfrwt>
<totfact> 0.15095842E+01</totfact>
</mgrwt>
</event>
<event>
12    1  0.9321077E-008  0.5568525E+03  0.7818608E-02  0.9999202E-01
         -1   -1    0    0    0  501 -0.00000000000E+00  0.00000000000E+00  0.17550676785E+03  0.17550676785E+03  0.00000000000E+00 0.  1.
          1   -1    0    0  501    0  0.00000000000E+00 -0.00000000000E+00 -0.19083324282E+04  0.19083324282E+04  0.00000000000E+00 0. -1.
         23    2    1    2    0    0  0.40745243989E+01  0.41390045368E+03 -0.72255931452E+03  0.83804211701E+03  0.94299732687E+02 0.  0.
    5000000    2    1    2    0    0 -0.40745243989E+01 -0.41390045368E+03 -0.10102663459E+04  0.12457970791E+04  0.60003507008E+03 0.  0.
         23    2    4    4    0    0 -0.94953286367E+02 -0.53529552890E+03 -0.71946510847E+03  0.90634709633E+03  0.90981244548E+02 0.  0.
         23    2    4    4    0    0  0.90878761968E+02  0.12139507523E+03 -0.29080123741E+03  0.33944998275E+03  0.87551227549E+02 0.  0.
          4    1    3    3  502    0  0.20657356718E+02  0.36714030490E+03 -0.57655028582E+03  0.68383401637E+03  0.00000000000E+00 0. -1.
         -4    1    3    3    0  502 -0.16582832319E+02  0.46760148778E+02 -0.14600902870E+03  0.15420810064E+03  0.00000000000E+00 0.  1.
         15    1    5    5    0    0 -0.23166864156E+02 -0.15665979264E+03 -0.28126718972E+03  0.32278999980E+03  0.17770000000E+01 0. -1.
        -15    1    5    5    0    0 -0.71786422211E+02 -0.37863573626E+03 -0.43819791875E+03  0.58355709653E+03  0.17770000000E+01 0.  1.
          1    1    6    6  503    0  0.17378329112E+02  0.13246265231E+02 -0.13174020024E+03  0.13354006974E+03  0.00000000000E+00 0. -1.
         -1    1    6    6    0  503  0.73500432856E+02  0.10814881000E+03 -0.15906103717E+03  0.20590991302E+03  0.00000000000E+00 0.  1.
<mgrwt>
<rscale>  0 0.55685252E+03</rscale>
<asrwt>0</asrwt>
<pdfrwt beam="1">  1        1 0.29358959E+00 0.55685252E+03</pdfrwt>
<pdfrwt beam="2">  1       -1 0.27001042E-01 0.55685252E+03</pdfrwt>
<totfact> 0.44763149E+01</totfact>
</mgrwt>
</event>
<event>
12    1  0.9321077E-008  0.3879385E+03  0.7818608E-02  0.1048038E+00
          2   -1    0    0  501    0  0.00000000000E+00  0.00000000000E+00  0.16900303606E+04  0.16900303606E+04  0.00000000000E+00 0.  1.
         -2   -1    0    0    0  501 -0.00000000000E+00 -0.00000000000E+00 -0.14106600734E+03  0.14106600734E+03  0.00000000000E+00 0. -1.
         23    2    1    2    0    0 -0.23851984546E+03  0.13141108031E+03  0.28224311955E+03  0.40324996127E+03  0.93748408128E+02 0.  0.
    5000000    2    1    2    0    0  0.23851984546E+03 -0.13141108031E+03  0.12667212337E+04  0.14278464066E+04  0.60000174031E+03 0.  0.
         23    2    4    4    0    0  0.22386660387E+03 -0.25951164084E+03  0.12087371554E+04  0.12594498957E+04  0.87783715952E+02 0.  0.
         23    2    4    4    0    0  0.14653241587E+02  0.12810056053E+03  0.57984078253E+02  0.16839651094E+03  0.91491860122E+02 0.  0.
          2    1    3    3  502    0 -0.52296469152E+02  0.17823831948E+02  0.13045422961E+02  0.56769646214E+02  0.00000000000E+00 0. -1.
         -2    1    3    3    0  502 -0.18622337630E+03  0.11358724836E+03  0.26919769659E+03  0.34648031505E+03  0.00000000000E+00 0.  1.
         15    1    5    5    0    0  0.15458458842E+03 -0.20734251571E+03  0.77168551777E+03  0.81387284625E+03  0.17770000000E+01 0. -1.
        -15    1    5    5    0    0  0.69282015452E+02 -0.52169125133E+02  0.43705163765E+03  0.44557704943E+03  0.17770000000E+01 0.  1.
          3    1    6    6  503    0  0.34077994316E+02  0.74100030599E+01  0.20873868713E+02  0.40644018465E+02  0.00000000000E+00 0. -1.
         -3    1    6    6    0  503 -0.19424752730E+02  0.12069055747E+03  0.37110209541E+02  0.12775249248E+03  0.00000000000E+00 0.  1.
<mgrwt>
<rscale>  0 0.38793851E+03</rscale>
<asrwt>0</asrwt>
<pdfrwt beam="1">  1        2 0.26000466E+00 0.38793851E+03</pdfrwt>
<pdfrwt beam="2">  1       -2 0.21702464E-01 0.38793851E+03</pdfrwt>
<totfact> 0.19450655E+02</totfact>
</mgrwt>
</event>
<event>
12    1  0.9321077E-008  0.4328580E+03  0.7818608E-02  0.1032961E+00
         -4   -1    0    0    0  501 -0.00000000000E+00  0.00000000000E+00  0.25389396813E+03  0.25389396813E+03  0.00000000000E+00 0.  1.
          4   -1    0    0  501    0  0.00000000000E+00 -0.00000000000E+00 -0.15297473691E+04  0.15297473691E+04  0.00000000000E+00 0. -1.
         23    2    1    2    0    0  0.29627138981E+03  0.20605713382E+03 -0.55390071235E+02  0.37662652385E+03  0.92429430724E+02 0.  0.
    5000000    2    1    2    0    0 -0.29627138981E+03 -0.20605713382E+03 -0.12204633298E+04  0.14070148134E+04  0.59993638580E+03 0.  0.
         23    2    4    4    0    0 -0.33308952078E+03 -0.70105327855E+02 -0.11851034128E+04  0.12369657436E+04  0.98745967246E+02 0.  0.
         23    2    4    4    0    0  0.36818130976E+02 -0.13595180596E+03 -0.35359917001E+02  0.17004906980E+03  0.88475386953E+02 0.  0.
          2    1    3    3  502    0  0.74655000747E+02  0.57855905392E+02 -0.56426472885E+02  0.11002100603E+03  0.00000000000E+00 0. -1.
         -2    1    3    3    0  502  0.22161638906E+03  0.14820122842E+03  0.10364016496E+01  0.26660551783E+03  0.00000000000E+00 0.  1.
         15    1    5    5    0    0 -0.27510596133E+03 -0.27693101251E+02 -0.83587815769E+03  0.88042356287E+03  0.17770000000E+01 0.  1.
        -15    1    5    5    0    0 -0.57983559449E+02 -0.42412226605E+02 -0.34922525508E+03  0.35654218074E+03  0.17770000000E+01 0. -1.
          1    1    6    6  503    0 -0.97102011150E+01 -0.91290487475E+02 -0.49094995793E+02  0.10410840370E+03  0.00000000000E+00 0. -1.
         -1    1    6    6    0  503  0.46528332091E+02 -0.44661318485E+02  0.13735078792E+02  0.65940666097E+02  0.00000000000E+00 0.  1.
<mgrwt>
<rscale>  0 0.43285796E+03</rscale>
<asrwt>0</asrwt>
<pdfrwt beam="1">  1        4 0.23534575E+00 0.43285796E+03</pdfrwt>
<pdfrwt beam="2">  1       -4 0.39060610E-01 0.43285796E+03</pdfrwt>
<totfact> 0.10022845E+00</totfact>
</mgrwt>
</event>
<event>
12    1  0.9321077E-008  0.4635616E+03  0.7818608E-02  0.1023753E+00
          1   -1    0    0  501    0  0.00000000000E+00  0.00000000000E+00  0.28152813849E+03  0.28152813849E+03  0.00000000000E+00 0. -1.
         -1   -1    0    0    0  501 -0.00000000000E+00 -0.00000000000E+00 -0.12989097724E+04  0.12989097724E+04  0.00000000000E+00 0.  1.
         23    2    1    2    0    0 -0.27678201848E+03  0.66366932144E+01 -0.85032192883E+03  0.89890828959E+03  0.91303882737E+02 0.  0.
    5000000    2    1    2    0    0  0.27678201848E+03 -0.66366932144E+01 -0.16705970506E+03  0.68152962127E+03  0.59993445322E+03 0.  0.
         23    2    4    4    0    0 -0.59855404477E+02 -0.21104729616E+03  0.16078819573E+02  0.23798011828E+03  0.90842597919E+02 0.  0.
         23    2    4    4    0    0  0.33663742296E+03  0.20441060294E+03 -0.18313852463E+03  0.44354950299E+03  0.89933271184E+02 0.  0.
          3    1    3    3  502    0 -0.23031554195E+03 -0.23203708386E+02 -0.74281674135E+03  0.77804908082E+03  0.00000000000E+00 0. -1.
         -3    1    3    3    0  502 -0.46466476531E+02  0.29840401600E+02 -0.10750518748E+03  0.12085920877E+03  0.00000000000E+00 0.  1.
         15    1    5    5    0    0 -0.17987737363E+02 -0.18938222032E+03  0.14083307830E+02  0.19076341724E+03  0.17770000000E+01 0. -1.
        -15    1    5    5    0    0 -0.41867667114E+02 -0.21665075834E+02  0.19955117430E+01  0.47216701035E+02  0.17770000000E+01 0.  1.
          1    1    6    6  503    0  0.24108588875E+03  0.98703092535E+02 -0.13297898227E+03  0.29248609532E+03  0.00000000000E+00 0. -1.
         -1    1    6    6    0  503  0.95551534209E+02  0.10570751041E+03 -0.50159542357E+02  0.15106340767E+03  0.00000000000E+00 0.  1.
<mgrwt>
<rscale>  0 0.46356155E+03</rscale>
<asrwt>0</asrwt>
<pdfrwt beam="1">  1        1 0.43312021E-01 0.46356155E+03</pdfrwt>
<pdfrwt beam="2">  1       -1 0.19983227E+00 0.46356155E+03</pdfrwt>
<totfact> 0.15382979E+01</totfact>
</mgrwt>
</event>
<event>
12    1  0.9321077E-008  0.5633613E+03  0.7818608E-02  0.9984478E-01
         -2   -1    0    0    0  501 -0.00000000000E+00  0.00000000000E+00  0.30125321209E+03  0.30125321209E+03  0.00000000000E+00 0. -1.
          2   -1    0    0  501    0  0.00000000000E+00 -0.00000000000E+00 -0.14874893297E+04  0.14874893297E+04  0.00000000000E+00 0.  1.
         23    2    1    2    0    0 -0.84171617177E+02 -0.52350046178E+03 -0.48291144968E+03  0.72301705091E+03  0.91720188900E+02 0.  0.
    5000000    2    1    2    0    0  0.84171617177E+02  0.52350046178E+03 -0.70332466797E+03  0.10657254909E+04  0.59997303173E+03 0.  0.
         23    2    4    4    0    0  0.12653804386E+03  0.44976820628E+03 -0.78355747901E+03  0.91681044389E+03  0.90971155902E+02 0.  0.
         23    2    4    4    0    0 -0.42366426679E+02  0.73732255501E+02  0.80232811034E+02  0.14891504703E+03  0.92233549507E+02 0.  0.
          1    1    3    3  502    0  0.19749686566E+02 -0.10674940271E+03 -0.10024720650E+03  0.14776666576E+03  0.00000000000E+00 0. -1.
         -1    1    3    3    0  502 -0.10392130374E+03 -0.41675105906E+03 -0.38266424318E+03  0.57525038515E+03  0.00000000000E+00 0.  1.
         15    1    5    5    0    0  0.10589745739E+03  0.33114809396E+03 -0.50256924031E+03  0.61110746244E+03  0.17770000000E+01 0. -1.
        -15    1    5    5    0    0  0.20640586466E+02  0.11862011232E+03 -0.28098823869E+03  0.30570298145E+03  0.17770000000E+01 0.  1.
          1    1    6    6  503    0 -0.50674804929E+02  0.89435777767E+02  0.81385440570E+02  0.13111172387E+03  0.00000000000E+00 0. -1.
         -1    1    6    6    0  503  0.83083782495E+01 -0.15703522266E+02 -0.11526295354E+01  0.17803323160E+02  0.00000000000E+00 0.  1.
<mgrwt>
<rscale>  0 0.56336129E+03</rscale>
<asrwt>0</asrwt>
<pdfrwt beam="1">  1        2 0.22884451E+00 0.56336129E+03</pdfrwt>
<pdfrwt beam="2">  1       -2 0.46346647E-01 0.56336129E+03</pdfrwt>
<totfact> 0.59418312E+01</totfact>
</mgrwt>
</event>
<event>
12    1  0.9321077E-008  0.5142333E+03  0.7818608E-02  0.1010129E+00
          1   -1    0    0  501    0  0.00000000000E+00  0.00000000000E+00  0.45404197201E+03  0.45404197201E+03  0.00000000000E+00 0. -1.
         -1   -1    0    0    0  501 -0.00000000000E+00 -0.00000000000E+00 -0.72914395690E+03  0.72914395690E+03  0.00000000000E+00 0.  1.
         23    2    1    2    0    0 -0.26530164488E+03  0.30905112597E+03 -0.15987853139E+03  0.44897269672E+03  0.10058715804E+03 0.  0.
    5000000    2    1    2    0    0  0.26530164488E+03 -0.30905112597E+03 -0.11522345350E+03  0.73421323219E+03  0.59991254768E+03 0.  0.
         23    2    4    4    0    0 -0.98274700125E+02 -0.20755413519E+03  0.12567440045E+03  0.27723488417E+03  0.91260562983E+02 0.  0.
         23    2    4    4    0    0  0.36357634500E+03 -0.10149699077E+03 -0.24089785394E+03  0.45697834802E+03  0.91148432485E+02 0.  0.
          3    1    3    3  502    0 -0.22947944885E+03  0.25873506903E+03 -0.17165327780E+03  0.38609519703E+03  0.00000000000E+00 0. -1.
         -3    1    3    3    0  502 -0.35822196027E+02  0.50316056939E+02  0.11774746409E+02  0.62877499688E+02  0.00000000000E+00 0.  1.
         15    1    5    5    0    0 -0.96810383410E+02 -0.11310124305E+03  0.99915900911E+02  0.17930556740E+03  0.17770000000E+01 0.  1.
        -15    1    5    5    0    0 -0.14643167153E+01 -0.94452892142E+02  0.25758499535E+02  0.97929316778E+02  0.17770000000E+01 0. -1.
          1    1    6    6  503    0  0.79962707252E+02 -0.23859365263E+02 -0.11923236295E+02  0.84293934690E+02  0.00000000000E+00 0. -1.
         -1    1    6    6    0  503  0.28361363775E+03 -0.77637625511E+02 -0.22897461765E+03  0.37268441333E+03  0.00000000000E+00 0.  1.
<mgrwt>
<rscale>  0 0.51423329E+03</rscale>
<asrwt>0</asrwt>
<pdfrwt beam="1">  1        1 0.69852612E-01 0.51423329E+03</pdfrwt>
<pdfrwt beam="2">  1       -1 0.11217599E+00 0.51423329E+03</pdfrwt>
<totfact> 0.38650659E+01</totfact>
</mgrwt>
</event>
<event>
12    1  0.9321077E-008  0.8895634E+03  0.7818608E-02  0.9438723E-01
          1   -1    0    0  501    0  0.00000000000E+00  0.00000000000E+00  0.40812736614E+03  0.40812736614E+03  0.00000000000E+00 0. -1.
         -1   -1    0    0    0  501 -0.00000000000E+00 -0.00000000000E+00 -0.23526156161E+04  0.23526156161E+04  0.00000000000E+00 0.  1.
         23    2    1    2    0    0  0.25236637040E+03  0.75056784244E+03 -0.32486267676E+03  0.86068425354E+03  0.90558017383E+02 0.  0.
    5000000    2    1    2    0    0 -0.25236637040E+03 -0.75056784244E+03 -0.16196255732E+04  0.19000587287E+04  0.59999608680E+03 0.  0.
         23    2    4    4    0    0  0.61437388092E+02 -0.63811708510E+03 -0.10377047174E+04  0.12232254164E+04  0.92094363583E+02 0.  0.
         23    2    4    4    0    0 -0.31380375849E+03 -0.11245075735E+03 -0.58192085578E+03  0.67683331232E+03  0.91397366513E+02 0.  0.
          1    1    3    3  502    0  0.14404829538E+03  0.44025318851E+03 -0.14165332211E+03  0.48439492675E+03  0.00000000000E+00 0. -1.
         -1    1    3    3    0  502  0.10831807501E+03  0.31031465393E+03 -0.18320935465E+03  0.37628932678E+03  0.00000000000E+00 0.  1.
         15    1    5    5    0    0  0.36677850878E+02 -0.10520973678E+03 -0.13960830218E+03  0.17862807513E+03  0.17770000000E+01 0. -1.
        -15    1    5    5    0    0  0.24759537213E+02 -0.53290734831E+03 -0.89809641527E+03  0.10445973413E+04  0.17770000000E+01 0.  1.
          4    1    6    6  503    0 -0.15426501148E+03 -0.96537070513E+02 -0.35581445984E+03  0.39965113484E+03  0.00000000000E+00 0.  1.
         -4    1    6    6    0  503 -0.15953874701E+03 -0.15913686835E+02 -0.22610639594E+03  0.27718217748E+03  0.00000000000E+00 0. -1.
<mgrwt>
<rscale>  0 0.88956335E+03</rscale>
<asrwt>0</asrwt>
<pdfrwt beam="1">  1        1 0.62788825E-01 0.88956335E+03</pdfrwt>
<pdfrwt beam="2">  1       -1 0.36194087E+00 0.88956335E+03</pdfrwt>
<totfact> 0.78553287E-01</totfact>
</mgrwt>
</event>
<event>
12    1  0.9321077E-008  0.6199112E+03  0.7818608E-02  0.9864936E-01
         -3   -1    0    0    0  501 -0.00000000000E+00  0.00000000000E+00  0.27271389963E+03  0.27271389963E+03  0.00000000000E+00 0.  1.
          3   -1    0    0  501    0  0.00000000000E+00 -0.00000000000E+00 -0.20882031279E+04  0.20882031279E+04  0.00000000000E+00 0. -1.
         23    2    1    2    0    0  0.60984026208E+03 -0.72067581433E+02 -0.99970878560E+03  0.11767117912E+04  0.90189256895E+02 0.  0.
    5000000    2    1    2    0    0 -0.60984026208E+03  0.72067581433E+02 -0.81578044271E+03  0.11842052363E+04  0.59978782043E+03 0.  0.
         23    2    4    4    0    0 -0.35539478728E+03  0.19485669710E+02 -0.48637341076E+02  0.36897267188E+03  0.84202704802E+02 0.  0.
         23    2    4    4    0    0 -0.25444547479E+03  0.52581911723E+02 -0.76714310163E+03  0.81523256446E+03  0.92672750539E+02 0.  0.
          3    1    3    3  502    0  0.14418274674E+03  0.85564219106E+01 -0.29121103803E+03  0.32506267932E+03  0.00000000000E+00 0. -1.
         -3    1    3    3    0  502  0.46565751533E+03 -0.80624003344E+02 -0.70849774757E+03  0.85164911190E+03  0.00000000000E+00 0.  1.
         15    1    5    5    0    0 -0.26926148362E+03  0.14462386232E+02  0.52028884468E+00  0.26965595785E+03  0.17770000000E+01 0. -1.
        -15    1    5    5    0    0 -0.86133303667E+02  0.50232834783E+01 -0.49157629920E+02  0.99316714031E+02  0.17770000000E+01 0.  1.
          1    1    6    6  503    0 -0.48045053872E+02  0.35506602218E+02 -0.98019967984E+02  0.11479094096E+03  0.00000000000E+00 0.  1.
         -1    1    6    6    0  503 -0.20640042092E+03  0.17075309505E+02 -0.66912313365E+03  0.70044162350E+03  0.00000000000E+00 0. -1.
<mgrwt>
<rscale>  0 0.61991122E+03</rscale>
<asrwt>0</asrwt>
<pdfrwt beam="1">  1        3 0.32126202E+00 0.61991122E+03</pdfrwt>
<pdfrwt beam="2">  1       -3 0.41955984E-01 0.61991122E+03</pdfrwt>
<totfact> 0.45215126E-01</totfact>
</mgrwt>
</event>
<event>
12    1  0.9321077E-008  0.1071186E+04  0.7818608E-02  0.9233741E-01
         -2   -1    0    0    0  501 -0.00000000000E+00  0.00000000000E+00  0.63536232607E+03  0.63536232607E+03  0.00000000000E+00 0.  1.
          2   -1    0    0  501    0  0.00000000000E+00 -0.00000000000E+00 -0.30044543432E+04  0.30044543432E+04  0.00000000000E+00 0. -1.
         23    2    1    2    0    0  0.72725941332E+03 -0.67289242980E+03  0.83724330332E+01  0.99500767079E+03  0.90992807127E+02 0.  0.
    5000000    2    1    2    0    0 -0.72725941332E+03  0.67289242980E+03 -0.23774644501E+04  0.26448089984E+04  0.60082189563E+03 0.  0.
         23    2    4    4    0    0 -0.43011272830E+03  0.30600562352E+02 -0.81876949942E+03  0.92996630104E+03  0.92306415939E+02 0.  0.
         23    2    4    4    0    0 -0.29714668502E+03  0.64229186745E+03 -0.15586949507E+04  0.17148426974E+04  0.10159001951E+03 0.  0.
          3    1    3    3  502    0  0.55736076575E+03 -0.46666584030E+03  0.24283140083E+02  0.72733603003E+03  0.00000000000E+00 0. -1.
         -3    1    3    3    0  502  0.16989864757E+03 -0.20622658950E+03 -0.15910707050E+02  0.26767164075E+03  0.00000000000E+00 0.  1.
         15    1    5    5    0    0 -0.56714572202E+02 -0.23517674648E+02 -0.84941660031E+02  0.10482302733E+03  0.17770000000E+01 0. -1.
        -15    1    5    5    0    0 -0.37339815610E+03  0.54118236999E+02 -0.73382783939E+03  0.82514327371E+03  0.17770000000E+01 0.  1.
          2    1    6    6  503    0 -0.27744138975E+03  0.56081246633E+03 -0.14343669844E+04  0.15648939239E+04  0.00000000000E+00 0.  1.
         -2    1    6    6    0  503 -0.19705295267E+02  0.81479401115E+02 -0.12432796634E+03  0.14994877353E+03  0.00000000000E+00 0. -1.
<mgrwt>
<rscale>  0 0.10711855E+04</rscale>
<asrwt>0</asrwt>
<pdfrwt beam="1">  1        2 0.46222375E+00 0.10711855E+04</pdfrwt>
<pdfrwt beam="2">  1       -2 0.97748049E-01 0.10711855E+04</pdfrwt>
<totfact> 0.15211870E+00</totfact>
</mgrwt>
</event>
<event>
12    1  0.9321077E-008  0.6284020E+03  0.7818608E-02  0.9848172E-01
          1   -1    0    0  501    0  0.00000000000E+00  0.00000000000E+00  0.12162745489E+04  0.12162745489E+04  0.00000000000E+00 0. -1.
         -1   -1    0    0    0  501 -0.00000000000E+00 -0.00000000000E+00 -0.38861386812E+03  0.38861386812E+03  0.00000000000E+00 0.  1.
         23    2    1    2    0    0  0.49146046021E+03  0.55655789894E+02  0.48598062880E+02  0.50419307041E+03  0.84958399457E+02 0.  0.
    5000000    2    1    2    0    0 -0.49146046021E+03 -0.55655789894E+02  0.77906261789E+03  0.11006953466E+04  0.59996727624E+03 0.  0.
         23    2    4    4    0    0 -0.19856616776E+03 -0.30654245350E+03  0.31754465308E+03  0.49244793616E+03  0.90959135617E+02 0.  0.
         23    2    4    4    0    0 -0.29289429245E+03  0.25088666361E+03  0.46151796482E+03  0.60824741045E+03  0.90746327463E+02 0.  0.
          4    1    3    3  502    0  0.16593104027E+03 -0.12773133525E+02  0.41296390936E+02  0.17146910792E+03  0.00000000000E+00 0. -1.
         -4    1    3    3    0  502  0.32552941993E+03  0.68428923419E+02  0.73016719447E+01  0.33272396249E+03  0.00000000000E+00 0.  1.
         15    1    5    5    0    0 -0.12882714213E+03 -0.21559401214E+03  0.26884090598E+03  0.36790732675E+03  0.17770000000E+01 0.  1.
        -15    1    5    5    0    0 -0.69739025628E+02 -0.90948441363E+02  0.48703747101E+02  0.12454060941E+03  0.17770000000E+01 0. -1.
          2    1    6    6  503    0 -0.16935477952E+03  0.18902874090E+03  0.33979197744E+03  0.42411259609E+03  0.00000000000E+00 0. -1.
         -2    1    6    6    0  503 -0.12353951293E+03  0.61857922712E+02  0.12172598737E+03  0.18413481436E+03  0.00000000000E+00 0.  1.
<mgrwt>
<rscale>  0 0.62840205E+03</rscale>
<asrwt>0</asrwt>
<pdfrwt beam="1">  1        1 0.18711916E+00 0.62840205E+03</pdfrwt>
<pdfrwt beam="2">  1       -1 0.59786749E-01 0.62840205E+03</pdfrwt>
<totfact> 0.30814586E+01</totfact>
</mgrwt>
</event>
<event>
12    1  0.9321077E-008  0.6306698E+03  0.7818608E-02  0.9843743E-01
          2   -1    0    0  501    0  0.00000000000E+00  0.00000000000E+00  0.26312480383E+04  0.26312480383E+04  0.00000000000E+00 0. -1.
         -2   -1    0    0    0  501 -0.00000000000E+00 -0.00000000000E+00 -0.15609922931E+03  0.15609922931E+03  0.00000000000E+00 0.  1.
         23    2    1    2    0    0  0.44877176731E+03 -0.20471520475E+03  0.10724083024E+04  0.11839881491E+04  0.91999761457E+02 0.  0.
    5000000    2    1    2    0    0 -0.44877176731E+03  0.20471520475E+03  0.14027405067E+04  0.16033591185E+04  0.59981257051E+03 0.  0.
         23    2    4    4    0    0 -0.42524729683E+03 -0.10923290010E+03  0.80509572692E+03  0.92182475593E+03  0.93886427181E+02 0.  0.
         23    2    4    4    0    0 -0.23524470481E+02  0.31394810485E+03  0.59764477975E+03  0.68153436261E+03  0.90515144592E+02 0.  0.
          3    1    3    3  502    0  0.14151667102E+03 -0.48051810972E+02  0.42388246486E+03  0.44945777191E+03  0.00000000000E+00 0. -1.
         -3    1    3    3    0  502  0.30725509629E+03 -0.15666339378E+03  0.64852583749E+03  0.73453037721E+03  0.00000000000E+00 0.  1.
         15    1    5    5    0    0 -0.19249697918E+03 -0.27573474885E+02  0.27137635502E+03  0.33386174878E+03  0.17770000000E+01 0.  1.
        -15    1    5    5    0    0 -0.23275031765E+03 -0.81659425219E+02  0.53371937191E+03  0.58796300714E+03  0.17770000000E+01 0. -1.
          1    1    6    6  503    0  0.31846032563E+02  0.12181650290E+03  0.26561087814E+03  0.29394313864E+03  0.00000000000E+00 0. -1.
         -1    1    6    6    0  503 -0.55370503044E+02  0.19213160196E+03  0.33203390161E+03  0.38759122397E+03  0.00000000000E+00 0.  1.
<mgrwt>
<rscale>  0 0.63066979E+03</rscale>
<asrwt>0</asrwt>
<pdfrwt beam="1">  1        2 0.40480736E+00 0.63066979E+03</pdfrwt>
<pdfrwt beam="2">  1       -2 0.24015268E-01 0.63066979E+03</pdfrwt>
<totfact> 0.47812359E+01</totfact>
</mgrwt>
</event>
<event>
12    1  0.9321077E-008  0.1327788E+04  0.7818608E-02  0.9007815E-01
          1   -1    0    0  501    0  0.00000000000E+00  0.00000000000E+00  0.37855378149E+04  0.37855378149E+04  0.00000000000E+00 0. -1.
         -1   -1    0    0    0  501 -0.00000000000E+00 -0.00000000000E+00 -0.76088486448E+03  0.76088486448E+03  0.00000000000E+00 0.  1.
         23    2    1    2    0    0 -0.12615942486E+04  0.23481773276E+03  0.92839162999E+02  0.12899941133E+04  0.93307483183E+02 0.  0.
    5000000    2    1    2    0    0  0.12615942486E+04 -0.23481773276E+03  0.29318137874E+04  0.32564285661E+04  0.60169386428E+03 0.  0.
         23    2    4    4    0    0  0.74246770309E+03  0.94128574295E+02  0.12062722508E+04  0.14224373945E+04  0.90093947683E+02 0.  0.
         23    2    4    4    0    0  0.51912654550E+03 -0.32894630705E+03  0.17255415366E+04  0.18339911716E+04  0.91279680073E+02 0.  0.
          3    1    3    3  502    0 -0.35042072575E+03  0.28917855555E+02  0.46797352480E+02  0.35471244636E+03  0.00000000000E+00 0. -1.
         -3    1    3    3    0  502 -0.91117352284E+03  0.20589987720E+03  0.46041810520E+02  0.93528166692E+03  0.00000000000E+00 0.  1.
         15    1    5    5    0    0  0.58660215407E+03  0.39661406051E+02  0.96740025894E+03  0.11320519127E+04  0.17770000000E+01 0.  1.
        -15    1    5    5    0    0  0.15586554902E+03  0.54467168244E+02  0.23887199191E+03  0.29038548179E+03  0.17770000000E+01 0. -1.
          1    1    6    6  503    0  0.12804429842E+03 -0.10842707195E+03  0.57404420213E+03  0.59806230302E+03  0.00000000000E+00 0. -1.
         -1    1    6    6    0  503  0.39108224708E+03 -0.22051923510E+03  0.11514973344E+04  0.12359288686E+04  0.00000000000E+00 0.  1.
<mgrwt>
<rscale>  0 0.13277882E+04</rscale>
<asrwt>0</asrwt>
<pdfrwt beam="1">  1        1 0.58239042E+00 0.13277882E+04</pdfrwt>
<pdfrwt beam="2">  1       -1 0.11705921E+00 0.13277882E+04</pdfrwt>
<totfact> 0.95223980E-02</totfact>
</mgrwt>
</event>
<event>
12    1  0.9321077E-008  0.1257300E+04  0.7818608E-02  0.9064130E-01
          1   -1    0    0  501    0  0.00000000000E+00  0.00000000000E+00  0.19040255018E+04  0.19040255018E+04  0.00000000000E+00 0. -1.
         -1   -1    0    0    0  501 -0.00000000000E+00 -0.00000000000E+00 -0.17087734320E+04  0.17087734320E+04  0.00000000000E+00 0.  1.
         23    2    1    2    0    0 -0.25569764780E+03  0.11663653925E+04 -0.11896309882E+04  0.16882268280E+04  0.95385630762E+02 0.  0.
    5000000    2    1    2    0    0  0.25569764780E+03 -0.11663653925E+04  0.13848830580E+04  0.19245721058E+04  0.60023927739E+03 0.  0.
         23    2    4    4    0    0  0.19455746838E+03 -0.69834175302E+02  0.32212151468E+03  0.39371447118E+03  0.92300563691E+02 0.  0.
         23    2    4    4    0    0  0.61140179419E+02 -0.10965312172E+04  0.10627615433E+04  0.15308576346E+04  0.89130060137E+02 0.  0.
          4    1    3    3  502    0 -0.39036832489E+02  0.18669187408E+03 -0.14326398594E+03  0.23854202943E+03  0.00000000000E+00 0. -1.
         -4    1    3    3    0  502 -0.21666081531E+03  0.97967351845E+03 -0.10463670023E+04  0.14496847985E+04  0.00000000000E+00 0.  1.
         15    1    5    5    0    0  0.34042414598E+02  0.14898088591E+02  0.22731886020E+02  0.43597424308E+02  0.17770000000E+01 0.  1.
        -15    1    5    5    0    0  0.16051505379E+03 -0.84732263893E+02  0.29938962866E+03  0.35011704687E+03  0.17770000000E+01 0. -1.
          4    1    6    6  503    0 -0.21895955997E+02 -0.34704035919E+03  0.34134826106E+03  0.48727310527E+03  0.00000000000E+00 0.  1.
         -4    1    6    6    0  503  0.83036135415E+02 -0.74949085805E+03  0.72141328228E+03  0.10435845294E+04  0.00000000000E+00 0. -1.
<mgrwt>
<rscale>  0 0.12572997E+04</rscale>
<asrwt>0</asrwt>
<pdfrwt beam="1">  1        1 0.29292700E+00 0.12572997E+04</pdfrwt>
<pdfrwt beam="2">  1       -1 0.26288822E+00 0.12572997E+04</pdfrwt>
<totfact> 0.19386865E-01</totfact>
</mgrwt>
</event>
<event>
12    1  0.9321077E-008  0.4990901E+03  0.7818608E-02  0.1014017E+00
          1   -1    0    0  501    0  0.00000000000E+00  0.00000000000E+00  0.47721045097E+03  0.47721045097E+03  0.00000000000E+00 0. -1.
         -1   -1    0    0    0  501 -0.00000000000E+00 -0.00000000000E+00 -0.80802895680E+03  0.80802895680E+03  0.00000000000E+00 0.  1.
         23    2    1    2    0    0  0.10262424255E+03  0.43063174066E+03  0.38767411743E+02  0.45300424119E+03  0.87946001042E+02 0.  0.
    5000000    2    1    2    0    0 -0.10262424255E+03 -0.43063174066E+03 -0.36958591757E+03  0.83223516658E+03  0.60003849110E+03 0.  0.
         23    2    4    4    0    0 -0.10035402959E+03 -0.44772625929E+03 -0.14823377136E+02  0.46739554887E+03  0.87801663286E+02 0.  0.
         23    2    4    4    0    0 -0.22702129599E+01  0.17094518633E+02 -0.35476254043E+03  0.36483961771E+03  0.83391307238E+02 0.  0.
          2    1    3    3  502    0  0.11814047235E+03  0.35851640178E+03  0.35891570609E+02  0.37918252385E+03  0.00000000000E+00 0. -1.
         -2    1    3    3    0  502 -0.15516229796E+02  0.72115338880E+02  0.28758411340E+01  0.73821717341E+02  0.00000000000E+00 0.  1.
         15    1    5    5    0    0  0.78130596788E+01 -0.80553613478E+02 -0.24237586618E+02  0.84501756667E+02  0.17770000000E+01 0. -1.
        -15    1    5    5    0    0 -0.10816708927E+03 -0.36717264582E+03  0.94142094813E+01  0.38289379220E+03  0.17770000000E+01 0.  1.
          2    1    6    6  503    0 -0.32959262697E+02 -0.17205846726E+02 -0.12077061696E+03  0.12636414080E+03  0.00000000000E+00 0. -1.
         -2    1    6    6    0  503  0.30689049737E+02  0.34300365359E+02 -0.23399192347E+03  0.23847547691E+03  0.00000000000E+00 0.  1.
<mgrwt>
<rscale>  0 0.49909014E+03</rscale>
<asrwt>0</asrwt>
<pdfrwt beam="1">  1        1 0.73416993E-01 0.49909014E+03</pdfrwt>
<pdfrwt beam="2">  1       -1 0.12431215E+00 0.49909014E+03</pdfrwt>
<totfact> 0.28305108E+01</totfact>
</mgrwt>
</event>
<event>
12    1  0.2055551E-007  0.1558286E+04  0.7818608E-02  0.8846593E-01
         -2   -1    0    0    0  501 -0.00000000000E+00  0.00000000000E+00  0.12328274104E+04  0.12328274104E+04  0.00000000000E+00 0.  1.
          2   -1    0    0  501    0  0.00000000000E+00 -0.00000000000E+00 -0.21047252711E+04  0.21047252711E+04  0.00000000000E+00 0. -1.
         23    2    1    2    0    0  0.27296538948E+02  0.15444471209E+04 -0.59383722159E+03  0.16573973164E+04  0.90891188987E+02 0.  0.
    5000000    2    1    2    0    0 -0.27296538948E+02 -0.15444471209E+04 -0.27806063906E+03  0.16801553651E+04  0.59961847993E+03 0.  0.
         23    2    4    4    0    0  0.11920408131E+03 -0.59037869700E+03 -0.35993934264E+03  0.70716707717E+03  0.88160795050E+02 0.  0.
         23    2    4    4    0    0 -0.14650062026E+03 -0.95406842392E+03  0.81878703579E+02  0.97298828792E+03  0.91066443116E+02 0.  0.
          1    1    3    3  502    0 -0.22873789514E+02  0.64860344776E+03 -0.28023936057E+03  0.70692555612E+03  0.00000000000E+00 0. -1.
         -1    1    3    3    0  502  0.50170328462E+02  0.89584367316E+03 -0.31359786102E+03  0.95047176026E+03  0.00000000000E+00 0.  1.
         15    1    5    5    0    0  0.41713936143E+02 -0.97239695941E+02 -0.94052466700E+02  0.14157907740E+03  0.17770000000E+01 0. -1.
        -15    1    5    5    0    0  0.77490145167E+02 -0.49313900106E+03 -0.26588687594E+03  0.56558799977E+03  0.17770000000E+01 0.  1.
          4    1    6    6  503    0 -0.30480260332E+02 -0.22563469727E+03  0.58144590738E+02  0.23499118348E+03  0.00000000000E+00 0. -1.
         -4    1    6    6    0  503 -0.11602035993E+03 -0.72843372666E+03  0.23734112840E+02  0.73799710444E+03  0.00000000000E+00 0.  1.
<mgrwt>
<rscale>  0 0.15582856E+04</rscale>
<asrwt>0</asrwt>
<pdfrwt beam="1">  1        2 0.32380389E+00 0.15582856E+04</pdfrwt>
<pdfrwt beam="2">  1       -2 0.18966576E+00 0.15582856E+04</pdfrwt>
<totfact> 0.85047492E-01</totfact>
</mgrwt>
</event>
<event>
12    1  0.9321077E-008  0.8625107E+03  0.7818608E-02  0.9473698E-01
         -1   -1    0    0    0  501 -0.00000000000E+00  0.00000000000E+00  0.24345467856E+04  0.24345467856E+04  0.00000000000E+00 0.  1.
          1   -1    0    0  501    0  0.00000000000E+00 -0.00000000000E+00 -0.33319943580E+03  0.33319943580E+03  0.00000000000E+00 0. -1.
         23    2    1    2    0    0  0.29850452104E+03  0.70668937663E+03  0.12734107697E+04  0.14894343366E+04  0.91240509325E+02 0.  0.
    5000000    2    1    2    0    0 -0.29850452104E+03 -0.70668937663E+03  0.82793658010E+03  0.12783118848E+04  0.60007288728E+03 0.  0.
         23    2    4    4    0    0  0.73958571830E+02 -0.53191329482E+03  0.54786501967E+03  0.77225443086E+03  0.88426255469E+02 0.  0.
         23    2    4    4    0    0 -0.37246309287E+03 -0.17477608181E+03  0.28007156043E+03  0.50605745394E+03  0.91534875344E+02 0.  0.
          3    1    3    3  502    0  0.16933590867E+03  0.32897706063E+03  0.68213941870E+03  0.77602496282E+03  0.00000000000E+00 0. -1.
         -3    1    3    3    0  502  0.12916861238E+03  0.37771231600E+03  0.59127135101E+03  0.71340937378E+03  0.00000000000E+00 0.  1.
         15    1    5    5    0    0 -0.12269440911E+02 -0.20119584785E+03  0.22500294574E+03  0.30209235623E+03  0.17770000000E+01 0.  1.
        -15    1    5    5    0    0  0.86228012741E+02 -0.33071744696E+03  0.32286207394E+03  0.47016207463E+03  0.17770000000E+01 0. -1.
          4    1    6    6  503    0 -0.24459440463E+03 -0.12999706463E+03  0.23507311543E+03  0.36329743900E+03  0.00000000000E+00 0. -1.
         -4    1    6    6    0  503 -0.12786868825E+03 -0.44779017179E+02  0.44998444996E+02  0.14276001494E+03  0.00000000000E+00 0.  1.
<mgrwt>
<rscale>  0 0.86251066E+03</rscale>
<asrwt>0</asrwt>
<pdfrwt beam="1">  1        1 0.51261453E-01 0.86251066E+03</pdfrwt>
<pdfrwt beam="2">  1       -1 0.37454565E+00 0.86251066E+03</pdfrwt>
<totfact> 0.85030993E-01</totfact>
</mgrwt>
</event>
<event>
12    1  0.9321077E-008  0.4880391E+03  0.7818608E-02  0.1016949E+00
         -1   -1    0    0    0  501 -0.00000000000E+00  0.00000000000E+00  0.23891922129E+03  0.23891922129E+03  0.00000000000E+00 0.  1.
          1   -1    0    0  501    0  0.00000000000E+00 -0.00000000000E+00 -0.12476223913E+04  0.12476223913E+04  0.00000000000E+00 0. -1.
         23    2    1    2    0    0  0.23131259763E+03 -0.20050443801E+03 -0.62965176872E+02  0.32547688250E+03  0.90901265451E+02 0.  0.
    5000000    2    1    2    0    0 -0.23131259763E+03  0.20050443801E+03 -0.94573799312E+03  0.11610647301E+04  0.59995283838E+03 0.  0.
         23    2    4    4    0    0 -0.40985192683E+03  0.59038124351E+02 -0.53257615249E+03  0.68085903816E+03  0.92019397883E+02 0.  0.
         23    2    4    4    0    0  0.17853932920E+03  0.14146631366E+03 -0.41316184062E+03  0.48020569190E+03  0.89475080429E+02 0.  0.
          4    1    3    3  502    0  0.38009210862E+02 -0.49419660476E+02  0.21581581061E+02  0.65975507524E+02  0.00000000000E+00 0. -1.
         -4    1    3    3    0  502  0.19330338677E+03 -0.15108477753E+03 -0.84546757933E+02  0.25950137498E+03  0.00000000000E+00 0.  1.
         15    1    5    5    0    0 -0.24147424860E+03  0.80017116641E+02 -0.32675805387E+03  0.41410932758E+03  0.17770000000E+01 0. -1.
        -15    1    5    5    0    0 -0.16837767823E+03 -0.20978992290E+02 -0.20581809862E+03  0.26674971057E+03  0.17770000000E+01 0.  1.
          3    1    6    6  503    0  0.84113092767E+02  0.12153242521E+03 -0.26364456238E+03  0.30224757737E+03  0.00000000000E+00 0. -1.
         -3    1    6    6    0  503  0.94426236430E+02  0.19933888445E+02 -0.14951727824E+03  0.17795811453E+03  0.00000000000E+00 0.  1.
<mgrwt>
<rscale>  0 0.48803909E+03</rscale>
<asrwt>0</asrwt>
<pdfrwt beam="1">  1        1 0.19194191E+00 0.48803909E+03</pdfrwt>
<pdfrwt beam="2">  1       -1 0.36756803E-01 0.48803909E+03</pdfrwt>
<totfact> 0.73936334E+01</totfact>
</mgrwt>
</event>
<event>
12    1  0.9321077E-008  0.2057093E+03  0.7818608E-02  0.1145010E+00
          1   -1    0    0  501    0  0.00000000000E+00  0.00000000000E+00  0.30818345738E+04  0.30818345738E+04  0.00000000000E+00 0. -1.
         -1   -1    0    0    0  501 -0.00000000000E+00 -0.00000000000E+00 -0.10059626176E+03  0.10059626176E+03  0.00000000000E+00 0.  1.
         23    2    1    2    0    0  0.72299069730E+02 -0.14116297838E+03  0.20803130339E+04  0.20883450125E+04  0.91260234167E+02 0.  0.
    5000000    2    1    2    0    0 -0.72299069730E+02  0.14116297838E+03  0.90092527816E+03  0.10940858231E+04  0.60016938396E+03 0.  0.
         23    2    4    4    0    0  0.17563866968E+02  0.10057842766E+03 -0.36135876846E+02  0.14732885136E+03  0.99877321323E+02 0.  0.
         23    2    4    4    0    0 -0.89862936698E+02  0.40584550722E+02  0.93706115501E+03  0.94675697170E+03  0.92426739033E+02 0.  0.
          1    1    3    3  502    0  0.90305001120E+02 -0.10790466631E+03  0.18001675282E+04  0.18056582013E+04  0.00000000000E+00 0. -1.
         -1    1    3    3    0  502 -0.18005931389E+02 -0.33258312075E+02  0.28014550566E+03  0.28268681120E+03  0.00000000000E+00 0.  1.
         15    1    5    5    0    0  0.12246450922E+02  0.53527917682E+02  0.32569827161E+02  0.63868340372E+02  0.17770000000E+01 0. -1.
        -15    1    5    5    0    0  0.53174160461E+01  0.47050509978E+02 -0.68705704007E+02  0.83460510990E+02  0.17770000000E+01 0.  1.
          1    1    6    6  503    0 -0.95948376300E+02  0.67434911161E+01  0.56685763479E+03  0.57496012358E+03  0.00000000000E+00 0. -1.
         -1    1    6    6    0  503  0.60854396018E+01  0.33841059606E+02  0.37020352022E+03  0.37179684812E+03  0.00000000000E+00 0.  1.
<mgrwt>
<rscale>  0 0.20570925E+03</rscale>
<asrwt>0</asrwt>
<pdfrwt beam="1">  1        1 0.47412832E+00 0.20570925E+03</pdfrwt>
<pdfrwt beam="2">  1       -1 0.15476350E-01 0.20570925E+03</pdfrwt>
<totfact> 0.20149983E+01</totfact>
</mgrwt>
</event>
<event>
12    1  0.9321077E-008  0.6208599E+03  0.7818608E-02  0.9863049E-01
          2   -1    0    0  501    0  0.00000000000E+00  0.00000000000E+00  0.20289542371E+04  0.20289542371E+04  0.00000000000E+00 0. -1.
         -2   -1    0    0    0  501 -0.00000000000E+00 -0.00000000000E+00 -0.20970928868E+03  0.20970928868E+03  0.00000000000E+00 0.  1.
         23    2    1    2    0    0 -0.39081269347E+02 -0.50820602854E+03  0.67256480816E+03  0.84763066425E+03  0.79583972903E+02 0.  0.
    5000000    2    1    2    0    0  0.39081269347E+02  0.50820602854E+03  0.11466801403E+04  0.13910328615E+04  0.60024691983E+03 0.  0.
         23    2    4    4    0    0  0.22340394667E+03  0.46720565505E+03  0.55789084933E+03  0.76666355332E+03  0.91325553559E+02 0.  0.
         23    2    4    4    0    0 -0.18432267732E+03  0.41000373487E+02  0.58878929094E+03  0.62436930823E+03  0.86650585268E+02 0.  0.
          3    1    3    3  502    0 -0.24831535220E+02 -0.91769213278E+02  0.17017423522E+03  0.19492938204E+03  0.00000000000E+00 0. -1.
         -3    1    3    3    0  502 -0.14249734127E+02 -0.41643681526E+03  0.50239057293E+03  0.65270128221E+03  0.00000000000E+00 0.  1.
         15    1    5    5    0    0  0.13425232556E+03  0.35938422841E+03  0.37593300418E+03  0.53713079590E+03  0.17770000000E+01 0. -1.
        -15    1    5    5    0    0  0.89151621105E+02  0.10782142664E+03  0.18195784515E+03  0.22953275742E+03  0.17770000000E+01 0.  1.
          4    1    6    6  503    0 -0.18006977941E+03  0.57768074498E+02  0.51627144379E+03  0.54981676908E+03  0.00000000000E+00 0. -1.
         -4    1    6    6    0  503 -0.42528979118E+01 -0.16767701011E+02  0.72517847154E+02  0.74552539150E+02  0.00000000000E+00 0.  1.
<mgrwt>
<rscale>  0 0.62085988E+03</rscale>
<asrwt>0</asrwt>
<pdfrwt beam="1">  1        2 0.31214679E+00 0.62085988E+03</pdfrwt>
<pdfrwt beam="2">  1       -2 0.32262969E-01 0.62085988E+03</pdfrwt>
<totfact> 0.60265776E+01</totfact>
</mgrwt>
</event>
<event>
12    1  0.9321077E-008  0.5046904E+03  0.7818608E-02  0.1012562E+00
         -1   -1    0    0    0  501 -0.00000000000E+00  0.00000000000E+00  0.33725618526E+03  0.33725618526E+03  0.00000000000E+00 0.  1.
          1   -1    0    0  501    0  0.00000000000E+00 -0.00000000000E+00 -0.11901136327E+04  0.11901136327E+04  0.00000000000E+00 0. -1.
         23    2    1    2    0    0  0.47470863081E+03 -0.88810079185E+02 -0.28497649074E+03  0.57049902748E+03  0.10498583596E+03 0.  0.
    5000000    2    1    2    0    0 -0.47470863081E+03  0.88810079185E+02 -0.56788095670E+03  0.95687079048E+03  0.59989783661E+03 0.  0.
         23    2    4    4    0    0 -0.13227113930E+03 -0.27290878604E+02 -0.56080332687E+03  0.58374905625E+03  0.89566416147E+02 0.  0.
         23    2    4    4    0    0 -0.34243749151E+03  0.11610095779E+03 -0.70776298290E+01  0.37312173423E+03  0.91797972311E+02 0.  0.
          1    1    3    3  502    0  0.38637029994E+03 -0.30260625183E+02 -0.23594635093E+03  0.45372722491E+03  0.00000000000E+00 0. -1.
         -1    1    3    3    0  502  0.88338330873E+02 -0.58549454003E+02 -0.49030139813E+02  0.11677180257E+03  0.00000000000E+00 0.  1.
         15    1    5    5    0    0 -0.21686522667E+02 -0.25692636196E+02 -0.27885544805E+03  0.28088064273E+03  0.17770000000E+01 0.  1.
        -15    1    5    5    0    0 -0.11058461663E+03 -0.15982424078E+01 -0.28194787881E+03  0.30286841352E+03  0.17770000000E+01 0. -1.
          4    1    6    6  503    0 -0.29921409096E+03  0.12990151021E+03 -0.17143019558E+02  0.32664561485E+03  0.00000000000E+00 0. -1.
         -4    1    6    6    0  503 -0.43223400556E+02 -0.13800552417E+02  0.10065389729E+02  0.46476119385E+02  0.00000000000E+00 0.  1.
<mgrwt>
<rscale>  0 0.50469040E+03</rscale>
<asrwt>0</asrwt>
<pdfrwt beam="1">  1        1 0.18309440E+00 0.50469040E+03</pdfrwt>
<pdfrwt beam="2">  1       -1 0.51885567E-01 0.50469040E+03</pdfrwt>
<totfact> 0.43068849E+01</totfact>
</mgrwt>
</event>
<event>
12    1  0.9321077E-008  0.8848014E+03  0.7818608E-02  0.9444782E-01
          2   -1    0    0  501    0  0.00000000000E+00  0.00000000000E+00  0.87685749456E+03  0.87685749456E+03  0.00000000000E+00 0. -1.
         -2   -1    0    0    0  501 -0.00000000000E+00 -0.00000000000E+00 -0.11806902715E+04  0.11806902715E+04  0.00000000000E+00 0.  1.
         23    2    1    2    0    0 -0.77958810101E+03  0.17804454041E+03 -0.61281327805E+03  0.10112045083E+04  0.86815771990E+02 0.  0.
    5000000    2    1    2    0    0  0.77958810101E+03 -0.17804454041E+03  0.30898050113E+03  0.10463432577E+04  0.59992315951E+03 0.  0.
         23    2    4    4    0    0  0.25363442991E+03  0.18229283485E+03  0.22687933773E+03  0.39715819268E+03  0.93270008317E+02 0.  0.
         23    2    4    4    0    0  0.52595367110E+03 -0.36033737526E+03  0.82101163406E+02  0.64918506505E+03  0.90721328793E+02 0.  0.
          4    1    3    3  502    0 -0.67763348902E+03  0.15653141293E+03 -0.56726478731E+03  0.89748457792E+03  0.00000000000E+00 0. -1.
         -4    1    3    3    0  502 -0.10195461199E+03  0.21513127481E+02 -0.45548490737E+02  0.11371993039E+03  0.00000000000E+00 0.  1.
         15    1    5    5    0    0  0.44250749000E+02 -0.55960403140E+01  0.30185316081E+02  0.53886505640E+02  0.17770000000E+01 0. -1.
        -15    1    5    5    0    0  0.20938368091E+03  0.18788887517E+03  0.19669402164E+03  0.34327168704E+03  0.17770000000E+01 0.  1.
          1    1    6    6  503    0  0.27434153391E+03 -0.13311805286E+03  0.36574556926E+02  0.30711787874E+03  0.00000000000E+00 0. -1.
         -1    1    6    6    0  503  0.25161213719E+03 -0.22721932241E+03  0.45526606480E+02  0.34206718631E+03  0.00000000000E+00 0.  1.
<mgrwt>
<rscale>  0 0.88480139E+03</rscale>
<asrwt>0</asrwt>
<pdfrwt beam="1">  1        2 0.13490115E+00 0.88480139E+03</pdfrwt>
<pdfrwt beam="2">  1       -2 0.18164466E+00 0.88480139E+03</pdfrwt>
<totfact> 0.53911525E+00</totfact>
</mgrwt>
</event>
<event>
12    1  0.9321077E-008  0.5209624E+03  0.7818608E-02  0.1008448E+00
         -1   -1    0    0    0  501 -0.00000000000E+00  0.00000000000E+00  0.16867568750E+03  0.16867568750E+03  0.00000000000E+00 0.  1.
          1   -1    0    0  501    0  0.00000000000E+00 -0.00000000000E+00 -0.16607524553E+04  0.16607524553E+04  0.00000000000E+00 0. -1.
         23    2    1    2    0    0  0.33470755657E+03  0.10638313650E+03 -0.49616526570E+03  0.61483152841E+03  0.92148343887E+02 0.  0.
    5000000    2    1    2    0    0 -0.33470755657E+03 -0.10638313650E+03 -0.99591150214E+03  0.12145966144E+04  0.60004891095E+03 0.  0.
         23    2    4    4    0    0  0.86684733976E+02  0.14520164786E+03 -0.22336552403E+03  0.29479249185E+03  0.91720740730E+02 0.  0.
         23    2    4    4    0    0 -0.42139229054E+03 -0.25158478437E+03 -0.77254597811E+03  0.91980412257E+03  0.91356277063E+02 0.  0.
          2    1    3    3  502    0  0.24886313310E+03  0.11567928442E+03 -0.34613766680E+03  0.44173050634E+03  0.00000000000E+00 0. -1.
         -2    1    3    3    0  502  0.85844423467E+02 -0.92961479155E+01 -0.15002759890E+03  0.17310102206E+03  0.00000000000E+00 0.  1.
         15    1    5    5    0    0  0.10037498132E+03  0.10691901926E+03 -0.14366697392E+03  0.20530506735E+03  0.17770000000E+01 0. -1.
        -15    1    5    5    0    0 -0.13690247348E+02  0.38282628607E+02 -0.79698550113E+02  0.89487424505E+02  0.17770000000E+01 0.  1.
          4    1    6    6  503    0 -0.17963945400E+03 -0.76294101818E+02 -0.37325935015E+03  0.42120501644E+03  0.00000000000E+00 0.  1.
         -4    1    6    6    0  503 -0.24175283654E+03 -0.17529068255E+03 -0.39928662796E+03  0.49859910613E+03  0.00000000000E+00 0. -1.
<mgrwt>
<rscale>  0 0.52096240E+03</rscale>
<asrwt>0</asrwt>
<pdfrwt beam="1">  1        1 0.25550037E+00 0.52096240E+03</pdfrwt>
<pdfrwt beam="2">  1       -1 0.25950107E-01 0.52096240E+03</pdfrwt>
<totfact> 0.70364139E+01</totfact>
</mgrwt>
</event>
<event>
12    1  0.9321077E-008  0.1528023E+04  0.7818608E-02  0.8866029E-01
         -1   -1    0    0    0  501 -0.00000000000E+00  0.00000000000E+00  0.16446144987E+04  0.16446144987E+04  0.00000000000E+00 0.  1.
          1   -1    0    0  501    0  0.00000000000E+00 -0.00000000000E+00 -0.15374317814E+04  0.15374317814E+04  0.00000000000E+00 0. -1.
         23    2    1    2    0    0  0.62008452716E+03  0.13420813578E+04 -0.35064062065E+03  0.15221606996E+04  0.91308042786E+02 0.  0.
    5000000    2    1    2    0    0 -0.62008452716E+03 -0.13420813578E+04  0.45782333797E+03  0.16598855805E+04  0.59994228021E+03 0.  0.
         23    2    4    4    0    0 -0.18437651093E+03 -0.27677614625E+02  0.50640545962E+02  0.21385172284E+03  0.91691582674E+02 0.  0.
         23    2    4    4    0    0 -0.43570801623E+03 -0.13144037432E+04  0.40718279200E+03  0.14460338576E+04  0.87848823164E+02 0.  0.
          2    1    3    3  502    0  0.75001988150E+02  0.16527858998E+03 -0.12705428139E+02  0.18194432785E+03  0.00000000000E+00 0. -1.
         -2    1    3    3    0  502  0.54508253901E+03  0.11768027679E+04 -0.33793519252E+03  0.13402163718E+04  0.00000000000E+00 0.  1.
         15    1    5    5    0    0 -0.99590611543E+02 -0.38252762370E+02  0.68162022085E+02  0.12661272732E+03  0.17770000000E+01 0.  1.
        -15    1    5    5    0    0 -0.84785899382E+02  0.10575147746E+02 -0.17521476123E+02  0.87238995515E+02  0.17770000000E+01 0. -1.
          3    1    6    6  503    0 -0.63840968572E+02 -0.14673205755E+03  0.72639690553E+02  0.17573414757E+03  0.00000000000E+00 0.  1.
         -3    1    6    6    0  503 -0.37186704766E+03 -0.11676716857E+04  0.33454310145E+03  0.12702997101E+04  0.00000000000E+00 0. -1.
<mgrwt>
<rscale>  0 0.15280235E+04</rscale>
<asrwt>0</asrwt>
<pdfrwt beam="1">  1        1 0.23652797E+00 0.15280235E+04</pdfrwt>
<pdfrwt beam="2">  1       -1 0.25301762E+00 0.15280235E+04</pdfrwt>
<totfact> 0.38699543E-01</totfact>
</mgrwt>
</event>
<event>
12    1  0.9321077E-008  0.5140376E+03  0.7818608E-02  0.1010178E+00
          2   -1    0    0  501    0  0.00000000000E+00  0.00000000000E+00  0.11739345072E+04  0.11739345072E+04  0.00000000000E+00 0. -1.
         -2   -1    0    0    0  501 -0.00000000000E+00 -0.00000000000E+00 -0.35584452741E+03  0.35584452741E+03  0.00000000000E+00 0.  1.
         23    2    1    2    0    0  0.49707431056E+03  0.19423562310E+02  0.24116167557E+03  0.56013223193E+03  0.90161069754E+02 0.  0.
    5000000    2    1    2    0    0 -0.49707431056E+03 -0.19423562310E+02  0.57692830422E+03  0.96964680267E+03  0.59992375242E+03 0.  0.
         23    2    4    4    0    0 -0.15223199677E+03 -0.60879945702E+02 -0.92790260546E+02  0.20954940944E+03  0.91760415830E+02 0.  0.
         23    2    4    4    0    0 -0.34484231379E+03  0.41456383392E+02  0.66971856477E+03  0.76009739323E+03  0.92683537367E+02 0.  0.
          3    1    3    3  502    0  0.14946583341E+03  0.39676135135E+02  0.47871392532E+02  0.16188236865E+03  0.00000000000E+00 0. -1.
         -3    1    3    3    0  502  0.34760847715E+03 -0.20252572824E+02  0.19329028304E+03  0.39824986329E+03  0.00000000000E+00 0.  1.
         15    1    5    5    0    0 -0.39430523157E+02  0.75116660960E+01 -0.62319921293E+02  0.74149319639E+02  0.17770000000E+01 0. -1.
        -15    1    5    5    0    0 -0.11280147361E+03 -0.68391611798E+02 -0.30470339253E+02  0.13540008980E+03  0.17770000000E+01 0.  1.
          3    1    6    6  503    0 -0.36219914134E+02  0.25112761128E+02  0.14044435278E+03  0.14719765344E+03  0.00000000000E+00 0. -1.
         -3    1    6    6    0  503 -0.30862239965E+03  0.16343622264E+02  0.52927421199E+03  0.61289973979E+03  0.00000000000E+00 0.  1.
<mgrwt>
<rscale>  0 0.51403763E+03</rscale>
<asrwt>0</asrwt>
<pdfrwt beam="1">  1        2 0.18060531E+00 0.51403763E+03</pdfrwt>
<pdfrwt beam="2">  1       -2 0.54745313E-01 0.51403763E+03</pdfrwt>
<totfact> 0.64272860E+01</totfact>
</mgrwt>
</event>
<event>
12    1  0.9321077E-008  0.9359449E+03  0.7818608E-02  0.9381731E-01
         -2   -1    0    0    0  501 -0.00000000000E+00  0.00000000000E+00  0.82257028208E+03  0.82257028208E+03  0.00000000000E+00 0.  1.
          2   -1    0    0  501    0  0.00000000000E+00 -0.00000000000E+00 -0.13479406501E+04  0.13479406501E+04  0.00000000000E+00 0. -1.
         23    2    1    2    0    0 -0.14029812954E+03 -0.90249179707E+03 -0.56546465501E+03  0.10781064382E+04  0.91587155421E+02 0.  0.
    5000000    2    1    2    0    0  0.14029812954E+03  0.90249179707E+03  0.40094287016E+02  0.10924044940E+04  0.59796740521E+03 0.  0.
         23    2    4    4    0    0  0.17010389155E+03  0.31094690764E+03 -0.23287616991E+03  0.43392450708E+03  0.91846905451E+02 0.  0.
         23    2    4    4    0    0 -0.29805762017E+02  0.59154488943E+03  0.27297045693E+03  0.65847998690E+03  0.90935598809E+02 0.  0.
          1    1    3    3  502    0 -0.31791424421E+02 -0.88959181099E+02 -0.34394093245E+02  0.10053548736E+03  0.00000000000E+00 0. -1.
         -1    1    3    3    0  502 -0.10850670511E+03 -0.81353261597E+03 -0.53107056176E+03  0.97757095081E+03  0.00000000000E+00 0.  1.
         15    1    5    5    0    0  0.15042306890E+03  0.19347829597E+03 -0.17723701733E+03  0.30245176262E+03  0.17770000000E+01 0.  1.
        -15    1    5    5    0    0  0.19680822652E+02  0.11746861167E+03 -0.55639152582E+02  0.13147274446E+03  0.17770000000E+01 0. -1.
          4    1    6    6  503    0 -0.44926474990E+01  0.23477321837E+03  0.15705256836E+03  0.28249629586E+03  0.00000000000E+00 0.  1.
         -4    1    6    6    0  503 -0.25313114518E+02  0.35677167106E+03  0.11591788857E+03  0.37598369104E+03  0.00000000000E+00 0. -1.
<mgrwt>
<rscale>  0 0.93594487E+03</rscale>
<asrwt>0</asrwt>
<pdfrwt beam="1">  1        2 0.20737549E+00 0.93594487E+03</pdfrwt>
<pdfrwt beam="2">  1       -2 0.12654927E+00 0.93594487E+03</pdfrwt>
<totfact> 0.72038326E+00</totfact>
</mgrwt>
</event>
<event>
12    1  0.9321077E-008  0.3984184E+03  0.7818608E-02  0.1044329E+00
          1   -1    0    0  501    0  0.00000000000E+00  0.00000000000E+00  0.66936291406E+03  0.66936291406E+03  0.00000000000E+00 0. -1.
         -1   -1    0    0    0  501 -0.00000000000E+00 -0.00000000000E+00 -0.39711188788E+03  0.39711188788E+03  0.00000000000E+00 0.  1.
         23    2    1    2    0    0 -0.14729549816E+03  0.29772859748E+03  0.10648512315E+03  0.36082748543E+03  0.92299031707E+02 0.  0.
    5000000    2    1    2    0    0  0.14729549816E+03 -0.29772859748E+03  0.16576590302E+03  0.70564731652E+03  0.60010125743E+03 0.  0.
         23    2    4    4    0    0  0.20271246298E+03 -0.26480052042E+03 -0.14597729156E+03  0.37502035553E+03  0.90106820776E+02 0.  0.
         23    2    4    4    0    0 -0.55416964818E+02 -0.32928077054E+02  0.31174319459E+03  0.33062696098E+03  0.89303245797E+02 0.  0.
          3    1    3    3  502    0 -0.79722485024E+02  0.67019727223E+02  0.37933543092E+02  0.11084345784E+03  0.00000000000E+00 0. -1.
         -3    1    3    3    0  502 -0.67573013133E+02  0.23070887025E+03  0.68551580059E+02  0.24998402758E+03  0.00000000000E+00 0.  1.
         15    1    5    5    0    0  0.15888746985E+03 -0.14144874036E+03 -0.71662324553E+02  0.22448078028E+03  0.17770000000E+01 0. -1.
        -15    1    5    5    0    0  0.43824993123E+02 -0.12335178006E+03 -0.74314967010E+02  0.15053957525E+03  0.17770000000E+01 0.  1.
          1    1    6    6  503    0 -0.24773189973E+02  0.29840295003E+02  0.13863943807E+03  0.14396196698E+03  0.00000000000E+00 0. -1.
         -1    1    6    6    0  503 -0.30643774845E+02 -0.62768372057E+02  0.17310375651E+03  0.18666499401E+03  0.00000000000E+00 0.  1.
<mgrwt>
<rscale>  0 0.39841840E+03</rscale>
<asrwt>0</asrwt>
<pdfrwt beam="1">  1        1 0.10297891E+00 0.39841840E+03</pdfrwt>
<pdfrwt beam="2">  1       -1 0.61094137E-01 0.39841840E+03</pdfrwt>
<totfact> 0.83751403E+01</totfact>
</mgrwt>
</event>
<event>
12    1  0.9321077E-008  0.5200828E+03  0.7818608E-02  0.1008666E+00
          1   -1    0    0  501    0  0.00000000000E+00  0.00000000000E+00  0.14197132344E+04  0.14197132344E+04  0.00000000000E+00 0. -1.
         -1   -1    0    0    0  501 -0.00000000000E+00 -0.00000000000E+00 -0.22504842348E+03  0.22504842348E+03  0.00000000000E+00 0.  1.
         23    2    1    2    0    0  0.15851904425E+03 -0.31087669018E+03  0.14984723349E+03  0.39040335631E+03  0.90487476185E+02 0.  0.
    5000000    2    1    2    0    0 -0.15851904425E+03  0.31087669018E+03  0.10448175774E+04  0.12543583016E+04  0.59999864562E+03 0.  0.
         23    2    4    4    0    0 -0.37120672373E+03  0.18638990083E+03  0.72136590709E+03  0.83753555012E+03  0.92527827851E+02 0.  0.
         23    2    4    4    0    0  0.21268767949E+03  0.12448678935E+03  0.32345167032E+03  0.41682275144E+03  0.91581730483E+02 0.  0.
          3    1    3    3  502    0  0.94338915364E+02 -0.26252567868E+03  0.12925720522E+03  0.30745241586E+03  0.00000000000E+00 0. -1.
         -3    1    3    3    0  502  0.64180128885E+02 -0.48351011497E+02  0.20590028269E+02  0.82950940444E+02  0.00000000000E+00 0.  1.
         15    1    5    5    0    0 -0.30136339572E+03  0.12397931447E+03  0.61342273015E+03  0.69460878939E+03  0.17770000000E+01 0.  1.
        -15    1    5    5    0    0 -0.69843328018E+02  0.62410586353E+02  0.10794317694E+03  0.14292676074E+03  0.17770000000E+01 0. -1.
          1    1    6    6  503    0  0.52555661497E+01  0.34981691535E+02  0.61121722328E+02  0.70620143433E+02  0.00000000000E+00 0. -1.
         -1    1    6    6    0  503  0.20743211334E+03  0.89505097817E+02  0.26232994800E+03  0.34620260801E+03  0.00000000000E+00 0.  1.
<mgrwt>
<rscale>  0 0.52008279E+03</rscale>
<asrwt>0</asrwt>
<pdfrwt beam="1">  1        1 0.21841742E+00 0.52008279E+03</pdfrwt>
<pdfrwt beam="2">  1       -1 0.34622835E-01 0.52008279E+03</pdfrwt>
<totfact> 0.62128923E+01</totfact>
</mgrwt>
</event>
<event>
12    1  0.9321077E-008  0.4460084E+03  0.7818608E-02  0.1028919E+00
          2   -1    0    0  501    0  0.00000000000E+00  0.00000000000E+00  0.25631945580E+04  0.25631945580E+04  0.00000000000E+00 0.  1.
         -2   -1    0    0    0  501 -0.00000000000E+00 -0.00000000000E+00 -0.10480268035E+03  0.10480268035E+03  0.00000000000E+00 0. -1.
         23    2    1    2    0    0  0.18293406513E+03  0.24703750351E+03  0.11794066152E+04  0.12221765173E+04  0.90681172498E+02 0.  0.
    5000000    2    1    2    0    0 -0.18293406513E+03 -0.24703750351E+03  0.12789852625E+04  0.14458207211E+04  0.60008487367E+03 0.  0.
         23    2    4    4    0    0  0.95655748975E+02  0.69836783987E+02  0.75973569668E+02  0.16768858936E+03  0.91215574350E+02 0.  0.
         23    2    4    4    0    0 -0.27858981411E+03 -0.31687428750E+03  0.12030116928E+04  0.12781321317E+04  0.91449519169E+02 0.  0.
          4    1    3    3  502    0  0.17224420510E+03  0.17214052893E+03  0.94448719887E+03  0.97537505438E+03  0.00000000000E+00 0. -1.
         -4    1    3    3    0  502  0.10689860033E+02  0.74896974587E+02  0.23491941634E+03  0.24680146289E+03  0.00000000000E+00 0.  1.
         15    1    5    5    0    0  0.32478215822E+02  0.75081251392E+02  0.62222780213E+02  0.10279523783E+03  0.17770000000E+01 0. -1.
        -15    1    5    5    0    0  0.63177533152E+02 -0.52444674042E+01  0.13750789455E+02  0.64893351533E+02  0.17770000000E+01 0.  1.
          4    1    6    6  503    0 -0.27821318112E+03 -0.29417170981E+03  0.10879354880E+04  0.11608372819E+04  0.00000000000E+00 0. -1.
         -4    1    6    6    0  503 -0.37663299223E+00 -0.22702577689E+02  0.11507620484E+03  0.11729484987E+03  0.00000000000E+00 0.  1.
<mgrwt>
<rscale>  0 0.44600843E+03</rscale>
<asrwt>0</asrwt>
<pdfrwt beam="1">  1        2 0.39433758E+00 0.44600843E+03</pdfrwt>
<pdfrwt beam="2">  1       -2 0.16123491E-01 0.44600843E+03</pdfrwt>
<totfact> 0.10796084E+02</totfact>
</mgrwt>
</event>
<event>
12    1  0.9321077E-008  0.1003767E+04  0.7818608E-02  0.9304422E-01
         -2   -1    0    0    0  501 -0.00000000000E+00  0.00000000000E+00  0.76004204520E+03  0.76004204520E+03  0.00000000000E+00 0. -1.
          2   -1    0    0  501    0  0.00000000000E+00 -0.00000000000E+00 -0.14023306641E+04  0.14023306641E+04  0.00000000000E+00 0.  1.
         23    2    1    2    0    0 -0.78087181066E+03 -0.49996772937E+03 -0.47288331720E+03  0.10450730770E+04  0.93971216774E+02 0.  0.
    5000000    2    1    2    0    0  0.78087181066E+03  0.49996772937E+03 -0.16940530166E+03  0.11172996322E+04  0.59994316133E+03 0.  0.
         23    2    4    4    0    0  0.40921641514E+03  0.56661876491E+03 -0.31673098188E+02  0.70534489549E+03  0.89405465577E+02 0.  0.
         23    2    4    4    0    0  0.37165539552E+03 -0.66651035536E+02 -0.13773220347E+03  0.41195473673E+03  0.90368421944E+02 0.  0.
          1    1    3    3  502    0 -0.69852105558E+03 -0.42031514360E+03 -0.39030004370E+03  0.90384213729E+03  0.00000000000E+00 0. -1.
         -1    1    3    3    0  502 -0.82350755079E+02 -0.79652585772E+02 -0.82583273496E+02  0.14123093975E+03  0.00000000000E+00 0.  1.
         15    1    5    5    0    0  0.32031078730E+03  0.41355999345E+03 -0.58296811986E+02  0.52633881166E+03  0.17770000000E+01 0. -1.
        -15    1    5    5    0    0  0.88905627842E+02  0.15305877145E+03  0.26623713798E+02  0.17900608382E+03  0.17770000000E+01 0.  1.
          2    1    6    6  503    0  0.26402307701E+03 -0.44898897935E+02 -0.52407813916E+02  0.27289315709E+03  0.00000000000E+00 0. -1.
         -2    1    6    6    0  503  0.10763231851E+03 -0.21752137600E+02 -0.85324389554E+02  0.13906157964E+03  0.00000000000E+00 0.  1.
<mgrwt>
<rscale>  0 0.10037674E+04</rscale>
<asrwt>0</asrwt>
<pdfrwt beam="1">  1        2 0.21574318E+00 0.10037674E+04</pdfrwt>
<pdfrwt beam="2">  1       -2 0.11692955E+00 0.10037674E+04</pdfrwt>
<totfact> 0.81118124E+00</totfact>
</mgrwt>
</event>
<event>
12    1  0.9321077E-008  0.2476200E+04  0.7818608E-02  0.8411514E-01
          2   -1    0    0  501    0  0.00000000000E+00  0.00000000000E+00  0.26121268426E+04  0.26121268426E+04  0.00000000000E+00 0. -1.
         -2   -1    0    0    0  501 -0.00000000000E+00 -0.00000000000E+00 -0.23858798114E+04  0.23858798114E+04  0.00000000000E+00 0.  1.
         23    2    1    2    0    0 -0.23269156749E+04  0.79668024478E+03  0.12235206667E+03  0.24642491672E+04  0.91202846930E+02 0.  0.
    5000000    2    1    2    0    0  0.23269156749E+04 -0.79668024478E+03  0.10389496456E+03  0.25337574869E+04  0.59991405091E+03 0.  0.
         23    2    4    4    0    0  0.13610932556E+04 -0.27384439728E+03  0.27653667503E+03  0.14183303858E+04  0.87309485752E+02 0.  0.
         23    2    4    4    0    0  0.96582241931E+03 -0.52283584750E+03 -0.17264171047E+03  0.11154271011E+04  0.90565935720E+02 0.  0.
          1    1    3    3  502    0 -0.12911403507E+04  0.48968088983E+03  0.72923513970E+02  0.13828046203E+04  0.00000000000E+00 0.  1.
         -1    1    3    3    0  502 -0.10357753241E+04  0.30699935495E+03  0.49428552696E+02  0.10814445468E+04  0.00000000000E+00 0. -1.
         15    1    5    5    0    0  0.57828093257E+03 -0.80870738832E+02  0.90307103996E+02  0.59085314938E+03  0.17770000000E+01 0. -1.
        -15    1    5    5    0    0  0.78281232298E+03 -0.19297365844E+03  0.18622957104E+03  0.82747723638E+03  0.17770000000E+01 0.  1.
          3    1    6    6  503    0  0.43371189748E+03 -0.19070690868E+03 -0.97124484561E+02  0.48364067295E+03  0.00000000000E+00 0. -1.
         -3    1    6    6    0  503  0.53211052183E+03 -0.33212893882E+03 -0.75517225908E+02  0.63178642820E+03  0.00000000000E+00 0.  1.
<mgrwt>
<rscale>  0 0.24761998E+04</rscale>
<asrwt>0</asrwt>
<pdfrwt beam="1">  1        2 0.40186567E+00 0.24761998E+04</pdfrwt>
<pdfrwt beam="2">  1       -2 0.36705843E+00 0.24761998E+04</pdfrwt>
<totfact> 0.30599242E-02</totfact>
</mgrwt>
</event>
<event>
12    1  0.9321077E-008  0.5195864E+03  0.7818608E-02  0.1008789E+00
         -2   -1    0    0    0  501 -0.00000000000E+00  0.00000000000E+00  0.16362042464E+03  0.16362042464E+03  0.00000000000E+00 0.  1.
          2   -1    0    0  501    0  0.00000000000E+00 -0.00000000000E+00 -0.21435225240E+04  0.21435225240E+04  0.00000000000E+00 0. -1.
         23    2    1    2    0    0 -0.32550124771E+03 -0.27857421794E+03 -0.88639178532E+03  0.98829442719E+03  0.86491737110E+02 0.  0.
    5000000    2    1    2    0    0  0.32550124771E+03  0.27857421794E+03 -0.10935103140E+04  0.13188485214E+04  0.60003496431E+03 0.  0.
         23    2    4    4    0    0  0.41207001105E+03  0.20005407420E+03 -0.42066311464E+03  0.62899824779E+03  0.94117018092E+02 0.  0.
         23    2    4    4    0    0 -0.86568763335E+02  0.78520143741E+02 -0.67284719936E+03  0.68985027360E+03  0.97521702948E+02 0.  0.
          3    1    3    3  502    0 -0.15932023112E+03 -0.12417745399E+03 -0.51384547584E+03  0.55212330975E+03  0.00000000000E+00 0. -1.
         -3    1    3    3    0  502 -0.16618101659E+03 -0.15439676395E+03 -0.37254630947E+03  0.43617111745E+03  0.00000000000E+00 0.  1.
         15    1    5    5    0    0  0.14368153358E+03  0.66341440904E+02 -0.87806613442E+02  0.18099372632E+03  0.17770000000E+01 0. -1.
        -15    1    5    5    0    0  0.26838847746E+03  0.13371263330E+03 -0.33285650120E+03  0.44800452147E+03  0.17770000000E+01 0.  1.
          4    1    6    6  503    0 -0.34152337161E+02 -0.20745272668E+02 -0.17858807855E+03  0.18300396245E+03  0.00000000000E+00 0. -1.
         -4    1    6    6    0  503 -0.52416426173E+02  0.99265416408E+02 -0.49425912081E+03  0.50684631116E+03  0.00000000000E+00 0.  1.
<mgrwt>
<rscale>  0 0.51958640E+03</rscale>
<asrwt>0</asrwt>
<pdfrwt beam="1">  1        2 0.32977268E+00 0.51958640E+03</pdfrwt>
<pdfrwt beam="2">  1       -2 0.25172374E-01 0.51958640E+03</pdfrwt>
<totfact> 0.83593577E+01</totfact>
</mgrwt>
</event>
<event>
12    1  0.9321077E-008  0.8002105E+03  0.7818608E-02  0.9559712E-01
         -2   -1    0    0    0  501 -0.00000000000E+00  0.00000000000E+00  0.89694605469E+03  0.89694605469E+03  0.00000000000E+00 0.  1.
          2   -1    0    0  501    0  0.00000000000E+00 -0.00000000000E+00 -0.10494252040E+04  0.10494252040E+04  0.00000000000E+00 0. -1.
         23    2    1    2    0    0  0.32663666484E+03 -0.67242291312E+03 -0.52214803867E+03  0.91905370714E+03  0.11479136469E+03 0.  0.
    5000000    2    1    2    0    0 -0.32663666484E+03  0.67242291312E+03  0.36966888932E+03  0.10273175516E+04  0.59990180795E+03 0.  0.
         23    2    4    4    0    0  0.16748476827E+02  0.39321455038E+03 -0.54122070063E+02  0.40763257147E+03  0.91306739877E+02 0.  0.
         23    2    4    4    0    0 -0.34338514166E+03  0.27920836274E+03  0.42379095938E+03  0.61968498013E+03  0.92412293562E+02 0.  0.
          3    1    3    3  502    0  0.16084152661E+03 -0.22659456077E+03 -0.23109012221E+03  0.36141075833E+03  0.00000000000E+00 0. -1.
         -3    1    3    3    0  502  0.16579513822E+03 -0.44582835235E+03 -0.29105791646E+03  0.55764294881E+03  0.00000000000E+00 0.  1.
         15    1    5    5    0    0 -0.22901707926E+02  0.24619747757E+03 -0.39444429198E+01  0.24729820571E+03  0.17770000000E+01 0. -1.
        -15    1    5    5    0    0  0.39650184754E+02  0.14701707281E+03 -0.50177627143E+02  0.16033436576E+03  0.17770000000E+01 0.  1.
          3    1    6    6  503    0 -0.28969569675E+03  0.20147849623E+03  0.29485278279E+03  0.45984273907E+03  0.00000000000E+00 0. -1.
         -3    1    6    6    0  503 -0.53689444918E+02  0.77729866506E+02  0.12893817659E+03  0.15984224106E+03  0.00000000000E+00 0.  1.
<mgrwt>
<rscale>  0 0.80021052E+03</rscale>
<asrwt>0</asrwt>
<pdfrwt beam="1">  1        2 0.16145003E+00 0.80021052E+03</pdfrwt>
<pdfrwt beam="2">  1       -2 0.13799170E+00 0.80021052E+03</pdfrwt>
<totfact> 0.88429053E+00</totfact>
</mgrwt>
</event>
<event>
12    1  0.9321077E-008  0.9391641E+03  0.7818608E-02  0.9377907E-01
          1   -1    0    0  501    0  0.00000000000E+00  0.00000000000E+00  0.27000379838E+04  0.27000379838E+04  0.00000000000E+00 0. -1.
         -1   -1    0    0    0  501 -0.00000000000E+00 -0.00000000000E+00 -0.36595820106E+03  0.36595820106E+03  0.00000000000E+00 0.  1.
         23    2    1    2    0    0 -0.86104234793E+03 -0.19702467331E+02  0.14703240407E+04  0.17064975731E+04  0.92190400718E+02 0.  0.
    5000000    2    1    2    0    0  0.86104234793E+03  0.19702467331E+02  0.86375574206E+03  0.13594986118E+04  0.60031690090E+03 0.  0.
         23    2    4    4    0    0  0.89824286647E+03  0.74942566111E+02  0.64220013939E+03  0.11113600594E+04  0.10121031220E+03 0.  0.
         23    2    4    4    0    0 -0.37200518538E+02 -0.55240098780E+02  0.22155560268E+03  0.24813855241E+03  0.89724628854E+02 0.  0.
          2    1    3    3  502    0 -0.69676134929E+03 -0.45863220038E+02  0.11453048779E+04  0.13413810332E+04  0.00000000000E+00 0. -1.
         -2    1    3    3    0  502 -0.16428099864E+03  0.26160752707E+02  0.32501916283E+03  0.36511653989E+03  0.00000000000E+00 0.  1.
         15    1    5    5    0    0  0.17085313845E+03 -0.12025893189E+02  0.86625606295E+02  0.19194418569E+03  0.17770000000E+01 0. -1.
        -15    1    5    5    0    0  0.72738972802E+03  0.86968459300E+02  0.55557453309E+03  0.91941587374E+03  0.17770000000E+01 0.  1.
          2    1    6    6  503    0  0.13836827055E+02 -0.57126418253E+02  0.14095497902E+03  0.15271932279E+03  0.00000000000E+00 0. -1.
         -2    1    6    6    0  503 -0.51037345593E+02  0.18863194732E+01  0.80600623660E+02  0.95419229617E+02  0.00000000000E+00 0.  1.
<mgrwt>
<rscale>  0 0.93916407E+03</rscale>
<asrwt>0</asrwt>
<pdfrwt beam="1">  1        1 0.41539045E+00 0.93916407E+03</pdfrwt>
<pdfrwt beam="2">  1       -1 0.56301263E-01 0.93916407E+03</pdfrwt>
<totfact> 0.32309295E+00</totfact>
</mgrwt>
</event>
<event>
12    1  0.9321077E-008  0.5449619E+03  0.7818608E-02  0.1002667E+00
         -1   -1    0    0    0  501 -0.00000000000E+00  0.00000000000E+00  0.68102563394E+03  0.68102563394E+03  0.00000000000E+00 0.  1.
          1   -1    0    0  501    0  0.00000000000E+00 -0.00000000000E+00 -0.10331734590E+04  0.10331734590E+04  0.00000000000E+00 0. -1.
         23    2    1    2    0    0 -0.33416960658E+02 -0.49597732776E+03 -0.69787068096E+03  0.86173005690E+03  0.91896684975E+02 0.  0.
    5000000    2    1    2    0    0  0.33416960658E+02  0.49597732776E+03  0.34572285592E+03  0.85246903602E+03  0.60005746505E+03 0.  0.
         23    2    4    4    0    0  0.15639728012E+03  0.18109368083E+03 -0.10935924614E+03  0.27846159129E+03  0.91249014485E+02 0.  0.
         23    2    4    4    0    0 -0.12298031946E+03  0.31488364693E+03  0.45508210207E+03  0.57400744473E+03  0.90049746821E+02 0.  0.
          1    1    3    3  502    0 -0.13825075319E+02 -0.67948233954E+01 -0.28932456893E+02  0.32777879651E+02  0.00000000000E+00 0. -1.
         -1    1    3    3    0  502 -0.19591885338E+02 -0.48918250436E+03 -0.66893822407E+03  0.82895217725E+03  0.00000000000E+00 0.  1.
         15    1    5    5    0    0  0.68371507119E+02  0.12404160146E+03 -0.24994992351E+02  0.14383632799E+03  0.17770000000E+01 0. -1.
        -15    1    5    5    0    0  0.88025772999E+02  0.57052079369E+02 -0.84364253792E+02  0.13462526330E+03  0.17770000000E+01 0.  1.
          4    1    6    6  503    0 -0.11565185977E+03  0.30406754874E+03  0.39115039653E+03  0.50875441970E+03  0.00000000000E+00 0. -1.
         -4    1    6    6    0  503 -0.73284596909E+01  0.10816098190E+02  0.63931705540E+02  0.65253025024E+02  0.00000000000E+00 0.  1.
<mgrwt>
<rscale>  0 0.54496186E+03</rscale>
<asrwt>0</asrwt>
<pdfrwt beam="1">  1        1 0.15894976E+00 0.54496186E+03</pdfrwt>
<pdfrwt beam="2">  1       -1 0.10477318E+00 0.54496186E+03</pdfrwt>
<totfact> 0.12999023E+01</totfact>
</mgrwt>
</event>
<event>
12    1  0.9321077E-008  0.9185498E+03  0.7818608E-02  0.9402686E-01
          1   -1    0    0  501    0  0.00000000000E+00  0.00000000000E+00  0.17235495544E+04  0.17235495544E+04  0.00000000000E+00 0. -1.
         -1   -1    0    0    0  501 -0.00000000000E+00 -0.00000000000E+00 -0.50573071089E+03  0.50573071089E+03  0.00000000000E+00 0.  1.
         23    2    1    2    0    0 -0.80611553486E+03 -0.21623531698E+03  0.54643728331E+03  0.10015788571E+04  0.89367413008E+02 0.  0.
    5000000    2    1    2    0    0  0.80611553486E+03  0.21623531698E+03  0.67138156019E+03  0.12277014082E+04  0.59993131313E+03 0.  0.
         23    2    4    4    0    0  0.87209087578E+03  0.14799483031E+03  0.65136173147E+03  0.11024310833E+04  0.92936660259E+02 0.  0.
         23    2    4    4    0    0 -0.65975340916E+02  0.68240486665E+02  0.20019828725E+02  0.12527032489E+03  0.79261283900E+02 0.  0.
          1    1    3    3  502    0 -0.48245536807E+03 -0.85574189092E+02  0.30462499578E+03  0.57695971443E+03  0.00000000000E+00 0. -1.
         -1    1    3    3    0  502 -0.32366016679E+03 -0.13066112788E+03  0.24181228753E+03  0.42461914265E+03  0.00000000000E+00 0.  1.
         15    1    5    5    0    0  0.26432588601E+03  0.20908629667E+01  0.18814620140E+03  0.32446062404E+03  0.17770000000E+01 0.  1.
        -15    1    5    5    0    0  0.60776498976E+03  0.14590396735E+03  0.46321553007E+03  0.77797045927E+03  0.17770000000E+01 0. -1.
          2    1    6    6  503    0  0.92718529935E+01  0.91145955191E+01  0.26329854800E+02  0.29365019380E+02  0.00000000000E+00 0. -1.
         -2    1    6    6    0  503 -0.75247193909E+02  0.59125891146E+02 -0.63100260748E+01  0.95905305505E+02  0.00000000000E+00 0.  1.
<mgrwt>
<rscale>  0 0.91854983E+03</rscale>
<asrwt>0</asrwt>
<pdfrwt beam="1">  1        1 0.26516147E+00 0.91854983E+03</pdfrwt>
<pdfrwt beam="2">  1       -1 0.77804726E-01 0.91854983E+03</pdfrwt>
<totfact> 0.77388567E+00</totfact>
</mgrwt>
</event>
<event>
12    1  0.9321077E-008  0.7228728E+03  0.7818608E-02  0.9678897E-01
          1   -1    0    0  501    0  0.00000000000E+00  0.00000000000E+00  0.14736195626E+04  0.14736195626E+04  0.00000000000E+00 0.  1.
         -1   -1    0    0    0  501 -0.00000000000E+00 -0.00000000000E+00 -0.46923883132E+03  0.46923883132E+03  0.00000000000E+00 0. -1.
         23    2    1    2    0    0 -0.66558590205E+03  0.24301471400E+03  0.58894455488E+03  0.92577407549E+03  0.90228631266E+02 0.  0.
    5000000    2    1    2    0    0  0.66558590205E+03 -0.24301471400E+03  0.41543617643E+03  0.10170843185E+04  0.59984377129E+03 0.  0.
         23    2    4    4    0    0  0.33859221997E+03 -0.15005172553E+03 -0.98763352855E+02  0.39402481612E+03  0.91329864192E+02 0.  0.
         23    2    4    4    0    0  0.32699368207E+03 -0.92962988475E+02  0.51419952929E+03  0.62305950234E+03  0.90746912869E+02 0.  0.
          2    1    3    3  502    0 -0.34310146747E+03  0.17202091297E+03  0.32920853445E+03  0.50565607940E+03  0.00000000000E+00 0. -1.
         -2    1    3    3    0  502 -0.32248443458E+03  0.70993801031E+02  0.25973602043E+03  0.42011799609E+03  0.00000000000E+00 0.  1.
         15    1    5    5    0    0  0.16808848414E+03 -0.12196462506E+03 -0.67740891420E+02  0.21845158357E+03  0.17770000000E+01 0.  1.
        -15    1    5    5    0    0  0.17050373583E+03 -0.28087100469E+02 -0.31022461435E+02  0.17557323255E+03  0.17770000000E+01 0. -1.
          4    1    6    6  503    0  0.14554828281E+03  0.38066258313E+01  0.23151343043E+03  0.27349088011E+03  0.00000000000E+00 0. -1.
         -4    1    6    6    0  503  0.18144539926E+03 -0.96769614306E+02  0.28268609886E+03  0.34956862224E+03  0.00000000000E+00 0.  1.
<mgrwt>
<rscale>  0 0.72287278E+03</rscale>
<asrwt>0</asrwt>
<pdfrwt beam="1">  1        1 0.22671070E+00 0.72287278E+03</pdfrwt>
<pdfrwt beam="2">  1       -1 0.72190590E-01 0.72287278E+03</pdfrwt>
<totfact> 0.13745140E+01</totfact>
</mgrwt>
</event>
<event>
12    1  0.9321077E-008  0.4949414E+03  0.7818608E-02  0.1015108E+00
         -1   -1    0    0    0  501 -0.00000000000E+00  0.00000000000E+00  0.34470521373E+03  0.34470521373E+03  0.00000000000E+00 0.  1.
          1   -1    0    0  501    0  0.00000000000E+00 -0.00000000000E+00 -0.94474225669E+03  0.94474225669E+03  0.00000000000E+00 0. -1.
         23    2    1    2    0    0  0.20477316594E+03  0.23562396141E+03 -0.51336458214E+03  0.60762485983E+03  0.90631536552E+02 0.  0.
    5000000    2    1    2    0    0 -0.20477316594E+03 -0.23562396141E+03 -0.86672460815E+02  0.68182261059E+03  0.59993270970E+03 0.  0.
         23    2    4    4    0    0  0.15253028671E+03 -0.24955514375E+03 -0.20930372013E+02  0.30722990207E+03  0.91699913427E+02 0.  0.
         23    2    4    4    0    0 -0.35730345265E+03  0.13931182337E+02 -0.65742088802E+02  0.37459270851E+03  0.90209976807E+02 0.  0.
          1    1    3    3  502    0  0.82156742865E+02  0.13838994104E+03 -0.32555157679E+03  0.36316020615E+03  0.00000000000E+00 0. -1.
         -1    1    3    3    0  502  0.12261642307E+03  0.97234020373E+02 -0.18781300535E+03  0.24446465369E+03  0.00000000000E+00 0.  1.
         15    1    5    5    0    0  0.15208879167E+01 -0.71498551740E+02  0.79373745727E+01  0.71975799024E+02  0.17770000000E+01 0.  1.
        -15    1    5    5    0    0  0.15100939879E+03 -0.17805659201E+03 -0.28867746586E+02  0.23525410305E+03  0.17770000000E+01 0. -1.
          4    1    6    6  503    0 -0.19982321172E+03  0.49780967911E+02 -0.20988024398E+02  0.20699748278E+03  0.00000000000E+00 0. -1.
         -4    1    6    6    0  503 -0.15748024092E+03 -0.35849785574E+02 -0.44754064404E+02  0.16759522573E+03  0.00000000000E+00 0.  1.
<mgrwt>
<rscale>  0 0.49494141E+03</rscale>
<asrwt>0</asrwt>
<pdfrwt beam="1">  1        1 0.14534496E+00 0.49494141E+03</pdfrwt>
<pdfrwt beam="2">  1       -1 0.53031573E-01 0.49494141E+03</pdfrwt>
<totfact> 0.63129047E+01</totfact>
</mgrwt>
</event>
<event>
12    1  0.9321077E-008  0.6354781E+03  0.7818608E-02  0.9834417E-01
          2   -1    0    0  501    0  0.00000000000E+00  0.00000000000E+00  0.28077247832E+04  0.28077247832E+04  0.00000000000E+00 0. -1.
         -2   -1    0    0    0  501 -0.00000000000E+00 -0.00000000000E+00 -0.21720954320E+03  0.21720954320E+03  0.00000000000E+00 0.  1.
         23    2    1    2    0    0  0.15560687076E+03 -0.47872703710E+03  0.19415498551E+04  0.20077915296E+04  0.90652700239E+02 0.  0.
    5000000    2    1    2    0    0 -0.15560687076E+03  0.47872703710E+03  0.64896538485E+03  0.10171427968E+04  0.60002526952E+03 0.  0.
         23    2    4    4    0    0 -0.34650437566E+03  0.41918839750E+03  0.54084669688E+03  0.77234609493E+03  0.90659505134E+02 0.  0.
         23    2    4    4    0    0  0.19089750491E+03  0.59538639603E+02  0.10811868797E+03  0.24479670187E+03  0.90824377624E+02 0.  0.
          1    1    3    3  502    0  0.45779594659E+02 -0.26334132663E+03  0.11163549743E+04  0.11479080338E+04  0.00000000000E+00 0. -1.
         -1    1    3    3    0  502  0.10982727610E+03 -0.21538571048E+03  0.82519488087E+03  0.85988349575E+03  0.00000000000E+00 0.  1.
         15    1    5    5    0    0 -0.54803490412E+02  0.67967013708E+02  0.44717806678E+02  0.98111046661E+02  0.17770000000E+01 0. -1.
        -15    1    5    5    0    0 -0.29170088525E+03  0.35122138379E+03  0.49612889021E+03  0.67423504827E+03  0.17770000000E+01 0.  1.
          3    1    6    6  503    0  0.15400217765E+03  0.82339884039E+02  0.74226664374E+02  0.18975279953E+03  0.00000000000E+00 0. -1.
         -3    1    6    6    0  503  0.36895327254E+02 -0.22801244436E+02  0.33892023594E+02  0.55043902336E+02  0.00000000000E+00 0.  1.
<mgrwt>
<rscale>  0 0.63547807E+03</rscale>
<asrwt>0</asrwt>
<pdfrwt beam="1">  1        2 0.43195763E+00 0.63547807E+03</pdfrwt>
<pdfrwt beam="2">  1       -2 0.33416855E-01 0.63547807E+03</pdfrwt>
<totfact> 0.20577210E+01</totfact>
</mgrwt>
</event>
<event>
12    1  0.9321077E-008  0.8480198E+03  0.7818608E-02  0.9492999E-01
          4   -1    0    0  501    0  0.00000000000E+00  0.00000000000E+00  0.64179311809E+03  0.64179311809E+03  0.00000000000E+00 0. -1.
         -4   -1    0    0    0  501 -0.00000000000E+00 -0.00000000000E+00 -0.14002255783E+04  0.14002255783E+04  0.00000000000E+00 0.  1.
         23    2    1    2    0    0 -0.69829168176E+03 -0.25605837753E+03 -0.78583601685E+03  0.10860703847E+04  0.93986539404E+02 0.  0.
    5000000    2    1    2    0    0  0.69829168176E+03  0.25605837753E+03  0.27403556643E+02  0.95594831170E+03  0.59992420705E+03 0.  0.
         23    2    4    4    0    0  0.51269108687E+03 -0.11153420985E+03  0.11199548598E+02  0.53333962603E+03  0.95045758883E+02 0.  0.
         23    2    4    4    0    0  0.18560059489E+03  0.36759258738E+03  0.16204008045E+02  0.42260868567E+03  0.93614316245E+02 0.  0.
          1    1    3    3  502    0 -0.38612646022E+03 -0.10946332950E+03 -0.47433044332E+03  0.62134147878E+03  0.00000000000E+00 0. -1.
         -1    1    3    3    0  502 -0.31216522154E+03 -0.14659504802E+03 -0.31150557353E+03  0.46472890591E+03  0.00000000000E+00 0.  1.
         15    1    5    5    0    0  0.30324786158E+03 -0.30958097360E+02  0.38578042182E+02  0.30726062620E+03  0.17770000000E+01 0.  1.
        -15    1    5    5    0    0  0.20944322529E+03 -0.80576112492E+02 -0.27378493585E+02  0.22607899983E+03  0.17770000000E+01 0. -1.
          3    1    6    6  503    0  0.27118511807E+02  0.14391716099E+03 -0.12487402002E+02  0.14698128493E+03  0.00000000000E+00 0. -1.
         -3    1    6    6    0  503  0.15848208308E+03  0.22367542639E+03  0.28691410048E+02  0.27562740074E+03  0.00000000000E+00 0.  1.
<mgrwt>
<rscale>  0 0.84801975E+03</rscale>
<asrwt>0</asrwt>
<pdfrwt beam="1">  1        4 0.98737403E-01 0.84801975E+03</pdfrwt>
<pdfrwt beam="2">  1       -4 0.21541932E+00 0.84801975E+03</pdfrwt>
<totfact> 0.17346464E-01</totfact>
</mgrwt>
</event>
<event>
12    1  0.9321077E-008  0.1604318E+04  0.7818608E-02  0.8817900E-01
         -2   -1    0    0    0  501 -0.00000000000E+00  0.00000000000E+00  0.11932173630E+04  0.11932173630E+04  0.00000000000E+00 0.  1.
          2   -1    0    0  501    0  0.00000000000E+00 -0.00000000000E+00 -0.21682207677E+04  0.21682207677E+04  0.00000000000E+00 0. -1.
         23    2    1    2    0    0  0.48919615311E+03 -0.14722667298E+04 -0.50137234417E+03  0.16319191213E+04  0.70025644772E+02 0.  0.
    5000000    2    1    2    0    0 -0.48919615311E+03  0.14722667298E+04 -0.47363106058E+03  0.17295190094E+04  0.60002285149E+03 0.  0.
         23    2    4    4    0    0 -0.43220998444E+03  0.44435590858E+03 -0.23106500735E+03  0.66769951836E+03  0.90409983183E+02 0.  0.
         23    2    4    4    0    0 -0.56986168670E+02  0.10279108212E+04 -0.24256605322E+03  0.10618194910E+04  0.93671027989E+02 0.  0.
          1    1    3    3  502    0  0.24895832172E+03 -0.85889346880E+03 -0.29035513096E+03  0.94020441330E+03  0.00000000000E+00 0. -1.
         -1    1    3    3    0  502  0.24023783139E+03 -0.61337326102E+03 -0.21101721321E+03  0.69171470798E+03  0.00000000000E+00 0.  1.
         15    1    5    5    0    0 -0.30793050966E+03  0.27503369639E+03 -0.18617650609E+03  0.45291233377E+03  0.17770000000E+01 0.  1.
        -15    1    5    5    0    0 -0.12427947478E+03  0.16932221219E+03 -0.44888501269E+02  0.21478718460E+03  0.17770000000E+01 0. -1.
          3    1    6    6  503    0 -0.31939116080E+02  0.11181785279E+03 -0.42403732696E+02  0.12377970708E+03  0.00000000000E+00 0. -1.
         -3    1    6    6    0  503 -0.25047052590E+02  0.91609296845E+03 -0.20016232053E+03  0.93803978394E+03  0.00000000000E+00 0.  1.
<mgrwt>
<rscale>  0 0.16043181E+04</rscale>
<asrwt>0</asrwt>
<pdfrwt beam="1">  1        2 0.33357242E+00 0.16043181E+04</pdfrwt>
<pdfrwt beam="2">  1       -2 0.18357190E+00 0.16043181E+04</pdfrwt>
<totfact> 0.85848070E-01</totfact>
</mgrwt>
</event>
<event>
12    1  0.9321077E-008  0.6923789E+03  0.7818608E-02  0.9730355E-01
         -1   -1    0    0    0  501 -0.00000000000E+00  0.00000000000E+00  0.20352592640E+03  0.20352592640E+03  0.00000000000E+00 0.  1.
          1   -1    0    0  501    0  0.00000000000E+00 -0.00000000000E+00 -0.27187464872E+04  0.27187464872E+04  0.00000000000E+00 0. -1.
         23    2    1    2    0    0  0.41473199410E+03  0.45597410597E+03 -0.94996421148E+03  0.11362933155E+04  0.93890806705E+02 0.  0.
    5000000    2    1    2    0    0 -0.41473199410E+03 -0.45597410597E+03 -0.15652563494E+04  0.17859790981E+04  0.59981571120E+03 0.  0.
         23    2    4    4    0    0 -0.13937321547E+03 -0.44725808218E+03 -0.53980635509E+03  0.72053105684E+03  0.91156007013E+02 0.  0.
         23    2    4    4    0    0 -0.27535877864E+03 -0.87160237905E+01 -0.10254499943E+04  0.10654480413E+04  0.87939819389E+02 0.  0.
          2    1    3    3  502    0  0.19115665112E+03  0.15150611323E+03 -0.41578975500E+03  0.48205403014E+03  0.00000000000E+00 0.  1.
         -2    1    3    3    0  502  0.22357534299E+03  0.30446799274E+03 -0.53417445648E+03  0.65423928539E+03  0.00000000000E+00 0. -1.
         15    1    5    5    0    0 -0.93335880596E+02 -0.16250492620E+03 -0.23978266927E+03  0.30433258757E+03  0.17770000000E+01 0.  1.
        -15    1    5    5    0    0 -0.46037334869E+02 -0.28475315598E+03 -0.30002368582E+03  0.41619846928E+03  0.17770000000E+01 0. -1.
          1    1    6    6  503    0 -0.22219365602E+03 -0.39684311792E+02 -0.85275392920E+03  0.88211911278E+03  0.00000000000E+00 0. -1.
         -1    1    6    6    0  503 -0.53165122620E+02  0.30968288002E+02 -0.17269606508E+03  0.18332892848E+03  0.00000000000E+00 0.  1.
<mgrwt>
<rscale>  0 0.69237893E+03</rscale>
<asrwt>0</asrwt>
<pdfrwt beam="1">  1        1 0.41826866E+00 0.69237893E+03</pdfrwt>
<pdfrwt beam="2">  1       -1 0.31311683E-01 0.69237893E+03</pdfrwt>
<totfact> 0.96192826E+00</totfact>
</mgrwt>
</event>
<event>
12    1  0.9321077E-008  0.9244667E+03  0.7818608E-02  0.9395503E-01
          1   -1    0    0  501    0  0.00000000000E+00  0.00000000000E+00  0.33965186197E+04  0.33965186197E+04  0.00000000000E+00 0. -1.
         -1   -1    0    0    0  501 -0.00000000000E+00 -0.00000000000E+00 -0.27755284548E+03  0.27755284548E+03  0.00000000000E+00 0.  1.
         23    2    1    2    0    0  0.81644996115E+03  0.18723213843E+03  0.19014763488E+04  0.20796263542E+04  0.87103704345E+02 0.  0.
    5000000    2    1    2    0    0 -0.81644996115E+03 -0.18723213843E+03  0.12174894254E+04  0.15944451110E+04  0.59860529417E+03 0.  0.
         23    2    4    4    0    0 -0.71354931646E+03  0.74127296241E+02  0.75017819308E+03  0.10421402626E+04  0.92959789337E+02 0.  0.
         23    2    4    4    0    0 -0.10290064469E+03 -0.26135943467E+03  0.46731123235E+03  0.55230484843E+03  0.88111071607E+02 0.  0.
          3    1    3    3  502    0  0.59765808106E+03  0.11199970425E+03  0.14494859909E+04  0.15718615567E+04  0.00000000000E+00 0. -1.
         -3    1    3    3    0  502  0.21879188009E+03  0.75232434180E+02  0.45199035786E+03  0.50776479746E+03  0.00000000000E+00 0.  1.
         15    1    5    5    0    0 -0.76878840125E+02  0.10271240848E+02  0.44010918723E+02  0.89196261936E+02  0.17770000000E+01 0.  1.
        -15    1    5    5    0    0 -0.63667047633E+03  0.63856055393E+02  0.70616727436E+03  0.95294400064E+03  0.17770000000E+01 0. -1.
          3    1    6    6  503    0  0.56199144263E+01 -0.83609214257E+02  0.10425736554E+03  0.13375979372E+03  0.00000000000E+00 0. -1.
         -3    1    6    6    0  503 -0.10852055912E+03 -0.17775022042E+03  0.36305386682E+03  0.41854505471E+03  0.00000000000E+00 0.  1.
<mgrwt>
<rscale>  0 0.92446667E+03</rscale>
<asrwt>0</asrwt>
<pdfrwt beam="1">  1        1 0.52254130E+00 0.92446667E+03</pdfrwt>
<pdfrwt beam="2">  1       -1 0.42700440E-01 0.92446667E+03</pdfrwt>
<totfact> 0.17056781E+00</totfact>
</mgrwt>
</event>
<event>
12    1  0.9321077E-008  0.5865059E+03  0.7818608E-02  0.9933804E-01
         -2   -1    0    0    0  501 -0.00000000000E+00  0.00000000000E+00  0.21718003659E+03  0.21718003659E+03  0.00000000000E+00 0.  1.
          2   -1    0    0  501    0  0.00000000000E+00 -0.00000000000E+00 -0.19018210979E+04  0.19018210979E+04  0.00000000000E+00 0. -1.
         23    2    1    2    0    0 -0.40432718449E+03  0.23895293095E+03 -0.39366789462E+03  0.61991693392E+03  0.93507317246E+02 0.  0.
    5000000    2    1    2    0    0  0.40432718449E+03 -0.23895293095E+03 -0.12909731667E+04  0.14990842006E+04  0.60005228770E+03 0.  0.
         23    2    4    4    0    0 -0.10411443737E+03 -0.73432804559E+02 -0.60204412778E+03  0.62217849329E+03  0.91742862755E+02 0.  0.
         23    2    4    4    0    0  0.50844162186E+03 -0.16552012639E+03 -0.68892903894E+03  0.87690570731E+03  0.91818319176E+02 0.  0.
          2    1    3    3  502    0 -0.74457747839E+02  0.89007156555E+02 -0.83769960653E+02  0.14312105519E+03  0.00000000000E+00 0. -1.
         -2    1    3    3    0  502 -0.32986943665E+03  0.14994577440E+03 -0.30989793397E+03  0.47679587873E+03  0.00000000000E+00 0.  1.
         15    1    5    5    0    0 -0.72074996873E+02  0.48575402134E+01 -0.28989253160E+03  0.29876284655E+03  0.17770000000E+01 0.  1.
        -15    1    5    5    0    0 -0.32039440496E+02 -0.78290344772E+02 -0.31215159617E+03  0.32341564674E+03  0.17770000000E+01 0. -1.
          1    1    6    6  503    0  0.42349584796E+03 -0.11467938865E+03 -0.60357820150E+03  0.74619484101E+03  0.00000000000E+00 0. -1.
         -1    1    6    6    0  503  0.84945773898E+02 -0.50840737741E+02 -0.85350837437E+02  0.13071086630E+03  0.00000000000E+00 0.  1.
<mgrwt>
<rscale>  0 0.58650594E+03</rscale>
<asrwt>0</asrwt>
<pdfrwt beam="1">  1        2 0.29258786E+00 0.58650594E+03</pdfrwt>
<pdfrwt beam="2">  1       -2 0.33412314E-01 0.58650594E+03</pdfrwt>
<totfact> 0.66450954E+01</totfact>
</mgrwt>
</event>
<event>
12    1  0.9321077E-008  0.5807464E+03  0.7818608E-02  0.9946176E-01
          2   -1    0    0  501    0  0.00000000000E+00  0.00000000000E+00  0.13767409538E+04  0.13767409538E+04  0.00000000000E+00 0. -1.
         -2   -1    0    0    0  501 -0.00000000000E+00 -0.00000000000E+00 -0.31369326214E+03  0.31369326214E+03  0.00000000000E+00 0.  1.
         23    2    1    2    0    0  0.25969147309E+03  0.41210155663E+03  0.63990410682E+03  0.80931537019E+03  0.90811608952E+02 0.  0.
    5000000    2    1    2    0    0 -0.25969147309E+03 -0.41210155663E+03  0.42314358489E+03  0.88111884580E+03  0.60004380909E+03 0.  0.
         23    2    4    4    0    0 -0.28822345084E+03 -0.47660378919E+03  0.14893762750E+03  0.58336690950E+03  0.88941580417E+02 0.  0.
         23    2    4    4    0    0  0.28531977753E+02  0.64502232560E+02  0.27420595739E+03  0.29775193630E+03  0.92155828611E+02 0.  0.
          1    1    3    3  502    0  0.59049939434E+02  0.15766384083E+03  0.17712433796E+03  0.24437228392E+03  0.00000000000E+00 0. -1.
         -1    1    3    3    0  502  0.20064153366E+03  0.25443771580E+03  0.46277976886E+03  0.56494308627E+03  0.00000000000E+00 0.  1.
         15    1    5    5    0    0 -0.21203373513E+03 -0.35369460899E+03  0.14978676327E+03  0.43874527171E+03  0.17770000000E+01 0.  1.
        -15    1    5    5    0    0 -0.76189715709E+02 -0.12290918020E+03 -0.84913577498E+00  0.14462163779E+03  0.17770000000E+01 0. -1.
          3    1    6    6  503    0  0.44385815282E+02 -0.13094718945E+01  0.14824938966E+03  0.15475689596E+03  0.00000000000E+00 0. -1.
         -3    1    6    6    0  503 -0.15853837529E+02  0.65811704454E+02  0.12595656773E+03  0.14299504034E+03  0.00000000000E+00 0.  1.
<mgrwt>
<rscale>  0 0.58074643E+03</rscale>
<asrwt>0</asrwt>
<pdfrwt beam="1">  1        2 0.21180630E+00 0.58074643E+03</pdfrwt>
<pdfrwt beam="2">  1       -2 0.48260503E-01 0.58074643E+03</pdfrwt>
<totfact> 0.63010123E+01</totfact>
</mgrwt>
</event>
<event>
12    1  0.9321077E-008  0.3894822E+03  0.7818608E-02  0.1047484E+00
          2   -1    0    0  501    0  0.00000000000E+00  0.00000000000E+00  0.13696661782E+04  0.13696661782E+04  0.00000000000E+00 0. -1.
         -2   -1    0    0    0  501 -0.00000000000E+00 -0.00000000000E+00 -0.17016213614E+03  0.17016213614E+03  0.00000000000E+00 0.  1.
         23    2    1    2    0    0  0.29889275433E+02  0.25092098724E+03  0.15832390054E+03  0.31185213634E+03  0.91272048466E+02 0.  0.
    5000000    2    1    2    0    0 -0.29889275433E+02 -0.25092098724E+03  0.10411801415E+04  0.12279761780E+04  0.60001224655E+03 0.  0.
         23    2    4    4    0    0  0.12138672056E+03 -0.30979152719E+03  0.28630687615E+03  0.45044949200E+03  0.10113155426E+03 0.  0.
         23    2    4    4    0    0 -0.15127599599E+03  0.58870539946E+02  0.75487326532E+03  0.77752668595E+03  0.91454541938E+02 0.  0.
          4    1    3    3  502    0  0.31904105865E+02  0.30650912830E+02  0.74672663844E+01  0.44867699914E+02  0.00000000000E+00 0. -1.
         -4    1    3    3    0  502 -0.20148304314E+01  0.22027007441E+03  0.15085663416E+03  0.26698443642E+03  0.00000000000E+00 0.  1.
         15    1    5    5    0    0  0.11420964108E+03 -0.18124334206E+03  0.21385433518E+03  0.30270418821E+03  0.17770000000E+01 0. -1.
        -15    1    5    5    0    0  0.71770794802E+01 -0.12854818513E+03  0.72452540968E+02  0.14774530379E+03  0.17770000000E+01 0.  1.
          1    1    6    6  503    0 -0.14493939202E+03  0.38285919110E+02  0.72703437065E+03  0.74232891300E+03  0.00000000000E+00 0.  1.
         -1    1    6    6    0  503 -0.63366039698E+01  0.20584620836E+02  0.27838894662E+02  0.35197772952E+02  0.00000000000E+00 0. -1.
<mgrwt>
<rscale>  0 0.38948219E+03</rscale>
<asrwt>0</asrwt>
<pdfrwt beam="1">  1        2 0.21071787E+00 0.38948219E+03</pdfrwt>
<pdfrwt beam="2">  1       -2 0.26178791E-01 0.38948219E+03</pdfrwt>
<totfact> 0.20822098E+02</totfact>
</mgrwt>
</event>
<event>
12    1  0.9321077E-008  0.6466579E+03  0.7818608E-02  0.9813071E-01
         -2   -1    0    0    0  501 -0.00000000000E+00  0.00000000000E+00  0.57595744037E+03  0.57595744037E+03  0.00000000000E+00 0.  1.
          2   -1    0    0  501    0  0.00000000000E+00 -0.00000000000E+00 -0.11432642870E+04  0.11432642870E+04  0.00000000000E+00 0. -1.
         23    2    1    2    0    0 -0.32863162029E+03  0.46431640317E+03  0.18142886403E+03  0.60380118052E+03  0.89838570685E+02 0.  0.
    5000000    2    1    2    0    0  0.32863162029E+03 -0.46431640317E+03 -0.74873571064E+03  0.11154205468E+04  0.59997447261E+03 0.  0.
         23    2    4    4    0    0 -0.11305440654E+02  0.57109970246E+02 -0.35945458740E+03  0.37537538947E+03  0.91157670665E+02 0.  0.
         23    2    4    4    0    0  0.33993706095E+03 -0.52142637342E+03 -0.38928112324E+03  0.74004515736E+03  0.93189987239E+02 0.  0.
          4    1    3    3  502    0 -0.30243312513E+03  0.43533368329E+03  0.14305972388E+03  0.54904216193E+03  0.00000000000E+00 0. -1.
         -4    1    3    3    0  502 -0.26198495161E+02  0.28982719884E+02  0.38369140156E+02  0.54759018589E+02  0.00000000000E+00 0.  1.
         15    1    5    5    0    0  0.32328863960E+02  0.23252436327E+02 -0.68791266488E+02  0.79506146392E+02  0.17770000000E+01 0.  1.
        -15    1    5    5    0    0 -0.43634304614E+02  0.33857533919E+02 -0.29066332092E+03  0.29586924307E+03  0.17770000000E+01 0. -1.
          2    1    6    6  503    0  0.33215882096E+03 -0.52438146569E+03 -0.38671803630E+03  0.73133866539E+03  0.00000000000E+00 0. -1.
         -2    1    6    6    0  503  0.77782399895E+01  0.29550922731E+01 -0.25630869305E+01  0.87064919623E+01  0.00000000000E+00 0.  1.
<mgrwt>
<rscale>  0 0.64665788E+03</rscale>
<asrwt>0</asrwt>
<pdfrwt beam="1">  1        2 0.17588681E+00 0.64665788E+03</pdfrwt>
<pdfrwt beam="2">  1       -2 0.88608838E-01 0.64665788E+03</pdfrwt>
<totfact> 0.23134329E+01</totfact>
</mgrwt>
</event>
<event>
12    1  0.9321077E-008  0.9051713E+03  0.7818608E-02  0.9419140E-01
          2   -1    0    0  501    0  0.00000000000E+00  0.00000000000E+00  0.16066206995E+04  0.16066206995E+04  0.00000000000E+00 0. -1.
         -2   -1    0    0    0  501 -0.00000000000E+00 -0.00000000000E+00 -0.60294242821E+03  0.60294242821E+03  0.00000000000E+00 0.  1.
         23    2    1    2    0    0  0.17903360532E+03 -0.85543944144E+03  0.26536172647E+03  0.91774176896E+03  0.89461940605E+02 0.  0.
    5000000    2    1    2    0    0 -0.17903360532E+03  0.85543944144E+03  0.73831654484E+03  0.12918213588E+04  0.59988451620E+03 0.  0.
         23    2    4    4    0    0  0.22444001684E+02  0.57061798087E+03  0.14314292769E+03  0.59663700227E+03  0.96835951104E+02 0.  0.
         23    2    4    4    0    0 -0.20147760700E+03  0.28482146057E+03  0.59517361715E+03  0.69518435649E+03  0.85633897724E+02 0.  0.
          1    1    3    3  502    0  0.50275744204E+02 -0.25531929203E+03  0.12221509789E+03  0.28749281989E+03  0.00000000000E+00 0. -1.
         -1    1    3    3    0  502  0.12875786111E+03 -0.60012014941E+03  0.14314662858E+03  0.63024894907E+03  0.00000000000E+00 0.  1.
         15    1    5    5    0    0 -0.36664898232E+02  0.29645456311E+03  0.76556225035E+02  0.30837256050E+03  0.17770000000E+01 0.  1.
        -15    1    5    5    0    0  0.59108899917E+02  0.27416341776E+03  0.66586702653E+02  0.28826444177E+03  0.17770000000E+01 0. -1.
          4    1    6    6  503    0 -0.17336390187E+03  0.18536217705E+03  0.38758182844E+03  0.46328592995E+03  0.00000000000E+00 0. -1.
         -4    1    6    6    0  503 -0.28113705133E+02  0.99459283516E+02  0.20759178871E+03  0.23189842655E+03  0.00000000000E+00 0.  1.
<mgrwt>
<rscale>  0 0.90517129E+03</rscale>
<asrwt>0</asrwt>
<pdfrwt beam="1">  1        2 0.24717241E+00 0.90517129E+03</pdfrwt>
<pdfrwt beam="2">  1       -2 0.92760375E-01 0.90517129E+03</pdfrwt>
<totfact> 0.10971566E+01</totfact>
</mgrwt>
</event>
<event>
12    1  0.9321077E-008  0.5131442E+03  0.7818608E-02  0.1010404E+00
          1   -1    0    0  501    0  0.00000000000E+00  0.00000000000E+00  0.17252442827E+04  0.17252442827E+04  0.00000000000E+00 0. -1.
         -1   -1    0    0    0  501 -0.00000000000E+00 -0.00000000000E+00 -0.17795815039E+03  0.17795815039E+03  0.00000000000E+00 0.  1.
         23    2    1    2    0    0  0.26604303159E+03  0.27550505459E+03  0.61537856470E+03  0.73049522056E+03  0.90832591098E+02 0.  0.
    5000000    2    1    2    0    0 -0.26604303159E+03 -0.27550505459E+03  0.93190756765E+03  0.11727072126E+04  0.60009046151E+03 0.  0.
         23    2    4    4    0    0 -0.24306844843E+03  0.80138243896E+02  0.15311937979E+03  0.31184329457E+03  0.91083956574E+02 0.  0.
         23    2    4    4    0    0 -0.22974583162E+02 -0.35564329849E+03  0.77878818786E+03  0.86086391800E+03  0.86980782518E+02 0.  0.
          1    1    3    3  502    0  0.15172865355E+03  0.11101690851E+03  0.35789860141E+03  0.40427434642E+03  0.00000000000E+00 0. -1.
         -1    1    3    3    0  502  0.11431437804E+03  0.16448814608E+03  0.25747996329E+03  0.32622087414E+03  0.00000000000E+00 0.  1.
         15    1    5    5    0    0 -0.22455017896E+03  0.41020459532E+02  0.13132822219E+03  0.26335474297E+03  0.17770000000E+01 0. -1.
        -15    1    5    5    0    0 -0.18518269462E+02  0.39117784364E+02  0.21791157602E+02  0.48488551598E+02  0.17770000000E+01 0.  1.
          1    1    6    6  503    0  0.32205689791E+02 -0.10996807329E+03  0.22389391091E+03  0.25151275701E+03  0.00000000000E+00 0. -1.
         -1    1    6    6    0  503 -0.55180272953E+02 -0.24567522519E+03  0.55489427695E+03  0.60935116098E+03  0.00000000000E+00 0.  1.
<mgrwt>
<rscale>  0 0.51314422E+03</rscale>
<asrwt>0</asrwt>
<pdfrwt beam="1">  1        1 0.26542219E+00 0.51314422E+03</pdfrwt>
<pdfrwt beam="2">  1       -1 0.27378178E-01 0.51314422E+03</pdfrwt>
<totfact> 0.58239900E+01</totfact>
</mgrwt>
</event>
<event>
12    1  0.9321077E-008  0.8754995E+03  0.7818608E-02  0.9456737E-01
         -1   -1    0    0    0  501 -0.00000000000E+00  0.00000000000E+00  0.26126773027E+04  0.26126773027E+04  0.00000000000E+00 0.  1.
          1   -1    0    0  501    0  0.00000000000E+00 -0.00000000000E+00 -0.38042104477E+03  0.38042104477E+03  0.00000000000E+00 0. -1.
         23    2    1    2    0    0 -0.39406040658E+03 -0.66932225475E+03  0.32270214761E+03  0.84610694987E+03  0.92110856067E+02 0.  0.
    5000000    2    1    2    0    0  0.39406040658E+03  0.66932225475E+03  0.19095541104E+04  0.21469913976E+04  0.59991605779E+03 0.  0.
         23    2    4    4    0    0 -0.14192717909E+03  0.19646452921E+03  0.42965751914E+03  0.50115160988E+03  0.88349968506E+02 0.  0.
         23    2    4    4    0    0  0.53598758567E+03  0.47285772554E+03  0.14798965912E+04  0.16458397878E+04  0.88416998578E+02 0.  0.
          3    1    3    3  502    0 -0.21843044064E+03 -0.29464762027E+03  0.17844237129E+03  0.40788571610E+03  0.00000000000E+00 0. -1.
         -3    1    3    3    0  502 -0.17562996594E+03 -0.37467463449E+03  0.14425977632E+03  0.43822123377E+03  0.00000000000E+00 0.  1.
         15    1    5    5    0    0 -0.80412061913E+02  0.17103317967E+03  0.28595394343E+03  0.34276998664E+03  0.17770000000E+01 0.  1.
        -15    1    5    5    0    0 -0.61515117181E+02  0.25431349541E+02  0.14370357571E+03  0.15838162325E+03  0.17770000000E+01 0. -1.
          4    1    6    6  503    0  0.15001081365E+03  0.12620613387E+03  0.50051882066E+03  0.53754099590E+03  0.00000000000E+00 0. -1.
         -4    1    6    6    0  503  0.38597677202E+03  0.34665159168E+03  0.97937777058E+03  0.11082987919E+04  0.00000000000E+00 0.  1.
<mgrwt>
<rscale>  0 0.87549950E+03</rscale>
<asrwt>0</asrwt>
<pdfrwt beam="1">  1        1 0.58526316E-01 0.87549950E+03</pdfrwt>
<pdfrwt beam="2">  1       -1 0.40195034E+00 0.87549950E+03</pdfrwt>
<totfact> 0.46572836E-01</totfact>
</mgrwt>
</event>
<event>
12    1  0.9321077E-008  0.1188994E+04  0.7818608E-02  0.9122545E-01
         -2   -1    0    0    0  501 -0.00000000000E+00  0.00000000000E+00  0.20367831082E+04  0.20367831082E+04  0.00000000000E+00 0.  1.
          2   -1    0    0  501    0  0.00000000000E+00 -0.00000000000E+00 -0.93990130651E+03  0.93990130651E+03  0.00000000000E+00 0. -1.
         23    2    1    2    0    0 -0.70856939219E+03 -0.93470697086E+03 -0.12096662185E+03  0.11824438409E+04  0.88276884462E+02 0.  0.
    5000000    2    1    2    0    0  0.70856939219E+03  0.93470697086E+03  0.12178484235E+04  0.17942405738E+04  0.60033053320E+03 0.  0.
         23    2    4    4    0    0  0.11152616265E+03  0.31004668057E+03  0.71049953095E+03  0.78821241515E+03  0.88894312700E+02 0.  0.
         23    2    4    4    0    0  0.59704322954E+03  0.62466029029E+03  0.50734889260E+03  0.10060281587E+04  0.89602795783E+02 0.  0.
          2    1    3    3  502    0 -0.34622901695E+03 -0.47442143036E+03 -0.10361220981E+03  0.59639392668E+03  0.00000000000E+00 0. -1.
         -2    1    3    3    0  502 -0.36234037524E+03 -0.46028554050E+03 -0.17354412038E+02  0.58604991421E+03  0.00000000000E+00 0.  1.
         15    1    5    5    0    0 -0.95063226071E+01  0.41475127962E+01  0.11045496569E+02  0.15255581122E+02  0.17770000000E+01 0. -1.
        -15    1    5    5    0    0  0.12103248525E+03  0.30589916777E+03  0.69945403438E+03  0.77295683403E+03  0.17770000000E+01 0.  1.
          2    1    6    6  503    0  0.18656879472E+03  0.22738381637E+03  0.13118918295E+03  0.32205887169E+03  0.00000000000E+00 0. -1.
         -2    1    6    6    0  503  0.41047443482E+03  0.39727647392E+03  0.37615970965E+03  0.68396928698E+03  0.00000000000E+00 0.  1.
<mgrwt>
<rscale>  0 0.11889942E+04</rscale>
<asrwt>0</asrwt>
<pdfrwt beam="1">  1        2 0.14460020E+00 0.11889942E+04</pdfrwt>
<pdfrwt beam="2">  1       -2 0.31335125E+00 0.11889942E+04</pdfrwt>
<totfact> 0.71200192E-01</totfact>
</mgrwt>
</event>
<event>
12    1  0.9321077E-008  0.5557287E+03  0.7818608E-02  0.1000177E+00
         -2   -1    0    0    0  501 -0.00000000000E+00  0.00000000000E+00  0.24993903225E+03  0.24993903225E+03  0.00000000000E+00 0.  1.
          2   -1    0    0  501    0  0.00000000000E+00 -0.00000000000E+00 -0.19694802735E+04  0.19694802735E+04  0.00000000000E+00 0. -1.
         23    2    1    2    0    0  0.25836594585E+03 -0.44882389609E+03 -0.10782055275E+04  0.11995458662E+04  0.90483556818E+02 0.  0.
    5000000    2    1    2    0    0 -0.25836594585E+03  0.44882389609E+03 -0.64133571378E+03  0.10198734395E+04  0.60052850322E+03 0.  0.
         23    2    4    4    0    0 -0.10726653054E+02  0.27628554102E+03 -0.64138464543E+03  0.70414416159E+03  0.89420219421E+02 0.  0.
         23    2    4    4    0    0 -0.24763929279E+03  0.17253835507E+03  0.48931651210E-01  0.31572927792E+03  0.92683716144E+02 0.  0.
          3    1    3    3  502    0  0.19822770128E+03 -0.28607906220E+03 -0.64550422133E+03  0.73335608755E+03  0.00000000000E+00 0. -1.
         -3    1    3    3    0  502  0.60138244564E+02 -0.16274483389E+03 -0.43270130615E+03  0.46618977869E+03  0.00000000000E+00 0.  1.
         15    1    5    5    0    0  0.26307010339E+02  0.20536069051E+03 -0.50827874978E+03  0.54883104614E+03  0.17770000000E+01 0.  1.
        -15    1    5    5    0    0 -0.37033663393E+02  0.70924850510E+02 -0.13310589565E+03  0.15531311544E+03  0.17770000000E+01 0. -1.
          1    1    6    6  503    0 -0.11053628874E+03  0.62119788154E+02 -0.44088489644E+02  0.13424207287E+03  0.00000000000E+00 0. -1.
         -1    1    6    6    0  503 -0.13710300405E+03  0.11041856692E+03  0.44137421295E+02  0.18148720505E+03  0.00000000000E+00 0.  1.
<mgrwt>
<rscale>  0 0.55572873E+03</rscale>
<asrwt>0</asrwt>
<pdfrwt beam="1">  1        2 0.30299696E+00 0.55572873E+03</pdfrwt>
<pdfrwt beam="2">  1       -2 0.38452160E-01 0.55572873E+03</pdfrwt>
<totfact> 0.46972459E+01</totfact>
</mgrwt>
</event>
<event>
12    1  0.9321077E-008  0.9768290E+03  0.7818608E-02  0.9334330E-01
         -2   -1    0    0    0  501 -0.00000000000E+00  0.00000000000E+00  0.37663079996E+03  0.37663079996E+03  0.00000000000E+00 0.  1.
          2   -1    0    0  501    0  0.00000000000E+00 -0.00000000000E+00 -0.26852805103E+04  0.26852805103E+04  0.00000000000E+00 0. -1.
         23    2    1    2    0    0 -0.82657738048E+03  0.36713849986E+03 -0.85653106607E+03  0.12489283664E+04  0.90309208428E+02 0.  0.
    5000000    2    1    2    0    0  0.82657738048E+03 -0.36713849986E+03 -0.14521186442E+04  0.18129829439E+04  0.60019809551E+03 0.  0.
         23    2    4    4    0    0  0.59795200892E+03  0.68024400605E+01 -0.60533281705E+03  0.85577303246E+03  0.91251222060E+02 0.  0.
         23    2    4    4    0    0  0.22862537156E+03 -0.37394093992E+03 -0.84678582718E+03  0.95720991142E+03  0.84280426673E+02 0.  0.
          4    1    3    3  502    0 -0.94542571857E+02  0.65918844344E+02 -0.13869387423E+03  0.18033186818E+03  0.00000000000E+00 0. -1.
         -4    1    3    3    0  502 -0.73203480863E+03  0.30121965552E+03 -0.71783719184E+03  0.10685964982E+04  0.00000000000E+00 0.  1.
         15    1    5    5    0    0  0.44442354494E+03  0.44977737391E+02 -0.44599017147E+03  0.63122553413E+03  0.17770000000E+01 0. -1.
        -15    1    5    5    0    0  0.15352846398E+03 -0.38175297331E+02 -0.15934264557E+03  0.22454749833E+03  0.17770000000E+01 0.  1.
          4    1    6    6  503    0  0.68302440288E+02 -0.16474048607E+03 -0.27741525203E+03  0.32979368272E+03  0.00000000000E+00 0.  1.
         -4    1    6    6    0  503  0.16032293127E+03 -0.20920045385E+03 -0.56937057516E+03  0.62741622870E+03  0.00000000000E+00 0. -1.
<mgrwt>
<rscale>  0 0.97682901E+03</rscale>
<asrwt>0</asrwt>
<pdfrwt beam="1">  1        2 0.41312009E+00 0.97682901E+03</pdfrwt>
<pdfrwt beam="2">  1       -2 0.57943198E-01 0.97682901E+03</pdfrwt>
<totfact> 0.76952302E+00</totfact>
</mgrwt>
</event>
<event>
12    1  0.9321077E-008  0.7643548E+03  0.7818608E-02  0.9613095E-01
          2   -1    0    0  501    0  0.00000000000E+00  0.00000000000E+00  0.14918459618E+04  0.14918459618E+04  0.00000000000E+00 0. -1.
         -2   -1    0    0    0  501 -0.00000000000E+00 -0.00000000000E+00 -0.51238759002E+03  0.51238759002E+03  0.00000000000E+00 0.  1.
         23    2    1    2    0    0  0.61119113603E+03 -0.44230570638E+03  0.26692297316E+03  0.80550766117E+03  0.91683018880E+02 0.  0.
    5000000    2    1    2    0    0 -0.61119113603E+03  0.44230570638E+03  0.71253539860E+03  0.11987258906E+04  0.60004010197E+03 0.  0.
         23    2    4    4    0    0 -0.25551150258E+03  0.23818075937E+03 -0.11844295272E+02  0.36168306726E+03  0.93049189809E+02 0.  0.
         23    2    4    4    0    0 -0.35567963345E+03  0.20412494701E+03  0.72437969387E+03  0.83704282338E+03  0.87975858253E+02 0.  0.
          2    1    3    3  502    0  0.32436974805E+02 -0.53580149740E+02  0.26878374202E+02  0.68157441123E+02  0.00000000000E+00 0. -1.
         -2    1    3    3    0  502  0.57875416122E+03 -0.38872555664E+03  0.24004459895E+03  0.73735022005E+03  0.00000000000E+00 0.  1.
         15    1    5    5    0    0 -0.10441122363E+03  0.85656364696E+02  0.39896566784E+02  0.14083185081E+03  0.17770000000E+01 0.  1.
        -15    1    5    5    0    0 -0.15110027895E+03  0.15252439467E+03 -0.51740862056E+02  0.22085121644E+03  0.17770000000E+01 0. -1.
          1    1    6    6  503    0 -0.15848712273E+03  0.14084902135E+03  0.35072156209E+03  0.40983195215E+03  0.00000000000E+00 0. -1.
         -1    1    6    6    0  503 -0.19719251071E+03  0.63275925657E+02  0.37365813179E+03  0.42721087123E+03  0.00000000000E+00 0.  1.
<mgrwt>
<rscale>  0 0.76435479E+03</rscale>
<asrwt>0</asrwt>
<pdfrwt beam="1">  1        2 0.22951476E+00 0.76435479E+03</pdfrwt>
<pdfrwt beam="2">  1       -2 0.78828861E-01 0.76435479E+03</pdfrwt>
<totfact> 0.18736974E+01</totfact>
</mgrwt>
</event>
<event>
12    1  0.9321077E-008  0.5203765E+03  0.7818608E-02  0.1008593E+00
          2   -1    0    0  501    0  0.00000000000E+00  0.00000000000E+00  0.18742034590E+04  0.18742034590E+04  0.00000000000E+00 0. -1.
         -2   -1    0    0    0  501 -0.00000000000E+00 -0.00000000000E+00 -0.22707848086E+03  0.22707848086E+03  0.00000000000E+00 0.  1.
         23    2    1    2    0    0  0.10691559283E+03  0.49744759142E+03  0.69375646850E+03  0.86522508706E+03  0.91822456313E+02 0.  0.
    5000000    2    1    2    0    0 -0.10691559283E+03 -0.49744759142E+03  0.95336850966E+03  0.12360568528E+04  0.60003331408E+03 0.  0.
         23    2    4    4    0    0 -0.63801448392E+02 -0.22747760695E+03  0.91024291321E+03  0.94479234279E+03  0.90960010285E+02 0.  0.
         23    2    4    4    0    0 -0.43114144438E+02 -0.26996998447E+03  0.43125596457E+02  0.29126451004E+03  0.90733542698E+02 0.  0.
          4    1    3    3  502    0  0.21230319508E+02  0.31147601378E+03  0.41218793556E+03  0.51707535993E+03  0.00000000000E+00 0. -1.
         -4    1    3    3    0  502  0.85685273322E+02  0.18597157764E+03  0.28156853294E+03  0.34814972713E+03  0.00000000000E+00 0.  1.
         15    1    5    5    0    0 -0.83560469039E+02 -0.18221251329E+03  0.78391102484E+03  0.80913744480E+03  0.17770000000E+01 0. -1.
        -15    1    5    5    0    0  0.19759020647E+02 -0.45265093659E+02  0.12633188837E+03  0.13565489799E+03  0.17770000000E+01 0.  1.
          2    1    6    6  503    0 -0.28778048842E+02 -0.12713612779E+03 -0.24412698556E+02  0.13261881818E+03  0.00000000000E+00 0. -1.
         -2    1    6    6    0  503 -0.14336095597E+02 -0.14283385669E+03  0.67538295012E+02  0.15864569186E+03  0.00000000000E+00 0.  1.
<mgrwt>
<rscale>  0 0.52037647E+03</rscale>
<asrwt>0</asrwt>
<pdfrwt beam="1">  1        2 0.28833898E+00 0.52037647E+03</pdfrwt>
<pdfrwt beam="2">  1       -2 0.34935152E-01 0.52037647E+03</pdfrwt>
<totfact> 0.63863310E+01</totfact>
</mgrwt>
</event>
<event>
12    1  0.9321077E-008  0.5888948E+03  0.7818608E-02  0.9928718E-01
          1   -1    0    0  501    0  0.00000000000E+00  0.00000000000E+00  0.34593736967E+04  0.34593736967E+04  0.00000000000E+00 0. -1.
         -1   -1    0    0    0  501 -0.00000000000E+00 -0.00000000000E+00 -0.10118041344E+03  0.10118041344E+03  0.00000000000E+00 0.  1.
         23    2    1    2    0    0 -0.30592221164E+03  0.30676177684E+03  0.12371022424E+04  0.13139613715E+04  0.91549660768E+02 0.  0.
    5000000    2    1    2    0    0  0.30592221164E+03 -0.30676177684E+03  0.21210910408E+04  0.22465927386E+04  0.60038366257E+03 0.  0.
         23    2    4    4    0    0 -0.11840206062E+02  0.14819086848E+03  0.51462203599E+03  0.54442306297E+03  0.97262056270E+02 0.  0.
         23    2    4    4    0    0  0.31776241770E+03 -0.45495264532E+03  0.16064690048E+04  0.17021696756E+04  0.93188397784E+02 0.  0.
          3    1    3    3  502    0 -0.17722085542E+03  0.22872130939E+03  0.73940378873E+03  0.79400165728E+03  0.00000000000E+00 0. -1.
         -3    1    3    3    0  502 -0.12870135622E+03  0.78040467453E+02  0.49769845366E+03  0.51995971424E+03  0.00000000000E+00 0.  1.
         15    1    5    5    0    0 -0.52132629711E+02  0.70548026213E+02  0.21286741482E+03  0.23024015528E+03  0.17770000000E+01 0.  1.
        -15    1    5    5    0    0  0.40292423649E+02  0.77642842268E+02  0.30175462117E+03  0.31418290769E+03  0.17770000000E+01 0. -1.
          1    1    6    6  503    0  0.18376127845E+03 -0.18203821583E+03  0.73409334760E+03  0.77833101087E+03  0.00000000000E+00 0. -1.
         -1    1    6    6    0  503  0.13400113925E+03 -0.27291442949E+03  0.87237565724E+03  0.92383866475E+03  0.00000000000E+00 0.  1.
<mgrwt>
<rscale>  0 0.58889477E+03</rscale>
<asrwt>0</asrwt>
<pdfrwt beam="1">  1        1 0.53221125E+00 0.58889477E+03</pdfrwt>
<pdfrwt beam="2">  1       -1 0.15566220E-01 0.58889477E+03</pdfrwt>
<totfact> 0.92351070E+00</totfact>
</mgrwt>
</event>
<event>
12    1  0.9321077E-008  0.4541533E+03  0.7818608E-02  0.1026491E+00
         -1   -1    0    0    0  501 -0.00000000000E+00  0.00000000000E+00  0.31369067715E+03  0.31369067715E+03  0.00000000000E+00 0.  1.
          1   -1    0    0  501    0  0.00000000000E+00 -0.00000000000E+00 -0.82379485857E+03  0.82379485857E+03  0.00000000000E+00 0. -1.
         23    2    1    2    0    0 -0.85715228846E+02  0.31075127207E+03 -0.19148283427E+03  0.38546161165E+03  0.89451241924E+02 0.  0.
    5000000    2    1    2    0    0  0.85715228846E+02 -0.31075127207E+03 -0.31862134715E+03  0.75202392408E+03  0.60008913169E+03 0.  0.
         23    2    4    4    0    0 -0.16595765788E+03 -0.26079750754E+03 -0.35232054817E+03  0.47728534288E+03  0.90079108117E+02 0.  0.
         23    2    4    4    0    0  0.25167288673E+03 -0.49953764532E+02  0.33699201017E+02  0.27473858120E+03  0.92255251037E+02 0.  0.
          2    1    3    3  502    0 -0.93005140246E+02  0.28653905255E+03 -0.14915780749E+03  0.33615864749E+03  0.00000000000E+00 0. -1.
         -2    1    3    3    0  502  0.72899114001E+01  0.24212219527E+02 -0.42325026785E+02  0.49302964160E+02  0.00000000000E+00 0.  1.
         15    1    5    5    0    0 -0.77097831004E+02 -0.81931295539E+02 -0.73829975397E+02  0.13457650512E+03  0.17770000000E+01 0. -1.
        -15    1    5    5    0    0 -0.88859826878E+02 -0.17886621200E+03 -0.27849057277E+03  0.34270883776E+03  0.17770000000E+01 0.  1.
          2    1    6    6  503    0  0.10693931652E+03  0.19955757418E+02  0.34100919665E+02  0.11400492267E+03  0.00000000000E+00 0. -1.
         -2    1    6    6    0  503  0.14473357021E+03 -0.69909521949E+02 -0.40171864781E+00  0.16073365853E+03  0.00000000000E+00 0.  1.
<mgrwt>
<rscale>  0 0.45415329E+03</rscale>
<asrwt>0</asrwt>
<pdfrwt beam="1">  1        1 0.12673767E+00 0.45415329E+03</pdfrwt>
<pdfrwt beam="2">  1       -1 0.48260105E-01 0.45415329E+03</pdfrwt>
<totfact> 0.94998316E+01</totfact>
</mgrwt>
</event>
<event>
12    1  0.9321077E-008  0.5698439E+03  0.7818608E-02  0.9970024E-01
         -1   -1    0    0    0  501 -0.00000000000E+00  0.00000000000E+00  0.11012861604E+04  0.11012861604E+04  0.00000000000E+00 0.  1.
          1   -1    0    0  501    0  0.00000000000E+00 -0.00000000000E+00 -0.41330466736E+03  0.41330466736E+03  0.00000000000E+00 0. -1.
         23    2    1    2    0    0  0.48990531577E+03  0.14358690012E+03  0.91081006970E+02  0.52616409083E+03  0.89042036933E+02 0.  0.
    5000000    2    1    2    0    0 -0.48990531577E+03 -0.14358690012E+03  0.59690048605E+03  0.98842673692E+03  0.60006067002E+03 0.  0.
         23    2    4    4    0    0 -0.50473004949E+03 -0.19741250832E+03  0.21186666893E+03  0.58898333312E+03  0.91048119061E+02 0.  0.
         23    2    4    4    0    0  0.14824733722E+02  0.53825608202E+02  0.38503381711E+03  0.39944340380E+03  0.90482173336E+02 0.  0.
          1    1    3    3  502    0  0.43141588741E+03  0.15524021923E+03  0.83631552731E+02  0.46606161630E+03  0.00000000000E+00 0. -1.
         -1    1    3    3    0  502  0.58489428353E+02 -0.11653319108E+02  0.74494542398E+01  0.60102474523E+02  0.00000000000E+00 0.  1.
         15    1    5    5    0    0 -0.43557715606E+03 -0.20209121310E+03  0.18260353471E+03  0.51372709284E+03  0.17770000000E+01 0. -1.
        -15    1    5    5    0    0 -0.69152893427E+02  0.46787047774E+01  0.29263134222E+02  0.75256240281E+02  0.17770000000E+01 0.  1.
          4    1    6    6  503    0  0.13421030189E+02  0.62157790196E+02  0.13458118949E+03  0.14884828349E+03  0.00000000000E+00 0. -1.
         -4    1    6    6    0  503  0.14037035327E+01 -0.83321819944E+01  0.25045262763E+03  0.25059512031E+03  0.00000000000E+00 0.  1.
<mgrwt>
<rscale>  0 0.56984392E+03</rscale>
<asrwt>0</asrwt>
<pdfrwt beam="1">  1        1 0.63585334E-01 0.56984392E+03</pdfrwt>
<pdfrwt beam="2">  1       -1 0.16942864E+00 0.56984392E+03</pdfrwt>
<totfact> 0.15012953E+01</totfact>
</mgrwt>
</event>
<event>
12    1  0.9321077E-008  0.5591618E+03  0.7818608E-02  0.9993953E-01
         -1   -1    0    0    0  501 -0.00000000000E+00  0.00000000000E+00  0.22704794350E+03  0.22704794350E+03  0.00000000000E+00 0. -1.
          1   -1    0    0  501    0  0.00000000000E+00 -0.00000000000E+00 -0.15601186708E+04  0.15601186708E+04  0.00000000000E+00 0.  1.
         23    2    1    2    0    0 -0.15278695561E+03  0.40131287183E+03 -0.37503315835E+03  0.57788777824E+03  0.94385059572E+02 0.  0.
    5000000    2    1    2    0    0  0.15278695561E+03 -0.40131287183E+03 -0.95803756899E+03  0.12092788361E+04  0.60010286199E+03 0.  0.
         23    2    4    4    0    0  0.33478942038E+03 -0.13021076356E+03 -0.33216295816E+03  0.49790924091E+03  0.92426091937E+02 0.  0.
         23    2    4    4    0    0 -0.18200246477E+03 -0.27110210827E+03 -0.62587461083E+03  0.71136959520E+03  0.87786230106E+02 0.  0.
          2    1    3    3  502    0 -0.58480590970E+02  0.14663001004E+03 -0.19997123335E+03  0.25477212079E+03  0.00000000000E+00 0. -1.
         -2    1    3    3    0  502 -0.94306364640E+02  0.25468286179E+03 -0.17506192500E+03  0.32311565745E+03  0.00000000000E+00 0.  1.
         15    1    5    5    0    0  0.12342535062E+03 -0.46532507780E+02 -0.64832085043E+02  0.14698791936E+03  0.17770000000E+01 0. -1.
        -15    1    5    5    0    0  0.21136406975E+03 -0.83678255778E+02 -0.26733087311E+03  0.35092132155E+03  0.17770000000E+01 0.  1.
          1    1    6    6  503    0 -0.13578853570E+03 -0.16357605919E+03 -0.47514950432E+03  0.52054078133E+03  0.00000000000E+00 0. -1.
         -1    1    6    6    0  503 -0.46213929068E+02 -0.10752604908E+03 -0.15072510651E+03  0.19082881387E+03  0.00000000000E+00 0.  1.
<mgrwt>
<rscale>  0 0.55916175E+03</rscale>
<asrwt>0</asrwt>
<pdfrwt beam="1">  1        1 0.24001825E+00 0.55916175E+03</pdfrwt>
<pdfrwt beam="2">  1       -1 0.34930453E-01 0.55916175E+03</pdfrwt>
<totfact> 0.48816951E+01</totfact>
</mgrwt>
</event>
<event>
12    1  0.9321077E-008  0.1496280E+04  0.7818608E-02  0.8886931E-01
          2   -1    0    0  501    0  0.00000000000E+00  0.00000000000E+00  0.11656737311E+04  0.11656737311E+04  0.00000000000E+00 0. -1.
         -2   -1    0    0    0  501 -0.00000000000E+00 -0.00000000000E+00 -0.22057443406E+04  0.22057443406E+04  0.00000000000E+00 0.  1.
         23    2    1    2    0    0 -0.14702831082E+04  0.24062127184E+03 -0.68420948393E+02  0.14942321485E+04  0.91745694890E+02 0.  0.
    5000000    2    1    2    0    0  0.14702831082E+04 -0.24062127184E+03 -0.97164966114E+03  0.18771859233E+04  0.60007742158E+03 0.  0.
         23    2    4    4    0    0  0.79126515759E+03 -0.20549860569E+03 -0.84584969440E+03  0.11797864860E+04  0.90023444368E+02 0.  0.
         23    2    4    4    0    0  0.67901795063E+03 -0.35122666151E+02 -0.12579996674E+03  0.69739943728E+03  0.90781961521E+02 0.  0.
          4    1    3    3  502    0 -0.79114395494E+03  0.13930185886E+03 -0.81618894517E+02  0.80744994226E+03  0.00000000000E+00 0. -1.
         -4    1    3    3    0  502 -0.67913915328E+03  0.10131941298E+03  0.13197946123E+02  0.68678220620E+03  0.00000000000E+00 0.  1.
         15    1    5    5    0    0  0.16998779376E+03 -0.68690412276E+01 -0.16920094180E+03  0.23994822398E+03  0.17770000000E+01 0.  1.
        -15    1    5    5    0    0  0.62127736383E+03 -0.19862956446E+03 -0.67664875260E+03  0.93983826205E+03  0.17770000000E+01 0. -1.
          4    1    6    6  503    0  0.35989826364E+03 -0.90559359046E+01 -0.21485600947E+02  0.36065274323E+03  0.00000000000E+00 0. -1.
         -4    1    6    6    0  503  0.31911968698E+03 -0.26066730247E+02 -0.10431436579E+03  0.33674669405E+03  0.00000000000E+00 0.  1.
<mgrwt>
<rscale>  0 0.14962798E+04</rscale>
<asrwt>0</asrwt>
<pdfrwt beam="1">  1        2 0.17933442E+00 0.14962798E+04</pdfrwt>
<pdfrwt beam="2">  1       -2 0.33934528E+00 0.14962798E+04</pdfrwt>
<totfact> 0.34124660E-01</totfact>
</mgrwt>
</event>
<event>
12    1  0.9321077E-008  0.7564441E+03  0.7818608E-02  0.9625294E-01
          2   -1    0    0  501    0  0.00000000000E+00  0.00000000000E+00  0.15174523377E+04  0.15174523377E+04  0.00000000000E+00 0.  1.
         -2   -1    0    0    0  501 -0.00000000000E+00 -0.00000000000E+00 -0.49948029787E+03  0.49948029787E+03  0.00000000000E+00 0. -1.
         23    2    1    2    0    0 -0.51882123136E+03 -0.43076162442E+03  0.86621511238E+03  0.11017139832E+04  0.93348983763E+02 0.  0.
    5000000    2    1    2    0    0  0.51882123136E+03  0.43076162442E+03  0.15175692742E+03  0.91521865230E+03  0.59988663039E+03 0.  0.
         23    2    4    4    0    0  0.59840431814E+03  0.26549324460E+03  0.22423182062E+03  0.69817747549E+03  0.92722634776E+02 0.  0.
         23    2    4    4    0    0 -0.79583086780E+02  0.16526837982E+03 -0.72474893205E+02  0.21704117681E+03  0.90593361883E+02 0.  0.
          1    1    3    3  502    0 -0.22292111260E+03 -0.19480486168E+03  0.45515290296E+03  0.54296125243E+03  0.00000000000E+00 0. -1.
         -1    1    3    3    0  502 -0.29590011876E+03 -0.23595676275E+03  0.41106220942E+03  0.55875273081E+03  0.00000000000E+00 0.  1.
         15    1    5    5    0    0  0.18825420569E+03  0.81543013476E+02  0.25680012011E+02  0.20676443058E+03  0.17770000000E+01 0.  1.
        -15    1    5    5    0    0  0.41015011246E+03  0.18395023113E+03  0.19855180861E+03  0.49141304491E+03  0.17770000000E+01 0. -1.
          4    1    6    6  503    0 -0.70094992588E+02  0.15208472935E+03 -0.28119342918E+02  0.16980509513E+03  0.00000000000E+00 0. -1.
         -4    1    6    6    0  503 -0.94880941918E+01  0.13183650471E+02 -0.44355550288E+02  0.47236081680E+02  0.00000000000E+00 0.  1.
<mgrwt>
<rscale>  0 0.75644410E+03</rscale>
<asrwt>0</asrwt>
<pdfrwt beam="1">  1        2 0.23345420E+00 0.75644410E+03</pdfrwt>
<pdfrwt beam="2">  1       -2 0.76843123E-01 0.75644410E+03</pdfrwt>
<totfact> 0.19214281E+01</totfact>
</mgrwt>
</event>
<event>
12    1  0.9321077E-008  0.1184765E+04  0.7818608E-02  0.9126298E-01
          2   -1    0    0  501    0  0.00000000000E+00  0.00000000000E+00  0.36232143719E+04  0.36232143719E+04  0.00000000000E+00 0.  1.
         -2   -1    0    0    0  501 -0.00000000000E+00 -0.00000000000E+00 -0.60140314493E+03  0.60140314493E+03  0.00000000000E+00 0. -1.
         23    2    1    2    0    0 -0.92819158672E+03  0.71991817715E+03  0.32460863957E+03  0.12221770863E+04  0.92326907642E+02 0.  0.
    5000000    2    1    2    0    0  0.92819158672E+03 -0.71991817715E+03  0.26972025874E+04  0.30024404306E+04  0.59993744514E+03 0.  0.
         23    2    4    4    0    0  0.50747981687E+03 -0.35228601155E+03  0.76107759038E+03  0.98510072289E+03  0.97688981931E+02 0.  0.
         23    2    4    4    0    0  0.42071176986E+03 -0.36763216561E+03  0.19361249970E+04  0.20173397077E+04  0.94486451760E+02 0.  0.
          1    1    3    3  502    0 -0.60086033331E+03  0.40928674008E+03  0.19853939844E+03  0.75363563376E+03  0.00000000000E+00 0. -1.
         -1    1    3    3    0  502 -0.32733125341E+03  0.31063143708E+03  0.12606924114E+03  0.46854145251E+03  0.00000000000E+00 0.  1.
         15    1    5    5    0    0  0.11642276466E+03 -0.13107485331E+03  0.19122837480E+03  0.25943462829E+03  0.17770000000E+01 0. -1.
        -15    1    5    5    0    0  0.39105705221E+03 -0.22121115824E+03  0.56984921559E+03  0.72566609459E+03  0.17770000000E+01 0.  1.
          3    1    6    6  503    0  0.11318564868E+03 -0.15840241364E+03  0.66577706651E+03  0.69365799787E+03  0.00000000000E+00 0. -1.
         -3    1    6    6    0  503  0.30752612117E+03 -0.20922975197E+03  0.12703479305E+04  0.13236817098E+04  0.00000000000E+00 0.  1.
<mgrwt>
<rscale>  0 0.11847645E+04</rscale>
<asrwt>0</asrwt>
<pdfrwt beam="1">  1        2 0.55741758E+00 0.11847645E+04</pdfrwt>
<pdfrwt beam="2">  1       -2 0.92523563E-01 0.11847645E+04</pdfrwt>
<totfact> 0.66293324E-01</totfact>
</mgrwt>
</event>
<event>
12    1  0.9321077E-008  0.6751749E+03  0.7818608E-02  0.9760654E-01
         -2   -1    0    0    0  501 -0.00000000000E+00  0.00000000000E+00  0.12153156548E+03  0.12153156548E+03  0.00000000000E+00 0.  1.
          2   -1    0    0  501    0  0.00000000000E+00 -0.00000000000E+00 -0.39864170474E+04  0.39864170474E+04  0.00000000000E+00 0. -1.
         23    2    1    2    0    0  0.91382570422E+02 -0.55307124333E+03 -0.14501214360E+04  0.15573925389E+04  0.91546528041E+02 0.  0.
    5000000    2    1    2    0    0 -0.91382570422E+02  0.55307124333E+03 -0.24147640459E+04  0.25505560739E+04  0.60001026197E+03 0.  0.
         23    2    4    4    0    0 -0.28596438076E+03  0.47776674904E+03 -0.13757913493E+04  0.14868584353E+04  0.88935236531E+02 0.  0.
         23    2    4    4    0    0  0.19458181034E+03  0.75304494287E+02 -0.10389726966E+04  0.10636976386E+04  0.91954088107E+02 0.  0.
          1    1    3    3  502    0 -0.10222044532E+02 -0.16898292347E+03 -0.48483775127E+03  0.51354392575E+03  0.00000000000E+00 0. -1.
         -1    1    3    3    0  502  0.10160461495E+03 -0.38408831986E+03 -0.96528368471E+03  0.10438486132E+04  0.00000000000E+00 0.  1.
         15    1    5    5    0    0 -0.21314084033E+03  0.41844947637E+03 -0.11645355732E+04  0.12556572944E+04  0.17770000000E+01 0.  1.
        -15    1    5    5    0    0 -0.72823540430E+02  0.59317272667E+02 -0.21125577608E+03  0.23120114086E+03  0.17770000000E+01 0. -1.
          1    1    6    6  503    0  0.22105113336E+02 -0.13815798587E+02 -0.24286586082E+03  0.24426080053E+03  0.00000000000E+00 0. -1.
         -1    1    6    6    0  503  0.17247669701E+03  0.89120292874E+02 -0.79610683582E+03  0.81943683811E+03  0.00000000000E+00 0.  1.
<mgrwt>
<rscale>  0 0.67517494E+03</rscale>
<asrwt>0</asrwt>
<pdfrwt beam="1">  1        2 0.61329498E+00 0.67517494E+03</pdfrwt>
<pdfrwt beam="2">  1       -2 0.18697162E-01 0.67517494E+03</pdfrwt>
<totfact> 0.94267239E+00</totfact>
</mgrwt>
</event>
<event>
12    1  0.9321077E-008  0.4362164E+03  0.7818608E-02  0.1031914E+00
         -1   -1    0    0    0  501 -0.00000000000E+00  0.00000000000E+00  0.25374665551E+03  0.25374665551E+03  0.00000000000E+00 0.  1.
          1   -1    0    0  501    0  0.00000000000E+00 -0.00000000000E+00 -0.99488379385E+03  0.99488379385E+03  0.00000000000E+00 0. -1.
         23    2    1    2    0    0  0.43334369807E+02  0.22752041295E+03  0.22985806994E+02  0.25002103684E+03  0.91316841950E+02 0.  0.
    5000000    2    1    2    0    0 -0.43334369807E+02 -0.22752041295E+03 -0.76412294534E+03  0.99860941252E+03  0.59974450999E+03 0.  0.
         23    2    4    4    0    0  0.18467427125E+03  0.10087893461E+03 -0.31881496654E+03  0.39328247117E+03  0.93525255057E+02 0.  0.
         23    2    4    4    0    0 -0.22800864105E+03 -0.32839934756E+03 -0.44530797880E+03  0.60532694135E+03  0.91035367085E+02 0.  0.
          1    1    3    3  502    0 -0.11343478624E+02  0.16705928484E+03  0.15391514970E+02  0.16814986736E+03  0.00000000000E+00 0. -1.
         -1    1    3    3    0  502  0.54677848431E+02  0.60461128111E+02  0.75942920240E+01  0.81871169485E+02  0.00000000000E+00 0.  1.
         15    1    5    5    0    0  0.51163713610E+02  0.68860356756E+02 -0.17230225735E+03  0.19248558372E+03  0.17770000000E+01 0.  1.
        -15    1    5    5    0    0  0.13351055764E+03  0.32018577857E+02 -0.14651270919E+03  0.20079688746E+03  0.17770000000E+01 0. -1.
          4    1    6    6  503    0 -0.46329012913E+02 -0.82553447482E+02 -0.54740545445E+02  0.10935253287E+03  0.00000000000E+00 0. -1.
         -4    1    6    6    0  503 -0.18167962814E+03 -0.24584590008E+03 -0.39056743336E+03  0.49597440848E+03  0.00000000000E+00 0.  1.
<mgrwt>
<rscale>  0 0.43621638E+03</rscale>
<asrwt>0</asrwt>
<pdfrwt beam="1">  1        1 0.15305904E+00 0.43621638E+03</pdfrwt>
<pdfrwt beam="2">  1       -1 0.39037948E-01 0.43621638E+03</pdfrwt>
<totfact> 0.10241606E+02</totfact>
</mgrwt>
</event>
<event>
12    1  0.9321077E-008  0.4946923E+03  0.7818608E-02  0.1015174E+00
          1   -1    0    0  501    0  0.00000000000E+00  0.00000000000E+00  0.10246832139E+04  0.10246832139E+04  0.00000000000E+00 0. -1.
         -1   -1    0    0    0  501 -0.00000000000E+00 -0.00000000000E+00 -0.32147370235E+03  0.32147370235E+03  0.00000000000E+00 0.  1.
         23    2    1    2    0    0 -0.32232720646E+03  0.19823120991E+03  0.73206294816E+02  0.39742147500E+03  0.96923818474E+02 0.  0.
    5000000    2    1    2    0    0  0.32232720646E+03 -0.19823120991E+03  0.63000321672E+03  0.94873544124E+03  0.60000370314E+03 0.  0.
         23    2    4    4    0    0  0.77128073288E+02 -0.31243293195E+03  0.10405045059E+03  0.35031918777E+03  0.91290527405E+02 0.  0.
         23    2    4    4    0    0  0.24519913317E+03  0.11420172204E+03  0.52595276613E+03  0.59841625347E+03  0.91164971306E+02 0.  0.
          3    1    3    3  502    0 -0.14933924549E+03  0.74345089145E+02 -0.14134636475E+02  0.16741920581E+03  0.00000000000E+00 0. -1.
         -3    1    3    3    0  502 -0.17298796097E+03  0.12388612077E+03  0.87340931292E+02  0.23000226920E+03  0.00000000000E+00 0.  1.
         15    1    5    5    0    0 -0.34242406249E+00 -0.16746381518E+03  0.30473378552E+02  0.17022347423E+03  0.17770000000E+01 0.  1.
        -15    1    5    5    0    0  0.77470497350E+02 -0.14496911677E+03  0.73577072033E+02  0.18009571354E+03  0.17770000000E+01 0. -1.
          4    1    6    6  503    0  0.42772058155E+02 -0.49288812138E+01  0.14136375556E+03  0.14777501214E+03  0.00000000000E+00 0. -1.
         -4    1    6    6    0  503  0.20242707502E+03  0.11913060325E+03  0.38458901057E+03  0.45064124133E+03  0.00000000000E+00 0.  1.
<mgrwt>
<rscale>  0 0.49469226E+03</rscale>
<asrwt>0</asrwt>
<pdfrwt beam="1">  1        1 0.15764357E+00 0.49469226E+03</pdfrwt>
<pdfrwt beam="2">  1       -1 0.49457493E-01 0.49469226E+03</pdfrwt>
<totfact> 0.62491033E+01</totfact>
</mgrwt>
</event>
<event>
12    1  0.9321077E-008  0.3574471E+03  0.7818608E-02  0.1059599E+00
         -1   -1    0    0    0  501 -0.00000000000E+00  0.00000000000E+00  0.28287738711E+03  0.28287738711E+03  0.00000000000E+00 0.  1.
          1   -1    0    0  501    0  0.00000000000E+00 -0.00000000000E+00 -0.76268599756E+03  0.76268599756E+03  0.00000000000E+00 0. -1.
         23    2    1    2    0    0 -0.97827183678E+02 -0.18207360785E+03 -0.31892512319E+03  0.39087691586E+03  0.91381467539E+02 0.  0.
    5000000    2    1    2    0    0  0.97827183678E+02  0.18207360785E+03 -0.16088348726E+03  0.65468646882E+03  0.60000826614E+03 0.  0.
         23    2    4    4    0    0  0.23878308000E+03  0.23560661435E+03 -0.27613422377E+03  0.44386795756E+03  0.90778952356E+02 0.  0.
         23    2    4    4    0    0 -0.14095589632E+03 -0.53533006499E+02  0.11525073651E+03  0.21081851126E+03  0.91800680436E+02 0.  0.
          1    1    3    3  502    0 -0.94360056181E+02 -0.80860624758E+02 -0.18793069307E+03  0.22530025796E+03  0.00000000000E+00 0. -1.
         -1    1    3    3    0  502 -0.34671274973E+01 -0.10121298309E+03 -0.13099443011E+03  0.16557665790E+03  0.00000000000E+00 0.  1.
         15    1    5    5    0    0  0.17836899550E+03  0.17215518665E+03 -0.25081473452E+03  0.35265293935E+03  0.17770000000E+01 0. -1.
        -15    1    5    5    0    0  0.60414084495E+02  0.63451427703E+02 -0.25319489250E+02  0.91215018214E+02  0.17770000000E+01 0.  1.
          1    1    6    6  503    0 -0.75348952380E+02 -0.12336476339E+02  0.55931101360E+01  0.76556751199E+02  0.00000000000E+00 0. -1.
         -1    1    6    6    0  503 -0.65606943941E+02 -0.41196530160E+02  0.10965762638E+03  0.13426176006E+03  0.00000000000E+00 0.  1.
<mgrwt>
<rscale>  0 0.35744705E+03</rscale>
<asrwt>0</asrwt>
<pdfrwt beam="1">  1        1 0.11733630E+00 0.35744705E+03</pdfrwt>
<pdfrwt beam="2">  1       -1 0.43519599E-01 0.35744705E+03</pdfrwt>
<totfact> 0.13128149E+02</totfact>
</mgrwt>
</event>
<event>
12    1  0.9321077E-008  0.3174506E+03  0.7818608E-02  0.1076829E+00
         -2   -1    0    0    0  501 -0.00000000000E+00  0.00000000000E+00  0.44639468565E+03  0.44639468565E+03  0.00000000000E+00 0.  1.
          2   -1    0    0  501    0  0.00000000000E+00 -0.00000000000E+00 -0.56176441749E+03  0.56176441749E+03  0.00000000000E+00 0. -1.
         23    2    1    2    0    0 -0.14002824999E+03  0.96573969879E+02  0.22644748901E+03  0.29694972003E+03  0.89253730991E+02 0.  0.
    5000000    2    1    2    0    0  0.14002824999E+03 -0.96573969879E+02 -0.34181722085E+03  0.71120938310E+03  0.60003777522E+03 0.  0.
         23    2    4    4    0    0  0.27685626421E+03 -0.22097776354E+02  0.34465169176E+02  0.29460307284E+03  0.92007716455E+02 0.  0.
         23    2    4    4    0    0 -0.13682801422E+03 -0.74476193524E+02 -0.37628239003E+03  0.41660631026E+03  0.87771133235E+02 0.  0.
          4    1    3    3  502    0 -0.40624853512E+02  0.33136505871E+02  0.14478223248E+02  0.54387734763E+02  0.00000000000E+00 0. -1.
         -4    1    3    3    0  502 -0.99403396480E+02  0.63437464008E+02  0.21196926576E+03  0.24256198527E+03  0.00000000000E+00 0.  1.
         15    1    5    5    0    0  0.18878410573E+03  0.16874128003E+02 -0.71322524736E+01  0.18967920689E+03  0.17770000000E+01 0.  1.
        -15    1    5    5    0    0  0.88072158479E+02 -0.38971904357E+02  0.41597421650E+02  0.10492386595E+03  0.17770000000E+01 0. -1.
          3    1    6    6  503    0 -0.39873637367E+02 -0.71282909094E+02 -0.17975340689E+03  0.19743973099E+03  0.00000000000E+00 0. -1.
         -3    1    6    6    0  503 -0.96954376853E+02 -0.31932844304E+01 -0.19652898314E+03  0.21916657927E+03  0.00000000000E+00 0.  1.
<mgrwt>
<rscale>  0 0.31745062E+03</rscale>
<asrwt>0</asrwt>
<pdfrwt beam="1">  1        2 0.86425295E-01 0.31745062E+03</pdfrwt>
<pdfrwt beam="2">  1       -2 0.68676105E-01 0.31745062E+03</pdfrwt>
<totfact> 0.10886316E+02</totfact>
</mgrwt>
</event>
<event>
12    1  0.9321077E-008  0.7571050E+03  0.7818608E-02  0.9624269E-01
         -1   -1    0    0    0  501 -0.00000000000E+00  0.00000000000E+00  0.82128273676E+03  0.82128273676E+03  0.00000000000E+00 0.  1.
          1   -1    0    0  501    0  0.00000000000E+00 -0.00000000000E+00 -0.84588109774E+03  0.84588109774E+03  0.00000000000E+00 0. -1.
         23    2    1    2    0    0  0.30203453555E+03 -0.59352778955E+03 -0.29041983800E+03  0.73220415346E+03  0.90989792899E+02 0.  0.
    5000000    2    1    2    0    0 -0.30203453555E+03  0.59352778955E+03  0.26582147702E+03  0.93495968104E+03  0.59999037482E+03 0.  0.
         23    2    4    4    0    0 -0.23790419111E+03 -0.51923060455E+01 -0.35088941905E+02  0.25570674320E+03  0.86771772381E+02 0.  0.
         23    2    4    4    0    0 -0.64130344438E+02  0.59872009560E+03  0.30091041893E+03  0.67925293784E+03  0.90879147178E+02 0.  0.
          1    1    3    3  502    0  0.17907562343E+03 -0.27576092127E+03 -0.11039029724E+03  0.34684028361E+03  0.00000000000E+00 0. -1.
         -1    1    3    3    0  502  0.12295891212E+03 -0.31776686828E+03 -0.18002954076E+03  0.38536386986E+03  0.00000000000E+00 0.  1.
         15    1    5    5    0    0 -0.70229261219E+02  0.12633187337E+02 -0.48885518083E+02  0.86514150062E+02  0.17770000000E+01 0. -1.
        -15    1    5    5    0    0 -0.16767492989E+03 -0.17825493382E+02  0.13796576178E+02  0.16919259314E+03  0.17770000000E+01 0.  1.
          1    1    6    6  503    0 -0.24385194482E+02  0.45218279308E+03  0.18930667003E+03  0.49081659649E+03  0.00000000000E+00 0. -1.
         -1    1    6    6    0  503 -0.39745149957E+02  0.14653730252E+03  0.11160374890E+03  0.18843634135E+03  0.00000000000E+00 0.  1.
<mgrwt>
<rscale>  0 0.75710504E+03</rscale>
<asrwt>0</asrwt>
<pdfrwt beam="1">  1        1 0.13013555E+00 0.75710504E+03</pdfrwt>
<pdfrwt beam="2">  1       -1 0.12635119E+00 0.75710504E+03</pdfrwt>
<totfact> 0.11326832E+01</totfact>
</mgrwt>
</event>
<event>
12    1  0.9321077E-008  0.4189505E+03  0.7818608E-02  0.1037408E+00
          1   -1    0    0  501    0  0.00000000000E+00  0.00000000000E+00  0.22734427656E+04  0.22734427656E+04  0.00000000000E+00 0. -1.
         -1   -1    0    0    0  501 -0.00000000000E+00 -0.00000000000E+00 -0.15790922598E+03  0.15790922598E+03  0.00000000000E+00 0.  1.
         23    2    1    2    0    0 -0.79189279844E+02 -0.28317664964E+03  0.14719284063E+04  0.15036936964E+04  0.89786093171E+02 0.  0.
    5000000    2    1    2    0    0  0.79189279844E+02  0.28317664964E+03  0.64360513337E+03  0.92765829517E+03  0.59988531234E+03 0.  0.
         23    2    4    4    0    0 -0.29265385426E+02 -0.11682306571E+03  0.42428629516E+03  0.45065394631E+03  0.92552836776E+02 0.  0.
         23    2    4    4    0    0  0.10845466527E+03  0.39999971535E+03  0.21931883821E+03  0.47700434887E+03  0.87579731345E+02 0.  0.
          2    1    3    3  502    0 -0.15348207633E+02 -0.82657543662E+02  0.64292301068E+03  0.64839635614E+03  0.00000000000E+00 0. -1.
         -2    1    3    3    0  502 -0.63841072212E+02 -0.20051910598E+03  0.82900539560E+03  0.85529734028E+03  0.00000000000E+00 0.  1.
         15    1    5    5    0    0 -0.10753476781E+02 -0.33005057731E+02  0.28443781437E+03  0.28655365828E+03  0.17770000000E+01 0. -1.
        -15    1    5    5    0    0 -0.18511908644E+02 -0.83818007982E+02  0.13984848079E+03  0.16410028803E+03  0.17770000000E+01 0.  1.
          2    1    6    6  503    0  0.10485946977E+03  0.23037696232E+03  0.14572211162E+03  0.29206846283E+03  0.00000000000E+00 0. -1.
         -2    1    6    6    0  503  0.35951955008E+01  0.16962275304E+03  0.73596726590E+02  0.18493588603E+03  0.00000000000E+00 0.  1.
<mgrwt>
<rscale>  0 0.41895054E+03</rscale>
<asrwt>0</asrwt>
<pdfrwt beam="1">  1        1 0.34976040E+00 0.41895054E+03</pdfrwt>
<pdfrwt beam="2">  1       -1 0.24293729E-01 0.41895054E+03</pdfrwt>
<totfact> 0.31538747E+01</totfact>
</mgrwt>
</event>
<event>
12    1  0.9321077E-008  0.1775397E+04  0.7818608E-02  0.8719494E-01
          2   -1    0    0  501    0  0.00000000000E+00  0.00000000000E+00  0.11617776829E+04  0.11617776829E+04  0.00000000000E+00 0. -1.
         -2   -1    0    0    0  501 -0.00000000000E+00 -0.00000000000E+00 -0.30588628603E+04  0.30588628603E+04  0.00000000000E+00 0.  1.
         23    2    1    2    0    0  0.13728443102E+04 -0.10491690584E+04 -0.22926089676E+03  0.17453538962E+04  0.90787945575E+02 0.  0.
    5000000    2    1    2    0    0 -0.13728443102E+04  0.10491690584E+04 -0.16678242807E+04  0.24752866470E+04  0.59995744871E+03 0.  0.
         23    2    4    4    0    0 -0.10144380671E+04  0.10428416301E+04 -0.13606675535E+04  0.19942386669E+04  0.94701700208E+02 0.  0.
         23    2    4    4    0    0 -0.35840624311E+03  0.63274282938E+01 -0.30715672719E+03  0.48104798006E+03  0.92557185599E+02 0.  0.
          4    1    3    3  502    0  0.10436586177E+03 -0.93159026953E+02 -0.41381872523E+02  0.14588795968E+03  0.00000000000E+00 0. -1.
         -4    1    3    3    0  502  0.12684784484E+04 -0.95601003148E+03 -0.18787902424E+03  0.15994659365E+04  0.00000000000E+00 0.  1.
         15    1    5    5    0    0 -0.72675724764E+03  0.78203446096E+03 -0.95032103651E+03  0.14292890629E+04  0.17770000000E+01 0.  1.
        -15    1    5    5    0    0 -0.28768081942E+03  0.26080716918E+03 -0.41034651699E+03  0.56494960402E+03  0.17770000000E+01 0. -1.
          4    1    6    6  503    0 -0.18101227638E+02 -0.17872280869E+02 -0.41398727254E+02  0.48589376244E+02  0.00000000000E+00 0.  1.
         -4    1    6    6    0  503 -0.34030501547E+03  0.24199709163E+02 -0.26575799994E+03  0.43245860381E+03  0.00000000000E+00 0. -1.
<mgrwt>
<rscale>  0 0.17753970E+04</rscale>
<asrwt>0</asrwt>
<pdfrwt beam="1">  1        2 0.17873503E+00 0.17753970E+04</pdfrwt>
<pdfrwt beam="2">  1       -2 0.47059428E+00 0.17753970E+04</pdfrwt>
<totfact> 0.46422693E-02</totfact>
</mgrwt>
</event>
<event>
12    1  0.9321077E-008  0.7709555E+03  0.7818608E-02  0.9603036E-01
          2   -1    0    0  501    0  0.00000000000E+00  0.00000000000E+00  0.28756156603E+04  0.28756156603E+04  0.00000000000E+00 0. -1.
         -2   -1    0    0    0  501 -0.00000000000E+00 -0.00000000000E+00 -0.23539063165E+03  0.23539063165E+03  0.00000000000E+00 0.  1.
         23    2    1    2    0    0 -0.61556798479E+03 -0.34710607049E+03  0.12758886279E+04  0.14615025574E+04  0.93227497976E+02 0.  0.
    5000000    2    1    2    0    0  0.61556798479E+03  0.34710607049E+03  0.13643364008E+04  0.16495037346E+04  0.60003515550E+03 0.  0.
         23    2    4    4    0    0  0.53673030163E+03  0.71181569255E+02  0.11671095096E+04  0.12897393581E+04  0.90204057523E+02 0.  0.
         23    2    4    4    0    0  0.78837683159E+02  0.27592450124E+03  0.19722689121E+03  0.35976437649E+03  0.90455786474E+02 0.  0.
          2    1    3    3  502    0 -0.47270376222E+03 -0.25887969006E+03  0.10476829961E+04  0.11781796132E+04  0.00000000000E+00 0. -1.
         -2    1    3    3    0  502 -0.14286422257E+03 -0.88226380427E+02  0.22820563178E+03  0.28332294413E+03  0.00000000000E+00 0.  1.
         15    1    5    5    0    0  0.44234066862E+03  0.28684136085E+02  0.89923460043E+03  0.10025537747E+04  0.17770000000E+01 0. -1.
        -15    1    5    5    0    0  0.94389633005E+02  0.42497433169E+02  0.26787490914E+03  0.28718558341E+03  0.17770000000E+01 0.  1.
          3    1    6    6  503    0 -0.20350917342E+01  0.13193187271E+02 -0.90096623285E+01  0.16105148370E+02  0.00000000000E+00 0. -1.
         -3    1    6    6    0  503  0.80872774893E+02  0.26273131396E+03  0.20623655354E+03  0.34365922812E+03  0.00000000000E+00 0.  1.
<mgrwt>
<rscale>  0 0.77095555E+03</rscale>
<asrwt>0</asrwt>
<pdfrwt beam="1">  1        2 0.44240238E+00 0.77095555E+03</pdfrwt>
<pdfrwt beam="2">  1       -2 0.36213945E-01 0.77095555E+03</pdfrwt>
<totfact> 0.15717591E+01</totfact>
</mgrwt>
</event>
<event>
12    1  0.9321077E-008  0.4959940E+03  0.7818608E-02  0.1014830E+00
          2   -1    0    0  501    0  0.00000000000E+00  0.00000000000E+00  0.80813742977E+03  0.80813742977E+03  0.00000000000E+00 0. -1.
         -2   -1    0    0    0  501 -0.00000000000E+00 -0.00000000000E+00 -0.51961638849E+03  0.51961638849E+03  0.00000000000E+00 0.  1.
         23    2    1    2    0    0 -0.31212357401E+03  0.13243920238E+03  0.49666472990E+03  0.60792264035E+03  0.89066351327E+02 0.  0.
    5000000    2    1    2    0    0  0.31212357401E+03 -0.13243920238E+03 -0.20814368862E+03  0.71983117791E+03  0.59989320866E+03 0.  0.
         23    2    4    4    0    0  0.42182355876E+03  0.25227432743E+02 -0.25443864918E+03  0.50164534657E+03  0.91309854101E+02 0.  0.
         23    2    4    4    0    0 -0.10969998475E+03 -0.15766663512E+03  0.46294960561E+02  0.21818583134E+03  0.92568780579E+02 0.  0.
          4    1    3    3  502    0 -0.15474838965E+03  0.19170193187E+02  0.24101363021E+03  0.28705771259E+03  0.00000000000E+00 0.  1.
         -4    1    3    3    0  502 -0.15737518436E+03  0.11326900919E+03  0.25565109969E+03  0.32086492776E+03  0.00000000000E+00 0. -1.
         15    1    5    5    0    0  0.30980045722E+03  0.53456462908E+02 -0.16193577798E+03  0.35363861588E+03  0.17770000000E+01 0. -1.
        -15    1    5    5    0    0  0.11202310154E+03 -0.28229030165E+02 -0.92502871198E+02  0.14800673070E+03  0.17770000000E+01 0.  1.
          4    1    6    6  503    0 -0.11932116005E+03 -0.10576150697E+03  0.43730976644E+02  0.16533430954E+03  0.00000000000E+00 0. -1.
         -4    1    6    6    0  503  0.96211753010E+01 -0.51905128156E+02  0.25639839164E+01  0.52851521800E+02  0.00000000000E+00 0.  1.
<mgrwt>
<rscale>  0 0.49599400E+03</rscale>
<asrwt>0</asrwt>
<pdfrwt beam="1">  1        2 0.12432884E+00 0.49599400E+03</pdfrwt>
<pdfrwt beam="2">  1       -2 0.79940983E-01 0.49599400E+03</pdfrwt>
<totfact> 0.48901583E+01</totfact>
</mgrwt>
</event>
<event>
12    1  0.9321077E-008  0.3401983E+03  0.7818608E-02  0.1066711E+00
          2   -1    0    0  501    0  0.00000000000E+00  0.00000000000E+00  0.96699579789E+03  0.96699579789E+03  0.00000000000E+00 0. -1.
         -2   -1    0    0    0  501 -0.00000000000E+00 -0.00000000000E+00 -0.24917379763E+03  0.24917379763E+03  0.00000000000E+00 0.  1.
         23    2    1    2    0    0 -0.91625766115E+02  0.28138517972E+03  0.17534344501E+03  0.35545126743E+03  0.89595644036E+02 0.  0.
    5000000    2    1    2    0    0  0.91625766115E+02 -0.28138517972E+03  0.54247855525E+03  0.86071832809E+03  0.59914952809E+03 0.  0.
         23    2    4    4    0    0  0.14647257206E+03 -0.16245873022E+03 -0.54334669797E+02  0.24294430445E+03  0.90678692813E+02 0.  0.
         23    2    4    4    0    0 -0.54846805947E+02 -0.11892644950E+03  0.59681322505E+03  0.61777402364E+03  0.91142998511E+02 0.  0.
          1    1    3    3  502    0 -0.12035278931E+02  0.14270922085E+03  0.11806938783E+03  0.18561020984E+03  0.00000000000E+00 0. -1.
         -1    1    3    3    0  502 -0.79590487184E+02  0.13867595887E+03  0.57274057180E+02  0.16984105759E+03  0.00000000000E+00 0.  1.
         15    1    5    5    0    0  0.13583092558E+03 -0.15009952820E+03 -0.75589356438E+02  0.21609446371E+03  0.17770000000E+01 0.  1.
        -15    1    5    5    0    0  0.10641646479E+02 -0.12359202017E+02  0.21254686641E+02  0.26849840735E+02  0.17770000000E+01 0. -1.
          3    1    6    6  503    0  0.13744418496E+01  0.14023623437E+02  0.77588924017E+02  0.78858051173E+02  0.00000000000E+00 0. -1.
         -3    1    6    6    0  503 -0.56221247797E+02 -0.13295007294E+03  0.51922430103E+03  0.53891597247E+03  0.00000000000E+00 0.  1.
<mgrwt>
<rscale>  0 0.34019831E+03</rscale>
<asrwt>0</asrwt>
<pdfrwt beam="1">  1        2 0.14876858E+00 0.34019831E+03</pdfrwt>
<pdfrwt beam="2">  1       -2 0.38334431E-01 0.34019831E+03</pdfrwt>
<totfact> 0.17807523E+02</totfact>
</mgrwt>
</event>
<event>
12    1  0.9321077E-008  0.1150913E+04  0.7818608E-02  0.9156942E-01
          2   -1    0    0  501    0  0.00000000000E+00  0.00000000000E+00  0.14634900711E+04  0.14634900711E+04  0.00000000000E+00 0. -1.
         -2   -1    0    0    0  501 -0.00000000000E+00 -0.00000000000E+00 -0.95689073186E+03  0.95689073186E+03  0.00000000000E+00 0.  1.
         23    2    1    2    0    0 -0.39292908390E+03 -0.10330748017E+04  0.21958775915E+03  0.11304012438E+04  0.89170495048E+02 0.  0.
    5000000    2    1    2    0    0  0.39292908390E+03  0.10330748017E+04  0.28701158011E+03  0.12899795592E+04  0.60002900356E+03 0.  0.
         23    2    4    4    0    0  0.27638433159E+03  0.21257024228E+03  0.27890383616E+03  0.45552986040E+03  0.90253516485E+02 0.  0.
         23    2    4    4    0    0  0.11654475231E+03  0.82050455940E+03  0.81077439441E+01  0.83444969877E+03  0.97108974724E+02 0.  0.
          1    1    3    3  502    0 -0.73724753938E+02 -0.11449305749E+03  0.19466361543E+02  0.13756067312E+03  0.00000000000E+00 0. -1.
         -1    1    3    3    0  502 -0.31920432996E+03 -0.91858174418E+03  0.20012139760E+03  0.99284057068E+03  0.00000000000E+00 0.  1.
         15    1    5    5    0    0  0.15497130287E+03  0.17015727158E+03  0.15944452631E+03  0.27999163645E+03  0.17770000000E+01 0. -1.
        -15    1    5    5    0    0  0.12141302872E+03  0.42412970701E+02  0.11945930985E+03  0.17553822395E+03  0.17770000000E+01 0.  1.
          2    1    6    6  503    0  0.11897127654E+03  0.50238855256E+03  0.41816158352E+01  0.51630021141E+03  0.00000000000E+00 0.  1.
         -2    1    6    6    0  503 -0.24265242250E+01  0.31811600684E+03  0.39261281089E+01  0.31814948736E+03  0.00000000000E+00 0. -1.
<mgrwt>
<rscale>  0 0.11509130E+04</rscale>
<asrwt>0</asrwt>
<pdfrwt beam="1">  1        2 0.22515232E+00 0.11509130E+04</pdfrwt>
<pdfrwt beam="2">  1       -2 0.14721396E+00 0.11509130E+04</pdfrwt>
<totfact> 0.40949062E+00</totfact>
</mgrwt>
</event>
<event>
12    1  0.9321077E-008  0.7080528E+03  0.7818608E-02  0.9703559E-01
          1   -1    0    0  501    0  0.00000000000E+00  0.00000000000E+00  0.10525393014E+04  0.10525393014E+04  0.00000000000E+00 0. -1.
         -1   -1    0    0    0  501 -0.00000000000E+00 -0.00000000000E+00 -0.84901007166E+03  0.84901007166E+03  0.00000000000E+00 0.  1.
         23    2    1    2    0    0 -0.57078824981E+03 -0.13144899592E+03 -0.52431199383E+03  0.79123017127E+03  0.89800069050E+02 0.  0.
    5000000    2    1    2    0    0  0.57078824981E+03  0.13144899592E+03  0.72784122353E+03  0.11103192018E+04  0.59998151511E+03 0.  0.
         23    2    4    4    0    0  0.65886544902E+03  0.18048549211E+03  0.67088149053E+03  0.96184783956E+03  0.91600214880E+02 0.  0.
         23    2    4    4    0    0 -0.88077199210E+02 -0.49036496192E+02  0.56959732997E+02  0.14847136219E+03  0.92936339654E+02 0.  0.
          2    1    3    3  502    0 -0.67077206454E+02  0.13496838992E+02 -0.60512486268E+02  0.91341541934E+02  0.00000000000E+00 0. -1.
         -2    1    3    3    0  502 -0.50371104335E+03 -0.14494583491E+03 -0.46379950756E+03  0.69988862933E+03  0.00000000000E+00 0.  1.
         15    1    5    5    0    0  0.10209139995E+03  0.56806219169E+02  0.14336815870E+03  0.18495185086E+03  0.17770000000E+01 0. -1.
        -15    1    5    5    0    0  0.55677404907E+03  0.12367927294E+03  0.52751333183E+03  0.77689598870E+03  0.17770000000E+01 0.  1.
          3    1    6    6  503    0 -0.30488167267E+02 -0.68962418325E+02  0.39282870293E+02  0.85020511542E+02  0.00000000000E+00 0.  1.
         -3    1    6    6    0  503 -0.57589031943E+02  0.19925922133E+02  0.17676862705E+02  0.63450850649E+02  0.00000000000E+00 0. -1.
<mgrwt>
<rscale>  0 0.70805285E+03</rscale>
<asrwt>0</asrwt>
<pdfrwt beam="1">  1        1 0.16192912E+00 0.70805285E+03</pdfrwt>
<pdfrwt beam="2">  1       -1 0.13061693E+00 0.70805285E+03</pdfrwt>
<totfact> 0.71901009E+00</totfact>
</mgrwt>
</event>
<event>
12    1  0.9321077E-008  0.6685501E+03  0.7818608E-02  0.9772581E-01
         -1   -1    0    0    0  501 -0.00000000000E+00  0.00000000000E+00  0.82070404561E+03  0.82070404561E+03  0.00000000000E+00 0.  1.
          1   -1    0    0  501    0  0.00000000000E+00 -0.00000000000E+00 -0.71163492345E+03  0.71163492345E+03  0.00000000000E+00 0. -1.
         23    2    1    2    0    0 -0.52031568392E+03 -0.37798563945E+03  0.53775508023E+02  0.65107008734E+03  0.86016851834E+02 0.  0.
    5000000    2    1    2    0    0  0.52031568392E+03  0.37798563945E+03  0.55293614144E+02  0.88126888172E+03  0.59997991930E+03 0.  0.
         23    2    4    4    0    0  0.35794735421E+03  0.13169931224E+03  0.29522435088E+03  0.49024146916E+03  0.87796716909E+02 0.  0.
         23    2    4    4    0    0  0.16236832971E+03  0.24628632721E+03 -0.23993073674E+03  0.39102741256E+03  0.91187989766E+02 0.  0.
          1    1    3    3  502    0 -0.22034983325E+03 -0.11063463335E+03  0.84948649985E+01  0.24671083041E+03  0.00000000000E+00 0. -1.
         -1    1    3    3    0  502 -0.29996585067E+03 -0.26735100610E+03  0.45280643024E+02  0.40435925693E+03  0.00000000000E+00 0.  1.
         15    1    5    5    0    0  0.17739460463E+03  0.62885176215E+02  0.90904645261E+02  0.20902201654E+03  0.17770000000E+01 0.  1.
        -15    1    5    5    0    0  0.18055274958E+03  0.68814136026E+02  0.20431970562E+03  0.28121945262E+03  0.17770000000E+01 0. -1.
          2    1    6    6  503    0  0.70918114523E+02  0.18243690271E+03 -0.17100691067E+03  0.25991530531E+03  0.00000000000E+00 0. -1.
         -2    1    6    6    0  503  0.91450215192E+02  0.63849424496E+02 -0.68923826071E+02  0.13111210725E+03  0.00000000000E+00 0.  1.
<mgrwt>
<rscale>  0 0.66855012E+03</rscale>
<asrwt>0</asrwt>
<pdfrwt beam="1">  1        1 0.10948230E+00 0.66855012E+03</pdfrwt>
<pdfrwt beam="2">  1       -1 0.12626216E+00 0.66855012E+03</pdfrwt>
<totfact> 0.15068138E+01</totfact>
</mgrwt>
</event>
<event>
12    1  0.9321077E-008  0.8710756E+03  0.7818608E-02  0.9462479E-01
         -2   -1    0    0    0  501 -0.00000000000E+00  0.00000000000E+00  0.62975754633E+03  0.62975754633E+03  0.00000000000E+00 0.  1.
          2   -1    0    0  501    0  0.00000000000E+00 -0.00000000000E+00 -0.14484566321E+04  0.14484566321E+04  0.00000000000E+00 0. -1.
         23    2    1    2    0    0  0.81805956317E+03 -0.16243113507E+03 -0.59026392040E+03  0.10257561833E+04  0.90326791745E+02 0.  0.
    5000000    2    1    2    0    0 -0.81805956317E+03  0.16243113507E+03 -0.22843516539E+03  0.10524579952E+04  0.59989989519E+03 0.  0.
         23    2    4    4    0    0 -0.22610286493E+03  0.19259262480E+03 -0.31648283021E+03  0.44600625789E+03  0.10269262680E+03 0.  0.
         23    2    4    4    0    0 -0.59195669824E+03 -0.30161489726E+02  0.88047664821E+02  0.60645173727E+03  0.93321328246E+02 0.  0.
          3    1    3    3  502    0  0.20951328451E+03 -0.82233267161E+02 -0.16188375013E+03  0.27724443217E+03  0.00000000000E+00 0. -1.
         -3    1    3    3    0  502  0.60854627866E+03 -0.80197867911E+02 -0.42838017027E+03  0.74851175113E+03  0.00000000000E+00 0.  1.
         15    1    5    5    0    0 -0.23965900543E+02  0.54179235749E+02 -0.11272014591E+03  0.12735282878E+03  0.17770000000E+01 0.  1.
        -15    1    5    5    0    0 -0.20213696439E+03  0.13841338905E+03 -0.20376268430E+03  0.31865342911E+03  0.17770000000E+01 0. -1.
          2    1    6    6  503    0 -0.38969911635E+01 -0.98556482346E+01  0.64608650677E+01  0.12412216550E+02  0.00000000000E+00 0.  1.
         -2    1    6    6    0  503 -0.58805970708E+03 -0.20305841492E+02  0.81586799753E+02  0.59403952072E+03  0.00000000000E+00 0. -1.
<mgrwt>
<rscale>  0 0.87107556E+03</rscale>
<asrwt>0</asrwt>
<pdfrwt beam="1">  1        2 0.22283948E+00 0.87107556E+03</pdfrwt>
<pdfrwt beam="2">  1       -2 0.96885778E-01 0.87107556E+03</pdfrwt>
<totfact> 0.12190054E+01</totfact>
</mgrwt>
</event>
<event>
12    1  0.9321077E-008  0.1461565E+04  0.7818608E-02  0.8910422E-01
          2   -1    0    0  501    0  0.00000000000E+00  0.00000000000E+00  0.26719556497E+04  0.26719556497E+04  0.00000000000E+00 0. -1.
         -2   -1    0    0    0  501 -0.00000000000E+00 -0.00000000000E+00 -0.11004544221E+04  0.11004544221E+04  0.00000000000E+00 0.  1.
         23    2    1    2    0    0  0.13983566911E+04 -0.39665618973E+03 -0.12196939537E+03  0.14614343160E+04  0.90422110551E+02 0.  0.
    5000000    2    1    2    0    0 -0.13983566911E+04  0.39665618973E+03  0.16934706229E+04  0.23109757558E+04  0.60002385344E+03 0.  0.
         23    2    4    4    0    0 -0.12656905873E+04  0.35877341974E+03  0.11725529864E+04  0.17646914845E+04  0.92544584833E+02 0.  0.
         23    2    4    4    0    0 -0.13266610382E+03  0.37882769996E+02  0.52091763658E+03  0.54628427130E+03  0.89643302043E+02 0.  0.
          2    1    3    3  502    0  0.11735037136E+04 -0.29773889177E+03 -0.10072991375E+03  0.12148686879E+04  0.00000000000E+00 0. -1.
         -2    1    3    3    0  502  0.22485297757E+03 -0.98917297963E+02 -0.21239481625E+02  0.24656562805E+03  0.00000000000E+00 0.  1.
         15    1    5    5    0    0 -0.51772912931E+03  0.99748446943E+02  0.47211975342E+03  0.70773824490E+03  0.17770000000E+01 0. -1.
        -15    1    5    5    0    0 -0.74796145799E+03  0.25902497279E+03  0.70043323294E+03  0.10569532396E+04  0.17770000000E+01 0.  1.
          4    1    6    6  503    0 -0.81993035188E+02 -0.42398869118E+01  0.40230210319E+03  0.41059446744E+03  0.00000000000E+00 0. -1.
         -4    1    6    6    0  503 -0.50673068634E+02  0.42122656908E+02  0.11861553339E+03  0.13568980386E+03  0.00000000000E+00 0.  1.
<mgrwt>
<rscale>  0 0.14615651E+04</rscale>
<asrwt>0</asrwt>
<pdfrwt beam="1">  1        2 0.41107010E+00 0.14615651E+04</pdfrwt>
<pdfrwt beam="2">  1       -2 0.16930068E+00 0.14615651E+04</pdfrwt>
<totfact> 0.56353817E-01</totfact>
</mgrwt>
</event>
<event>
12    1  0.9321077E-008  0.6527946E+03  0.7818608E-02  0.9801549E-01
         -2   -1    0    0    0  501 -0.00000000000E+00  0.00000000000E+00  0.19060192098E+04  0.19060192098E+04  0.00000000000E+00 0.  1.
          2   -1    0    0  501    0  0.00000000000E+00 -0.00000000000E+00 -0.43830219351E+03  0.43830219351E+03  0.00000000000E+00 0. -1.
         23    2    1    2    0    0  0.54505020518E+03 -0.37505938063E+02  0.14284329135E+04  0.15320879583E+04  0.91577846240E+02 0.  0.
    5000000    2    1    2    0    0 -0.54505020518E+03  0.37505938063E+02  0.39284102793E+02  0.81223344505E+03  0.59974453475E+03 0.  0.
         23    2    4    4    0    0 -0.22419693020E+03  0.27281444572E+03  0.14374709890E+03  0.39161918826E+03  0.89500697543E+02 0.  0.
         23    2    4    4    0    0 -0.32085327498E+03 -0.23530850766E+03 -0.10446299611E+03  0.42061425679E+03  0.87675068416E+02 0.  0.
          2    1    3    3  502    0  0.33541696660E+03 -0.42366998004E+02  0.76681891048E+03  0.83803982332E+03  0.00000000000E+00 0. -1.
         -2    1    3    3    0  502  0.20963323858E+03  0.48610599402E+01  0.66161400301E+03  0.69404813493E+03  0.00000000000E+00 0.  1.
         15    1    5    5    0    0 -0.45959721388E+02  0.52679856893E+02  0.69951767749E+02  0.98913451322E+02  0.17770000000E+01 0.  1.
        -15    1    5    5    0    0 -0.17823720882E+03  0.22013458883E+03  0.73795331156E+02  0.29270573693E+03  0.17770000000E+01 0. -1.
          1    1    6    6  503    0 -0.65934665888E+02 -0.88836273619E+02 -0.50872154305E+02  0.12176715386E+03  0.00000000000E+00 0. -1.
         -1    1    6    6    0  503 -0.25491860909E+03 -0.14647223404E+03 -0.53590841807E+02  0.29884710293E+03  0.00000000000E+00 0.  1.
<mgrwt>
<rscale>  0 0.65279460E+03</rscale>
<asrwt>0</asrwt>
<pdfrwt beam="1">  1        2 0.67431108E-01 0.65279460E+03</pdfrwt>
<pdfrwt beam="2">  1       -2 0.29323372E+00 0.65279460E+03</pdfrwt>
<totfact> 0.26449855E+00</totfact>
</mgrwt>
</event>
<event>
12    1  0.9321077E-008  0.7777834E+03  0.7818608E-02  0.9592743E-01
          2   -1    0    0  501    0  0.00000000000E+00  0.00000000000E+00  0.17854278071E+04  0.17854278071E+04  0.00000000000E+00 0. -1.
         -2   -1    0    0    0  501 -0.00000000000E+00 -0.00000000000E+00 -0.41091149275E+03  0.41091149275E+03  0.00000000000E+00 0.  1.
         23    2    1    2    0    0  0.68037176371E+03  0.90383344974E+02  0.98815054532E+03  0.12064128635E+04  0.88969720468E+02 0.  0.
    5000000    2    1    2    0    0 -0.68037176371E+03 -0.90383344974E+02  0.38636576905E+03  0.98992643634E+03  0.59966737110E+03 0.  0.
         23    2    4    4    0    0  0.71985866498E+02  0.16030743994E+01  0.15109643651E+03  0.19038245754E+03  0.90723823715E+02 0.  0.
         23    2    4    4    0    0 -0.75235763021E+03 -0.91986419373E+02  0.23526933254E+03  0.79954397880E+03  0.97033036225E+02 0.  0.
          2    1    3    3  502    0  0.61244025564E+03  0.10407430834E+03  0.91172006824E+03  0.11032443117E+04  0.00000000000E+00 0. -1.
         -2    1    3    3    0  502  0.67931508075E+02 -0.13690963367E+02  0.76430477081E+02  0.10316855187E+03  0.00000000000E+00 0.  1.
         15    1    5    5    0    0 -0.82885620246E+01  0.18340965202E+02  0.77810197590E+02  0.80390769638E+02  0.17770000000E+01 0.  1.
        -15    1    5    5    0    0  0.80274428522E+02 -0.16737890802E+02  0.73286238917E+02  0.10999168790E+03  0.17770000000E+01 0. -1.
          4    1    6    6  503    0 -0.27473172347E+03 -0.75484603253E+02  0.11071822477E+03  0.30566970819E+03  0.00000000000E+00 0. -1.
         -4    1    6    6    0  503 -0.47762590674E+03 -0.16501816120E+02  0.12455110777E+03  0.49387427061E+03  0.00000000000E+00 0.  1.
<mgrwt>
<rscale>  0 0.77778342E+03</rscale>
<asrwt>0</asrwt>
<pdfrwt beam="1">  1        2 0.27468120E+00 0.77778342E+03</pdfrwt>
<pdfrwt beam="2">  1       -2 0.63217154E-01 0.77778342E+03</pdfrwt>
<totfact> 0.20896482E+01</totfact>
</mgrwt>
</event>
<event>
12    1  0.9321077E-008  0.8406053E+03  0.7818608E-02  0.9503034E-01
         -2   -1    0    0    0  501 -0.00000000000E+00  0.00000000000E+00  0.41427037352E+03  0.41427037352E+03  0.00000000000E+00 0.  1.
          2   -1    0    0  501    0  0.00000000000E+00 -0.00000000000E+00 -0.19054141365E+04  0.19054141365E+04  0.00000000000E+00 0. -1.
         23    2    1    2    0    0 -0.45523903471E+03 -0.62006961408E+03 -0.86230217879E+03  0.11592363644E+04  0.92385041701E+02 0.  0.
    5000000    2    1    2    0    0  0.45523903471E+03  0.62006961408E+03 -0.62884158419E+03  0.11604481456E+04  0.59955754994E+03 0.  0.
         23    2    4    4    0    0  0.28948873990E+02 -0.77994030890E+02 -0.19044276373E+03  0.22739737899E+03  0.92303930348E+02 0.  0.
         23    2    4    4    0    0  0.42629016072E+03  0.69806364497E+03 -0.43839882046E+03  0.93305076665E+03  0.96819697409E+02 0.  0.
          2    1    3    3  502    0 -0.21353646759E+03 -0.21508567870E+03 -0.34418469040E+03  0.45860960880E+03  0.00000000000E+00 0. -1.
         -2    1    3    3    0  502 -0.24170256712E+03 -0.40498393538E+03 -0.51811748838E+03  0.70062675558E+03  0.00000000000E+00 0.  1.
         15    1    5    5    0    0  0.28939485657E+02 -0.73573666189E+02 -0.66392062334E+02  0.10325522678E+03  0.17770000000E+01 0. -1.
        -15    1    5    5    0    0  0.93883332489E-02 -0.44203647011E+01 -0.12405070139E+03  0.12414215222E+03  0.17770000000E+01 0.  1.
          2    1    6    6  503    0  0.37758620152E+03  0.66178031731E+03 -0.41757810567E+03  0.86884751384E+03  0.00000000000E+00 0.  1.
         -2    1    6    6    0  503  0.48703959197E+02  0.36283327659E+02 -0.20820714787E+02  0.64203252812E+02  0.00000000000E+00 0. -1.
<mgrwt>
<rscale>  0 0.84060527E+03</rscale>
<asrwt>0</asrwt>
<pdfrwt beam="1">  1        2 0.29314063E+00 0.84060527E+03</pdfrwt>
<pdfrwt beam="2">  1       -2 0.63733904E-01 0.84060527E+03</pdfrwt>
<totfact> 0.17520572E+01</totfact>
</mgrwt>
</event>
<event>
12    1  0.9321077E-008  0.7687358E+03  0.7818608E-02  0.9606407E-01
         -1   -1    0    0    0  501 -0.00000000000E+00  0.00000000000E+00  0.47052729809E+03  0.47052729809E+03  0.00000000000E+00 0.  1.
          1   -1    0    0  501    0  0.00000000000E+00 -0.00000000000E+00 -0.15363136701E+04  0.15363136701E+04  0.00000000000E+00 0. -1.
         23    2    1    2    0    0 -0.52503121720E+03  0.40627458593E+03 -0.85697141737E+03  0.10878338740E+04  0.90915945240E+02 0.  0.
    5000000    2    1    2    0    0  0.52503121720E+03 -0.40627458593E+03 -0.20881495468E+03  0.91900709419E+03  0.60021124254E+03 0.  0.
         23    2    4    4    0    0  0.57048828884E+03 -0.13568451675E+03 -0.66766199552E+02  0.59760417030E+03  0.93839454203E+02 0.  0.
         23    2    4    4    0    0 -0.45457071639E+02 -0.27059006918E+03 -0.14204875513E+03  0.32140292389E+03  0.88524910366E+02 0.  0.
          4    1    3    3  502    0 -0.27170994985E+03  0.15291539430E+03 -0.39911965288E+03  0.50646412704E+03  0.00000000000E+00 0. -1.
         -4    1    3    3    0  502 -0.25332126736E+03  0.25335919163E+03 -0.45785176448E+03  0.58136974699E+03  0.00000000000E+00 0.  1.
         15    1    5    5    0    0  0.49266625354E+03 -0.14652357981E+03 -0.44508506732E+02  0.51591991793E+03  0.17770000000E+01 0.  1.
        -15    1    5    5    0    0  0.77822035305E+02  0.10839063056E+02 -0.22257692820E+02  0.81684252372E+02  0.17770000000E+01 0. -1.
          3    1    6    6  503    0 -0.43213893336E+02 -0.22132959961E+03 -0.15085079891E+03  0.27131198973E+03  0.00000000000E+00 0. -1.
         -3    1    6    6    0  503 -0.22431783030E+01 -0.49260469564E+02  0.88020437773E+01  0.50090934162E+02  0.00000000000E+00 0.  1.
<mgrwt>
<rscale>  0 0.76873578E+03</rscale>
<asrwt>0</asrwt>
<pdfrwt beam="1">  1        1 0.23635595E+00 0.76873578E+03</pdfrwt>
<pdfrwt beam="2">  1       -1 0.72388815E-01 0.76873578E+03</pdfrwt>
<totfact> 0.12301246E+01</totfact>
</mgrwt>
</event>
<event>
12    1  0.9321077E-008  0.6218804E+03  0.7818608E-02  0.9861023E-01
         -2   -1    0    0    0  501 -0.00000000000E+00  0.00000000000E+00  0.28023662924E+03  0.28023662924E+03  0.00000000000E+00 0. -1.
          2   -1    0    0  501    0  0.00000000000E+00 -0.00000000000E+00 -0.21859511160E+04  0.21859511160E+04  0.00000000000E+00 0.  1.
         23    2    1    2    0    0 -0.50596935805E+03  0.29995797269E+03 -0.13024472556E+04  0.14319595229E+04  0.90329646265E+02 0.  0.
    5000000    2    1    2    0    0  0.50596935805E+03 -0.29995797269E+03 -0.60326723119E+03  0.10342282224E+04  0.59976402611E+03 0.  0.
         23    2    4    4    0    0  0.44931709214E+03 -0.29691830776E+03 -0.70225984383E+03  0.88971870146E+03  0.91564997143E+02 0.  0.
         23    2    4    4    0    0  0.56652265916E+02 -0.30396649232E+01  0.98992612632E+02  0.14450952090E+03  0.88683400239E+02 0.  0.
          2    1    3    3  502    0 -0.11708881399E+03  0.10964713270E+03 -0.30531799473E+03  0.34489326172E+03  0.00000000000E+00 0. -1.
         -2    1    3    3    0  502 -0.38888054406E+03  0.19031083999E+03 -0.99712926088E+03  0.10870662612E+04  0.00000000000E+00 0.  1.
         15    1    5    5    0    0  0.21157077809E+03 -0.87364150073E+02 -0.31262576692E+03  0.38746963330E+03  0.17770000000E+01 0. -1.
        -15    1    5    5    0    0  0.23774631405E+03 -0.20955415769E+03 -0.38963407691E+03  0.50224906816E+03  0.17770000000E+01 0.  1.
          3    1    6    6  503    0  0.73501529539E+02 -0.24325576724E+02  0.80325242325E+02  0.11156322460E+03  0.00000000000E+00 0. -1.
         -3    1    6    6    0  503 -0.16849263622E+02  0.21285911801E+02  0.18667370306E+02  0.32946296301E+02  0.00000000000E+00 0.  1.
<mgrwt>
<rscale>  0 0.62188043E+03</rscale>
<asrwt>0</asrwt>
<pdfrwt beam="1">  1        2 0.33630016E+00 0.62188043E+03</pdfrwt>
<pdfrwt beam="2">  1       -2 0.43113329E-01 0.62188043E+03</pdfrwt>
<totfact> 0.28353910E+01</totfact>
</mgrwt>
</event>
<event>
12    1  0.9321077E-008  0.7729051E+03  0.7818608E-02  0.9600086E-01
          2   -1    0    0  501    0  0.00000000000E+00  0.00000000000E+00  0.19067650904E+04  0.19067650904E+04  0.00000000000E+00 0. -1.
         -2   -1    0    0    0  501 -0.00000000000E+00 -0.00000000000E+00 -0.38843550000E+03  0.38843550000E+03  0.00000000000E+00 0.  1.
         23    2    1    2    0    0  0.14275343775E+03  0.73156596256E+03  0.52342951420E+03  0.91483489682E+03  0.85890223771E+02 0.  0.
    5000000    2    1    2    0    0 -0.14275343775E+03 -0.73156596256E+03  0.99490007622E+03  0.13803656936E+04  0.60001332053E+03 0.  0.
         23    2    4    4    0    0  0.76949671629E+02 -0.26595539226E+03  0.43602146745E+02  0.29488487848E+03  0.91664724506E+02 0.  0.
         23    2    4    4    0    0 -0.21970310938E+03 -0.46561057030E+03  0.95129792947E+03  0.10854808151E+04  0.90764474925E+02 0.  0.
          1    1    3    3  502    0 -0.27480705371E+01  0.17503512283E+03  0.12106320520E+03  0.21284065816E+03  0.00000000000E+00 0. -1.
         -1    1    3    3    0  502  0.14550150829E+03  0.55653083974E+03  0.40236630900E+03  0.70199423866E+03  0.00000000000E+00 0.  1.
         15    1    5    5    0    0  0.17307648031E+00 -0.24402924096E+02 -0.22175797674E+02  0.33022059163E+02  0.17770000000E+01 0.  1.
        -15    1    5    5    0    0  0.76776595149E+02 -0.24155246817E+03  0.65777944419E+02  0.26186281932E+03  0.17770000000E+01 0. -1.
          2    1    6    6  503    0 -0.18521511264E+02 -0.85833329704E+02  0.10985286445E+03  0.14063448615E+03  0.00000000000E+00 0. -1.
         -2    1    6    6    0  503 -0.20118159812E+03 -0.37977724060E+03  0.84144506502E+03  0.94484632896E+03  0.00000000000E+00 0.  1.
<mgrwt>
<rscale>  0 0.77290509E+03</rscale>
<asrwt>0</asrwt>
<pdfrwt beam="1">  1        2 0.29334847E+00 0.77290509E+03</pdfrwt>
<pdfrwt beam="2">  1       -2 0.59759309E-01 0.77290509E+03</pdfrwt>
<totfact> 0.20230819E+01</totfact>
</mgrwt>
</event>
<event>
12    1  0.9321077E-008  0.1038007E+04  0.7818608E-02  0.9267814E-01
          1   -1    0    0  501    0  0.00000000000E+00  0.00000000000E+00  0.14161132782E+04  0.14161132782E+04  0.00000000000E+00 0. -1.
         -1   -1    0    0    0  501 -0.00000000000E+00 -0.00000000000E+00 -0.81785784435E+03  0.81785784435E+03  0.00000000000E+00 0.  1.
         23    2    1    2    0    0  0.86334954606E+03 -0.45660783732E+03  0.10614040758E+03  0.98653467282E+03  0.90120579079E+02 0.  0.
    5000000    2    1    2    0    0 -0.86334954606E+03  0.45660783732E+03  0.49211502627E+03  0.12474364497E+04  0.60004778248E+03 0.  0.
         23    2    4    4    0    0 -0.62687879505E+03  0.54488876358E+03  0.51211484349E+03  0.97993909350E+03  0.90212114951E+02 0.  0.
         23    2    4    4    0    0 -0.23647075101E+03 -0.88280926258E+02 -0.19999817224E+02  0.26749735624E+03  0.86272271794E+02 0.  0.
          4    1    3    3  502    0  0.54502425835E+03 -0.32323156881E+03  0.38511276182E+02  0.63483321247E+03  0.00000000000E+00 0. -1.
         -4    1    3    3    0  502  0.31832528771E+03 -0.13337626851E+03  0.67629131397E+02  0.35170146035E+03  0.00000000000E+00 0.  1.
         15    1    5    5    0    0 -0.51984340524E+03  0.43855241450E+03  0.45652919329E+03  0.81913823515E+03  0.17770000000E+01 0. -1.
        -15    1    5    5    0    0 -0.10703538981E+03  0.10633634908E+03  0.55585650204E+02  0.16080085834E+03  0.17770000000E+01 0.  1.
          2    1    6    6  503    0 -0.21358372580E+03 -0.46537458630E+02 -0.22971854965E+02  0.21979865583E+03  0.00000000000E+00 0.  1.
         -2    1    6    6    0  503 -0.22887025210E+02 -0.41743467627E+02  0.29720377403E+01  0.47698700410E+02  0.00000000000E+00 0. -1.
<mgrwt>
<rscale>  0 0.10380074E+04</rscale>
<asrwt>0</asrwt>
<pdfrwt beam="1">  1        1 0.21786358E+00 0.10380074E+04</pdfrwt>
<pdfrwt beam="2">  1       -1 0.12582428E+00 0.10380074E+04</pdfrwt>
<totfact> 0.41210419E+00</totfact>
</mgrwt>
</event>
<event>
12    1  0.9321077E-008  0.1361901E+04  0.7818608E-02  0.8981868E-01
         -1   -1    0    0    0  501 -0.00000000000E+00  0.00000000000E+00  0.14401934111E+04  0.14401934111E+04  0.00000000000E+00 0.  1.
          1   -1    0    0  501    0  0.00000000000E+00 -0.00000000000E+00 -0.13453483303E+04  0.13453483303E+04  0.00000000000E+00 0. -1.
         23    2    1    2    0    0  0.13101767103E+04  0.80569828166E+01 -0.15667125997E+03  0.13226687896E+04  0.90988548764E+02 0.  0.
    5000000    2    1    2    0    0 -0.13101767103E+04 -0.80569828166E+01  0.25151634085E+03  0.14628729518E+04  0.60009072316E+03 0.  0.
         23    2    4    4    0    0 -0.21076917062E+03 -0.20593210361E+03 -0.18619179428E+02  0.31006508533E+03  0.94667886421E+02 0.  0.
         23    2    4    4    0    0 -0.10994075397E+04  0.19787512079E+03  0.27013552027E+03  0.11528078664E+04  0.90229018558E+02 0.  0.
          1    1    3    3  502    0  0.19682968853E+03 -0.18786078428E+01  0.88689616692E+01  0.19703835650E+03  0.00000000000E+00 0. -1.
         -1    1    3    3    0  502  0.11133470218E+04  0.99355906594E+01 -0.16554022164E+03  0.11256304331E+04  0.00000000000E+00 0.  1.
         15    1    5    5    0    0 -0.39005324709E+02 -0.29465485125E+02  0.32264087171E+02  0.58598286829E+02  0.17770000000E+01 0.  1.
        -15    1    5    5    0    0 -0.17176384591E+03 -0.17646661848E+03 -0.50883266599E+02  0.25146679850E+03  0.17770000000E+01 0. -1.
          4    1    6    6  503    0 -0.10209211608E+04  0.19779014575E+03  0.23164823142E+03  0.10653928202E+04  0.00000000000E+00 0. -1.
         -4    1    6    6    0  503 -0.78486378949E+02  0.84975038802E-01  0.38487288857E+02  0.87415046215E+02  0.00000000000E+00 0.  1.
<mgrwt>
<rscale>  0 0.13619009E+04</rscale>
<asrwt>0</asrwt>
<pdfrwt beam="1">  1        1 0.20697667E+00 0.13619009E+04</pdfrwt>
<pdfrwt beam="2">  1       -1 0.22156822E+00 0.13619009E+04</pdfrwt>
<totfact> 0.86751358E-01</totfact>
</mgrwt>
</event>
<event>
12    1  0.9321077E-008  0.7310532E+03  0.7818608E-02  0.9665553E-01
         -2   -1    0    0    0  501 -0.00000000000E+00  0.00000000000E+00  0.40428973736E+03  0.40428973736E+03  0.00000000000E+00 0.  1.
          2   -1    0    0  501    0  0.00000000000E+00 -0.00000000000E+00 -0.16978435720E+04  0.16978435720E+04  0.00000000000E+00 0. -1.
         23    2    1    2    0    0 -0.69526135349E+03  0.16279365903E+03 -0.49327153321E+03  0.87342912757E+03  0.98343837247E+02 0.  0.
    5000000    2    1    2    0    0  0.69526135349E+03 -0.16279365903E+03 -0.80028230144E+03  0.12287041818E+04  0.59947650439E+03 0.  0.
         23    2    4    4    0    0  0.29172879694E+03 -0.14722985748E+03 -0.73533019014E+03  0.81006695703E+03  0.93357722977E+02 0.  0.
         23    2    4    4    0    0  0.40353255656E+03 -0.15563801557E+02 -0.64952111302E+02  0.41863722479E+03  0.89205342299E+02 0.  0.
          4    1    3    3  502    0 -0.26299916461E+03  0.37663037351E+02 -0.23421925321E+03  0.35418317795E+03  0.00000000000E+00 0. -1.
         -4    1    3    3    0  502 -0.43226218888E+03  0.12513062168E+03 -0.25905228000E+03  0.51924594961E+03  0.00000000000E+00 0.  1.
         15    1    5    5    0    0  0.90881615255E+02 -0.53214551619E+01 -0.24826071495E+03  0.26443208238E+03  0.17770000000E+01 0.  1.
        -15    1    5    5    0    0  0.20084718168E+03 -0.14190840232E+03 -0.48706947519E+03  0.54563487465E+03  0.17770000000E+01 0. -1.
          1    1    6    6  503    0  0.75294707124E+02  0.23502771336E+02  0.10520729180E+02  0.79576120311E+02  0.00000000000E+00 0. -1.
         -1    1    6    6    0  503  0.32823784943E+03 -0.39066572892E+02 -0.75472840482E+02  0.33906110447E+03  0.00000000000E+00 0.  1.
<mgrwt>
<rscale>  0 0.73105325E+03</rscale>
<asrwt>0</asrwt>
<pdfrwt beam="1">  1        2 0.26120670E+00 0.73105325E+03</pdfrwt>
<pdfrwt beam="2">  1       -2 0.62198421E-01 0.73105325E+03</pdfrwt>
<totfact> 0.24296712E+01</totfact>
</mgrwt>
</event>
<event>
12    1  0.9321077E-008  0.5546520E+03  0.7818608E-02  0.1000423E+00
         -1   -1    0    0    0  501 -0.00000000000E+00  0.00000000000E+00  0.82909976515E+03  0.82909976515E+03  0.00000000000E+00 0.  1.
          1   -1    0    0  501    0  0.00000000000E+00 -0.00000000000E+00 -0.55687050720E+03  0.55687050720E+03  0.00000000000E+00 0. -1.
         23    2    1    2    0    0  0.42186792070E+03 -0.14620782825E+03  0.42492744795E+03  0.62261795173E+03  0.87980146879E+02 0.  0.
    5000000    2    1    2    0    0 -0.42186792070E+03  0.14620782825E+03 -0.15269819000E+03  0.76335232061E+03  0.60003396287E+03 0.  0.
         23    2    4    4    0    0 -0.48788815298E+03  0.21042138526E+03 -0.25581405883E+03  0.59683234467E+03  0.91956542796E+02 0.  0.
         23    2    4    4    0    0  0.66020232280E+02 -0.64213557017E+02  0.10311586883E+03  0.16651997594E+03  0.92811464849E+02 0.  0.
          1    1    3    3  502    0  0.20643757536E+03 -0.39118656403E+02  0.15538069079E+03  0.26132336457E+03  0.00000000000E+00 0. -1.
         -1    1    3    3    0  502  0.21543034534E+03 -0.10708917184E+03  0.26954675716E+03  0.36129458717E+03  0.00000000000E+00 0.  1.
         15    1    5    5    0    0 -0.36220394849E+03  0.13406691339E+03 -0.14443747447E+03  0.41234812881E+03  0.17770000000E+01 0. -1.
        -15    1    5    5    0    0 -0.12568420448E+03  0.76354471868E+02 -0.11137658436E+03  0.18448421587E+03  0.17770000000E+01 0.  1.
          1    1    6    6  503    0  0.10893092412E+02  0.21099331066E+02  0.41227843039E+02  0.47577056187E+02  0.00000000000E+00 0. -1.
         -1    1    6    6    0  503  0.55127139867E+02 -0.85312888083E+02  0.61888025787E+02  0.11894291975E+03  0.00000000000E+00 0.  1.
<mgrwt>
<rscale>  0 0.55465195E+03</rscale>
<asrwt>0</asrwt>
<pdfrwt beam="1">  1        1 0.85672385E-01 0.55465195E+03</pdfrwt>
<pdfrwt beam="2">  1       -1 0.12755381E+00 0.55465195E+03</pdfrwt>
<totfact> 0.21319638E+01</totfact>
</mgrwt>
</event>
<event>
12    1  0.9321077E-008  0.5625810E+03  0.7818608E-02  0.9986231E-01
          1   -1    0    0  501    0  0.00000000000E+00  0.00000000000E+00  0.10804733601E+04  0.10804733601E+04  0.00000000000E+00 0. -1.
         -1   -1    0    0    0  501 -0.00000000000E+00 -0.00000000000E+00 -0.34631997122E+03  0.34631997122E+03  0.00000000000E+00 0.  1.
         23    2    1    2    0    0 -0.10100989687E+03  0.44420953184E+03  0.34087061556E+03  0.57691071070E+03  0.95436283064E+02 0.  0.
    5000000    2    1    2    0    0  0.10100989687E+03 -0.44420953184E+03  0.39328277330E+03  0.84988262059E+03  0.60008667837E+03 0.  0.
         23    2    4    4    0    0  0.25426774168E+03 -0.40777082469E+03  0.91387791276E+02  0.49727586118E+03  0.89456267475E+02 0.  0.
         23    2    4    4    0    0 -0.15325784481E+03 -0.36438707150E+02  0.30189498202E+03  0.35260675941E+03  0.91516120078E+02 0.  0.
          3    1    3    3  502    0 -0.10416643846E+03  0.28899893232E+03  0.25661319369E+03  0.40027660556E+03  0.00000000000E+00 0. -1.
         -3    1    3    3    0  502  0.31565415921E+01  0.15521059952E+03  0.84257421869E+02  0.17663410514E+03  0.00000000000E+00 0.  1.
         15    1    5    5    0    0  0.13360825692E+03 -0.19914916634E+03  0.90317631636E+02  0.25626546605E+03  0.17770000000E+01 0.  1.
        -15    1    5    5    0    0  0.12065948476E+03 -0.20862165835E+03  0.10701596402E+01  0.24101039514E+03  0.17770000000E+01 0. -1.
          2    1    6    6  503    0 -0.16332778816E+03 -0.22761813275E+02  0.27914908656E+03  0.32421949209E+03  0.00000000000E+00 0. -1.
         -2    1    6    6    0  503  0.10069943344E+02 -0.13676893875E+02  0.22745895465E+02  0.28387267313E+02  0.00000000000E+00 0.  1.
<mgrwt>
<rscale>  0 0.56258102E+03</rscale>
<asrwt>0</asrwt>
<pdfrwt beam="1">  1        1 0.16622667E+00 0.56258102E+03</pdfrwt>
<pdfrwt beam="2">  1       -1 0.53279996E-01 0.56258102E+03</pdfrwt>
<totfact> 0.48826948E+01</totfact>
</mgrwt>
</event>
<event>
12    1  0.9321077E-008  0.8597853E+03  0.7818608E-02  0.9477297E-01
          1   -1    0    0  501    0  0.00000000000E+00  0.00000000000E+00  0.92683724723E+03  0.92683724723E+03  0.00000000000E+00 0. -1.
         -1   -1    0    0    0  501 -0.00000000000E+00 -0.00000000000E+00 -0.87605892832E+03  0.87605892832E+03  0.00000000000E+00 0.  1.
         23    2    1    2    0    0 -0.41537263452E+03  0.67063458197E+03 -0.10316853494E+03  0.79987462922E+03  0.82888526496E+02 0.  0.
    5000000    2    1    2    0    0  0.41537263452E+03 -0.67063458197E+03  0.15394685386E+03  0.10030215463E+04  0.60005618116E+03 0.  0.
         23    2    4    4    0    0  0.51992975246E+03 -0.47317945864E+03  0.23965903455E+03  0.74822031388E+03  0.90396004818E+02 0.  0.
         23    2    4    4    0    0 -0.10455711794E+03 -0.19745512333E+03 -0.85712180692E+02  0.25480123246E+03  0.87500705710E+02 0.  0.
          3    1    3    3  502    0 -0.16258695207E+03  0.25539685823E+03 -0.80209203301E+02  0.31320215273E+03  0.00000000000E+00 0. -1.
         -3    1    3    3    0  502 -0.25278568245E+03  0.41523772374E+03 -0.22959331644E+02  0.48667247650E+03  0.00000000000E+00 0.  1.
         15    1    5    5    0    0  0.19408724505E+03 -0.19789951911E+03  0.13830019283E+03  0.30978085709E+03  0.17770000000E+01 0.  1.
        -15    1    5    5    0    0  0.32584250741E+03 -0.27527993953E+03  0.10135884172E+03  0.43843945679E+03  0.17770000000E+01 0. -1.
          1    1    6    6  503    0 -0.10556859283E+03 -0.17450799217E+03 -0.10061294143E+03  0.22742192310E+03  0.00000000000E+00 0. -1.
         -1    1    6    6    0  503  0.10114748948E+01 -0.22947131168E+02  0.14900760738E+02  0.27379309358E+02  0.00000000000E+00 0.  1.
<mgrwt>
<rscale>  0 0.85978528E+03</rscale>
<asrwt>0</asrwt>
<pdfrwt beam="1">  1        1 0.14259035E+00 0.85978528E+03</pdfrwt>
<pdfrwt beam="2">  1       -1 0.13477830E+00 0.85978528E+03</pdfrwt>
<totfact> 0.81498567E+00</totfact>
</mgrwt>
</event>
<event>
12    1  0.9321077E-008  0.4188689E+03  0.7818608E-02  0.1037435E+00
         -1   -1    0    0    0  501 -0.00000000000E+00  0.00000000000E+00  0.87312581698E+02  0.87312581698E+02  0.00000000000E+00 0.  1.
          1   -1    0    0  501    0  0.00000000000E+00 -0.00000000000E+00 -0.21511754762E+04  0.21511754762E+04  0.00000000000E+00 0. -1.
         23    2    1    2    0    0  0.13095764546E+03  0.16539244851E+03 -0.52271775250E+03  0.57127402664E+03  0.92820244615E+02 0.  0.
    5000000    2    1    2    0    0 -0.13095764546E+03 -0.16539244851E+03 -0.15411451420E+04  0.16672140312E+04  0.59997475810E+03 0.  0.
         23    2    4    4    0    0  0.89325603519E+02  0.17236238706E+03 -0.64873911405E+03  0.68363464077E+03  0.93840439281E+02 0.  0.
         23    2    4    4    0    0 -0.22028324898E+03 -0.33775483556E+03 -0.89240602792E+03  0.98357939045E+03  0.91852381183E+02 0.  0.
          4    1    3    3  502    0  0.10605122754E+02  0.29895559413E+02 -0.18786409907E+03  0.19052331306E+03  0.00000000000E+00 0. -1.
         -4    1    3    3    0  502  0.12035252271E+03  0.13549688910E+03 -0.33485365343E+03  0.38075071358E+03  0.00000000000E+00 0.  1.
         15    1    5    5    0    0  0.43806558878E+02  0.15758347199E+03 -0.55144611180E+03  0.57519347805E+03  0.17770000000E+01 0. -1.
        -15    1    5    5    0    0  0.45519044641E+02  0.14778915068E+02 -0.97293002253E+02  0.10844116272E+03  0.17770000000E+01 0.  1.
          4    1    6    6  503    0 -0.15049938007E+03 -0.14770819820E+03 -0.43845951278E+03  0.48653316389E+03  0.00000000000E+00 0. -1.
         -4    1    6    6    0  503 -0.69783868909E+02 -0.19004663737E+03 -0.45394651514E+03  0.49704622657E+03  0.00000000000E+00 0.  1.
<mgrwt>
<rscale>  0 0.41886888E+03</rscale>
<asrwt>0</asrwt>
<pdfrwt beam="1">  1        1 0.33095007E+00 0.41886888E+03</pdfrwt>
<pdfrwt beam="2">  1       -1 0.13432705E-01 0.41886888E+03</pdfrwt>
<totfact> 0.10007889E+02</totfact>
</mgrwt>
</event>
<event>
12    1  0.9321077E-008  0.8679486E+03  0.7818608E-02  0.9466559E-01
         -1   -1    0    0    0  501 -0.00000000000E+00  0.00000000000E+00  0.14211826738E+04  0.14211826738E+04  0.00000000000E+00 0.  1.
          1   -1    0    0  501    0  0.00000000000E+00 -0.00000000000E+00 -0.15713663206E+04  0.15713663206E+04  0.00000000000E+00 0. -1.
         23    2    1    2    0    0 -0.69564473125E+03 -0.46028717559E+03 -0.12383333821E+04  0.14959300443E+04  0.92473001864E+02 0.  0.
    5000000    2    1    2    0    0  0.69564473125E+03  0.46028717559E+03  0.10881497353E+04  0.14966189501E+04  0.60001046603E+03 0.  0.
         23    2    4    4    0    0  0.66564555674E+03  0.43039999928E+03  0.11334542108E+04  0.13864206959E+04  0.95476339674E+02 0.  0.
         23    2    4    4    0    0  0.29999174507E+02  0.29887176319E+02 -0.45304475509E+02  0.11019825424E+03  0.91093171840E+02 0.  0.
          3    1    3    3  502    0 -0.23120650740E+03 -0.11098413396E+03 -0.42334800105E+03  0.49497217806E+03  0.00000000000E+00 0. -1.
         -3    1    3    3    0  502 -0.46443822385E+03 -0.34930304163E+03 -0.81498538109E+03  0.10009578663E+04  0.00000000000E+00 0.  1.
         15    1    5    5    0    0  0.47152716824E+03  0.35405956571E+03  0.84869509570E+03  0.10334324214E+04  0.17770000000E+01 0.  1.
        -15    1    5    5    0    0  0.19411838850E+03  0.76340433566E+02  0.28475911511E+03  0.35298827448E+03  0.17770000000E+01 0. -1.
          2    1    6    6  503    0 -0.32558294306E+02  0.61593087642E+01 -0.19767486665E+02  0.38584104779E+02  0.00000000000E+00 0.  1.
         -2    1    6    6    0  503  0.62557468814E+02  0.23727867555E+02 -0.25536988844E+02  0.71614149456E+02  0.00000000000E+00 0. -1.
<mgrwt>
<rscale>  0 0.86794856E+03</rscale>
<asrwt>0</asrwt>
<pdfrwt beam="1">  1        1 0.24174867E+00 0.86794856E+03</pdfrwt>
<pdfrwt beam="2">  1       -1 0.21864349E+00 0.86794856E+03</pdfrwt>
<totfact> 0.67745478E-01</totfact>
</mgrwt>
</event>
<event>
12    1  0.9321077E-008  0.6261168E+03  0.7818608E-02  0.9852656E-01
          2   -1    0    0  501    0  0.00000000000E+00  0.00000000000E+00  0.22318920555E+04  0.22318920555E+04  0.00000000000E+00 0. -1.
         -2   -1    0    0    0  501 -0.00000000000E+00 -0.00000000000E+00 -0.21389226722E+03  0.21389226722E+03  0.00000000000E+00 0.  1.
         23    2    1    2    0    0  0.15270582887E+03  0.52048129499E+03  0.60429977324E+03  0.81703887582E+03  0.90302048989E+02 0.  0.
    5000000    2    1    2    0    0 -0.15270582887E+03 -0.52048129499E+03  0.14137000151E+04  0.16287454469E+04  0.60003679028E+03 0.  0.
         23    2    4    4    0    0 -0.71950645409E+02  0.50268300660E+02  0.35514951231E+02  0.13195034452E+03  0.91900947934E+02 0.  0.
         23    2    4    4    0    0 -0.80755183464E+02 -0.57074959565E+03  0.13781850639E+04  0.14967951024E+04  0.93407750373E+02 0.  0.
          3    1    3    3  502    0  0.38967209096E+02  0.13157801260E+03  0.21548652852E+03  0.25547144803E+03  0.00000000000E+00 0. -1.
         -3    1    3    3    0  502  0.11373861978E+03  0.38890328239E+03  0.38881324472E+03  0.56156742779E+03  0.00000000000E+00 0.  1.
         15    1    5    5    0    0  0.85305898614E+00  0.53482760528E+02  0.83990724321E+01  0.54174122329E+02  0.17770000000E+01 0.  1.
        -15    1    5    5    0    0 -0.72803704395E+02 -0.32144598679E+01  0.27115878799E+02  0.77776222189E+02  0.17770000000E+01 0. -1.
          4    1    6    6  503    0 -0.42992253601E+02 -0.51039397096E+03  0.11876006346E+04  0.12933466692E+04  0.00000000000E+00 0. -1.
         -4    1    6    6    0  503 -0.37762929863E+02 -0.60355624694E+02  0.19058442924E+03  0.20344843321E+03  0.00000000000E+00 0.  1.
<mgrwt>
<rscale>  0 0.62611679E+03</rscale>
<asrwt>0</asrwt>
<pdfrwt beam="1">  1        2 0.34336799E+00 0.62611679E+03</pdfrwt>
<pdfrwt beam="2">  1       -2 0.32906504E-01 0.62611679E+03</pdfrwt>
<totfact> 0.44966923E+01</totfact>
</mgrwt>
</event>
<event>
12    1  0.9321077E-008  0.1149364E+04  0.7818608E-02  0.9158371E-01
         -2   -1    0    0    0  501 -0.00000000000E+00  0.00000000000E+00  0.79595123514E+03  0.79595123514E+03  0.00000000000E+00 0.  1.
          2   -1    0    0  501    0  0.00000000000E+00 -0.00000000000E+00 -0.17352817954E+04  0.17352817954E+04  0.00000000000E+00 0. -1.
         23    2    1    2    0    0 -0.94885899935E+03  0.53804174340E+03 -0.55772810399E+03  0.12290245987E+04  0.98073991740E+02 0.  0.
    5000000    2    1    2    0    0  0.94885899935E+03 -0.53804174340E+03 -0.38160245625E+03  0.13022084319E+04  0.60025331913E+03 0.  0.
         23    2    4    4    0    0  0.99588806281E+03 -0.42829461843E+03 -0.36575087150E+03  0.11478122768E+04  0.92032651350E+02 0.  0.
         23    2    4    4    0    0 -0.47029063469E+02 -0.10974712496E+03 -0.15851584754E+02  0.15439615507E+03  0.96595733413E+02 0.  0.
          3    1    3    3  502    0 -0.29438529291E+03  0.17971433243E+03 -0.22674044145E+03  0.41276042658E+03  0.00000000000E+00 0. -1.
         -3    1    3    3    0  502 -0.65447370644E+03  0.35832741097E+03 -0.33098766254E+03  0.81626417208E+03  0.00000000000E+00 0.  1.
         15    1    5    5    0    0  0.57821580018E+03 -0.28434305494E+03 -0.18406487163E+03  0.67012500265E+03  0.17770000000E+01 0.  1.
        -15    1    5    5    0    0  0.41767226263E+03 -0.14395156350E+03 -0.18168599986E+03  0.47768727414E+03  0.17770000000E+01 0. -1.
          1    1    6    6  503    0 -0.48312217796E+02 -0.93535625666E+02 -0.50020401557E+02  0.11655481212E+03  0.00000000000E+00 0. -1.
         -1    1    6    6    0  503  0.12831543268E+01 -0.16211499298E+02  0.34168816803E+02  0.37841342950E+02  0.00000000000E+00 0.  1.
<mgrwt>
<rscale>  0 0.11493635E+04</rscale>
<asrwt>0</asrwt>
<pdfrwt beam="1">  1        2 0.26696643E+00 0.11493635E+04</pdfrwt>
<pdfrwt beam="2">  1       -2 0.12245404E+00 0.11493635E+04</pdfrwt>
<totfact> 0.46367794E+00</totfact>
</mgrwt>
</event>
<event>
12    1  0.9321077E-008  0.8662202E+03  0.7818608E-02  0.9468822E-01
          2   -1    0    0  501    0  0.00000000000E+00  0.00000000000E+00  0.64791222759E+03  0.64791222759E+03  0.00000000000E+00 0.  1.
         -2   -1    0    0    0  501 -0.00000000000E+00 -0.00000000000E+00 -0.12644946324E+04  0.12644946324E+04  0.00000000000E+00 0. -1.
         23    2    1    2    0    0  0.44048188560E+03  0.63536070786E+03 -0.45782231391E+02  0.77953921059E+03  0.88757239202E+02 0.  0.
    5000000    2    1    2    0    0 -0.44048188560E+03 -0.63536070786E+03 -0.57080017343E+03  0.11328676494E+04  0.59989061706E+03 0.  0.
         23    2    4    4    0    0  0.12738937080E+03 -0.18418418949E+03 -0.19841674855E+03  0.31233836386E+03  0.89633587358E+02 0.  0.
         23    2    4    4    0    0 -0.56787125640E+03 -0.45117651837E+03 -0.37238342488E+03  0.82052928554E+03  0.92525016825E+02 0.  0.
          4    1    3    3  502    0  0.40419871942E+03  0.54185552622E+03 -0.58049818395E+02  0.67849377115E+03  0.00000000000E+00 0. -1.
         -4    1    3    3    0  502  0.36283166182E+02  0.93505181643E+02  0.12267587004E+02  0.10104543945E+03  0.00000000000E+00 0.  1.
         15    1    5    5    0    0  0.29620005003E+02 -0.89524718835E+02 -0.12831491169E+03  0.15924790193E+03  0.17770000000E+01 0.  1.
        -15    1    5    5    0    0  0.97769365795E+02 -0.94659470660E+02 -0.70101836859E+02  0.15309046193E+03  0.17770000000E+01 0. -1.
          3    1    6    6  503    0 -0.32828745218E+03 -0.27669608978E+03 -0.26890633360E+03  0.50660042796E+03  0.00000000000E+00 0. -1.
         -3    1    6    6    0  503 -0.23958380422E+03 -0.17448042859E+03 -0.10347709128E+03  0.31392885759E+03  0.00000000000E+00 0.  1.
<mgrwt>
<rscale>  0 0.86622024E+03</rscale>
<asrwt>0</asrwt>
<pdfrwt beam="1">  1        2 0.99678805E-01 0.86622024E+03</pdfrwt>
<pdfrwt beam="2">  1       -2 0.19453764E+00 0.86622024E+03</pdfrwt>
<totfact> 0.65672401E+00</totfact>
</mgrwt>
</event>
<event>
12    1  0.9321077E-008  0.6912110E+03  0.7818608E-02  0.9732382E-01
          1   -1    0    0  501    0  0.00000000000E+00  0.00000000000E+00  0.48525673959E+03  0.48525673959E+03  0.00000000000E+00 0. -1.
         -1   -1    0    0    0  501 -0.00000000000E+00 -0.00000000000E+00 -0.10624676462E+04  0.10624676462E+04  0.00000000000E+00 0.  1.
         23    2    1    2    0    0  0.36278805654E+03 -0.45068365628E+03 -0.35562001738E+03  0.68518427258E+03  0.90999772645E+02 0.  0.
    5000000    2    1    2    0    0 -0.36278805654E+03  0.45068365628E+03 -0.22159088925E+03  0.86254011325E+03  0.60011831563E+03 0.  0.
         23    2    4    4    0    0 -0.18381319210E+03  0.56304473089E+03 -0.20271015348E+03  0.63298968492E+03  0.93690321371E+02 0.  0.
         23    2    4    4    0    0 -0.17897486445E+03 -0.11236107461E+03 -0.18880735773E+02  0.22955042833E+03  0.87635060168E+02 0.  0.
          1    1    3    3  502    0  0.37414678618E+02 -0.47368652736E+02 -0.73687209270E+02  0.95254670480E+02  0.00000000000E+00 0. -1.
         -1    1    3    3    0  502  0.32537337793E+03 -0.40331500354E+03 -0.28193280811E+03  0.58992960210E+03  0.00000000000E+00 0.  1.
         15    1    5    5    0    0 -0.12818111055E+03  0.39681471985E+03 -0.18690307049E+03  0.45697728005E+03  0.17770000000E+01 0. -1.
        -15    1    5    5    0    0 -0.55632081550E+02  0.16623001104E+03 -0.15807082993E+02  0.17601240487E+03  0.17770000000E+01 0.  1.
          3    1    6    6  503    0 -0.15082384442E+03 -0.90339271824E+02 -0.49327926820E+02  0.18259863210E+03  0.00000000000E+00 0. -1.
         -3    1    6    6    0  503 -0.28151020022E+02 -0.22021802787E+02  0.30447191047E+02  0.46951796227E+02  0.00000000000E+00 0.  1.
<mgrwt>
<rscale>  0 0.69121103E+03</rscale>
<asrwt>0</asrwt>
<pdfrwt beam="1">  1        1 0.74654885E-01 0.69121103E+03</pdfrwt>
<pdfrwt beam="2">  1       -1 0.16345656E+00 0.69121103E+03</pdfrwt>
<totfact> 0.13171826E+01</totfact>
</mgrwt>
</event>
<event>
12    1  0.9321077E-008  0.1802199E+04  0.7818608E-02  0.8705131E-01
          1   -1    0    0  501    0  0.00000000000E+00  0.00000000000E+00  0.14787934204E+04  0.14787934204E+04  0.00000000000E+00 0. -1.
         -1   -1    0    0    0  501 -0.00000000000E+00 -0.00000000000E+00 -0.28210691022E+04  0.28210691022E+04  0.00000000000E+00 0.  1.
         23    2    1    2    0    0 -0.15219083156E+04 -0.88378912379E+03  0.33725939734E+03  0.17942222574E+04  0.90561974479E+02 0.  0.
    5000000    2    1    2    0    0  0.15219083156E+04  0.88378912379E+03 -0.16795350791E+04  0.25056402653E+04  0.60008909377E+03 0.  0.
         23    2    4    4    0    0  0.10590575434E+04  0.87152742126E+03 -0.13756334524E+04  0.19446688408E+04  0.90590168280E+02 0.  0.
         23    2    4    4    0    0  0.46285077228E+03  0.12261702525E+02 -0.30390162669E+03  0.56097142453E+03  0.89171484705E+02 0.  0.
          4    1    3    3  502    0 -0.13146832770E+04 -0.74364948297E+03  0.31619813183E+03  0.15431746274E+04  0.00000000000E+00 0. -1.
         -4    1    3    3    0  502 -0.20722503869E+03 -0.14013964082E+03  0.21061265511E+02  0.25104762993E+03  0.00000000000E+00 0.  1.
         15    1    5    5    0    0  0.42142876561E+03  0.38194339930E+03 -0.62037368137E+03  0.84163509136E+03  0.17770000000E+01 0.  1.
        -15    1    5    5    0    0  0.63762877776E+03  0.48958402196E+03 -0.75525977107E+03  0.11030337494E+04  0.17770000000E+01 0. -1.
          2    1    6    6  503    0  0.24363735044E+03 -0.37069221834E+02 -0.17027290862E+03  0.29954323418E+03  0.00000000000E+00 0.  1.
         -2    1    6    6    0  503  0.21921342184E+03  0.49330924360E+02 -0.13362871807E+03  0.26142819034E+03  0.00000000000E+00 0. -1.
<mgrwt>
<rscale>  0 0.18021986E+04</rscale>
<asrwt>0</asrwt>
<pdfrwt beam="1">  1        1 0.22750668E+00 0.18021986E+04</pdfrwt>
<pdfrwt beam="2">  1       -1 0.43401063E+00 0.18021986E+04</pdfrwt>
<totfact> 0.25740081E-02</totfact>
</mgrwt>
</event>
<event>
12    1  0.9321077E-008  0.9498463E+03  0.7818608E-02  0.9365330E-01
          1   -1    0    0  501    0  0.00000000000E+00  0.00000000000E+00  0.13687389975E+04  0.13687389975E+04  0.00000000000E+00 0. -1.
         -1   -1    0    0    0  501 -0.00000000000E+00 -0.00000000000E+00 -0.84338116684E+03  0.84338116684E+03  0.00000000000E+00 0.  1.
         23    2    1    2    0    0  0.63390739850E+03  0.68098965423E+03 -0.10071601780E+03  0.94027418663E+03  0.91576911709E+02 0.  0.
    5000000    2    1    2    0    0 -0.63390739850E+03 -0.68098965423E+03  0.62607384848E+03  0.12718459777E+04  0.60003185606E+03 0.  0.
         23    2    4    4    0    0 -0.22175569578E+03 -0.39993254500E+03  0.60571205551E+03  0.76443738647E+03  0.91410034916E+02 0.  0.
         23    2    4    4    0    0 -0.41215170271E+03 -0.28105710923E+03  0.20361792971E+02  0.50740859126E+03  0.90480667402E+02 0.  0.
          2    1    3    3  502    0  0.24896283507E+03  0.20463168914E+03 -0.42551708633E+02  0.32506502327E+03  0.00000000000E+00 0. -1.
         -2    1    3    3    0  502  0.38494456343E+03  0.47635796509E+03 -0.58164309168E+02  0.61520916336E+03  0.00000000000E+00 0.  1.
         15    1    5    5    0    0 -0.12350128974E+03 -0.30504897383E+03  0.44589859151E+03  0.55419866171E+03  0.17770000000E+01 0.  1.
        -15    1    5    5    0    0 -0.98254406042E+02 -0.94883571174E+02  0.15981346400E+03  0.21023872476E+03  0.17770000000E+01 0. -1.
          1    1    6    6  503    0 -0.34825655005E+02 -0.17257350408E+02 -0.22686510836E+02  0.45003557232E+02  0.00000000000E+00 0. -1.
         -1    1    6    6    0  503 -0.37732604771E+03 -0.26379975883E+03  0.43048303807E+02  0.46240503403E+03  0.00000000000E+00 0.  1.
<mgrwt>
<rscale>  0 0.94984625E+03</rscale>
<asrwt>0</asrwt>
<pdfrwt beam="1">  1        1 0.21057523E+00 0.94984625E+03</pdfrwt>
<pdfrwt beam="2">  1       -1 0.12975095E+00 0.94984625E+03</pdfrwt>
<totfact> 0.41635256E+00</totfact>
</mgrwt>
</event>
<event>
12    1  0.9321077E-008  0.4332935E+03  0.7818608E-02  0.1032825E+00
         -2   -1    0    0    0  501 -0.00000000000E+00  0.00000000000E+00  0.44682742649E+03  0.44682742649E+03  0.00000000000E+00 0.  1.
          2   -1    0    0  501    0  0.00000000000E+00 -0.00000000000E+00 -0.80511853208E+03  0.80511853208E+03  0.00000000000E+00 0. -1.
         23    2    1    2    0    0 -0.97483355691E+02 -0.33480496875E+03  0.15061880503E+03  0.39105137222E+03  0.92939655427E+02 0.  0.
    5000000    2    1    2    0    0  0.97483355691E+02  0.33480496875E+03 -0.50890991063E+03  0.86089458634E+03  0.60046050654E+03 0.  0.
         23    2    4    4    0    0 -0.10665483140E+03  0.39260307106E+02  0.81386756892E+02  0.16388527639E+03  0.85545045710E+02 0.  0.
         23    2    4    4    0    0  0.20413818709E+03  0.29554466165E+03 -0.59029666752E+03  0.69700930995E+03  0.91393522831E+02 0.  0.
          1    1    3    3  502    0 -0.93747426315E+02 -0.20092746729E+03  0.12553511033E+03  0.25479303558E+03  0.00000000000E+00 0. -1.
         -1    1    3    3    0  502 -0.37359293762E+01 -0.13387750146E+03  0.25083694700E+02  0.13625833665E+03  0.00000000000E+00 0.  1.
         15    1    5    5    0    0  0.14478903414E+02  0.74199202047E+01  0.47564366107E+01  0.17043335300E+02  0.17770000000E+01 0.  1.
        -15    1    5    5    0    0 -0.12113373481E+03  0.31840386901E+02  0.76630320282E+02  0.14684194109E+03  0.17770000000E+01 0. -1.
          2    1    6    6  503    0  0.13323022700E+03  0.25479554236E+03 -0.48292109926E+03  0.56203545253E+03  0.00000000000E+00 0. -1.
         -2    1    6    6    0  503  0.70907960094E+02  0.40749119290E+02 -0.10737556826E+03  0.13497385742E+03  0.00000000000E+00 0.  1.
<mgrwt>
<rscale>  0 0.43329350E+03</rscale>
<asrwt>0</asrwt>
<pdfrwt beam="1">  1        2 0.12386439E+00 0.43329350E+03</pdfrwt>
<pdfrwt beam="2">  1       -2 0.68742682E-01 0.43329350E+03</pdfrwt>
<totfact> 0.68975420E+01</totfact>
</mgrwt>
</event>
<event>
12    1  0.9321077E-008  0.7525526E+03  0.7818608E-02  0.9631354E-01
          2   -1    0    0  501    0  0.00000000000E+00  0.00000000000E+00  0.15706795020E+04  0.15706795020E+04  0.00000000000E+00 0. -1.
         -2   -1    0    0    0  501 -0.00000000000E+00 -0.00000000000E+00 -0.43441291354E+03  0.43441291354E+03  0.00000000000E+00 0.  1.
         23    2    1    2    0    0  0.32675277290E+03 -0.63251142337E+03  0.42605286925E+03  0.83470480155E+03  0.91504005614E+02 0.  0.
    5000000    2    1    2    0    0 -0.32675277290E+03  0.63251142337E+03  0.71021371920E+03  0.11703876140E+04  0.59880344415E+03 0.  0.
         23    2    4    4    0    0 -0.25390263730E+03  0.13373272535E+03  0.56104488838E+03  0.63667909487E+03  0.90762944041E+02 0.  0.
         23    2    4    4    0    0 -0.72850135596E+02  0.49877869801E+03  0.14916883082E+03  0.53370851911E+03  0.92228582498E+02 0.  0.
          3    1    3    3  502    0  0.24586811466E+03 -0.50069386095E+03  0.37376181824E+03  0.67144870912E+03  0.00000000000E+00 0. -1.
         -3    1    3    3    0  502  0.80884658235E+02 -0.13181756242E+03  0.52291051003E+02  0.16325609243E+03  0.00000000000E+00 0.  1.
         15    1    5    5    0    0 -0.15375801608E+03  0.91361333453E+02  0.25173832775E+03  0.30881023970E+03  0.17770000000E+01 0.  1.
        -15    1    5    5    0    0 -0.10014462122E+03  0.42371391901E+02  0.30930656063E+03  0.32786885517E+03  0.17770000000E+01 0. -1.
          1    1    6    6  503    0 -0.41763828988E+02  0.18203060006E+03  0.99418915669E+02  0.21157381115E+03  0.00000000000E+00 0. -1.
         -1    1    6    6    0  503 -0.31086306608E+02  0.31674809795E+03  0.49749915155E+02  0.32213470796E+03  0.00000000000E+00 0.  1.
<mgrwt>
<rscale>  0 0.75255260E+03</rscale>
<asrwt>0</asrwt>
<pdfrwt beam="1">  1        2 0.24164300E+00 0.75255260E+03</pdfrwt>
<pdfrwt beam="2">  1       -2 0.66832757E-01 0.75255260E+03</pdfrwt>
<totfact> 0.24398285E+01</totfact>
</mgrwt>
</event>
<event>
12    1  0.9321077E-008  0.1075771E+04  0.7818608E-02  0.9229134E-01
         -1   -1    0    0    0  501 -0.00000000000E+00  0.00000000000E+00  0.29324107778E+04  0.29324107778E+04  0.00000000000E+00 0.  1.
          1   -1    0    0  501    0  0.00000000000E+00 -0.00000000000E+00 -0.52014043352E+03  0.52014043352E+03  0.00000000000E+00 0. -1.
         23    2    1    2    0    0 -0.96782463781E+03 -0.44622349876E+03  0.17775068360E+04  0.20746090785E+04  0.93125377863E+02 0.  0.
    5000000    2    1    2    0    0  0.96782463781E+03  0.44622349876E+03  0.63476350830E+03  0.13779421329E+04  0.59999989145E+03 0.  0.
         23    2    4    4    0    0  0.47806038302E+03  0.28817776425E+03  0.64126864518E+03  0.85513336995E+03  0.91866487336E+02 0.  0.
         23    2    4    4    0    0  0.48976425479E+03  0.15804573451E+03 -0.65051368795E+01  0.52280876294E+03  0.91865152991E+02 0.  0.
          3    1    3    3  502    0 -0.39950749783E+03 -0.13952755646E+03  0.74407867266E+03  0.85599488956E+03  0.00000000000E+00 0. -1.
         -3    1    3    3    0  502 -0.56831713998E+03 -0.30669594230E+03  0.10334281634E+04  0.12186141889E+04  0.00000000000E+00 0.  1.
         15    1    5    5    0    0  0.13602565362E+03  0.13250319575E+03  0.21329126738E+03  0.28558080782E+03  0.17770000000E+01 0. -1.
        -15    1    5    5    0    0  0.34203472939E+03  0.15567456850E+03  0.42797737780E+03  0.56955256213E+03  0.17770000000E+01 0.  1.
          4    1    6    6  503    0  0.86995436910E+02  0.47931362846E+02 -0.32346215468E+02  0.10446003658E+03  0.00000000000E+00 0. -1.
         -4    1    6    6    0  503  0.40276881788E+03  0.11011437166E+03  0.25841078588E+02  0.41834872636E+03  0.00000000000E+00 0.  1.
<mgrwt>
<rscale>  0 0.10757709E+04</rscale>
<asrwt>0</asrwt>
<pdfrwt beam="1">  1        1 0.80021607E-01 0.10757709E+04</pdfrwt>
<pdfrwt beam="2">  1       -1 0.45114011E+00 0.10757709E+04</pdfrwt>
<totfact> 0.13527549E-01</totfact>
</mgrwt>
</event>
<event>
12    1  0.9321077E-008  0.2887653E+03  0.7818608E-02  0.1090996E+00
         -1   -1    0    0    0  501 -0.00000000000E+00  0.00000000000E+00  0.33114112422E+03  0.33114112422E+03  0.00000000000E+00 0.  1.
          1   -1    0    0  501    0  0.00000000000E+00 -0.00000000000E+00 -0.63573239722E+03  0.63573239722E+03  0.00000000000E+00 0. -1.
         23    2    1    2    0    0  0.17388095972E+03 -0.61332706103E+02 -0.26922409044E+03  0.33807705281E+03  0.88420550632E+02 0.  0.
    5000000    2    1    2    0    0 -0.17388095972E+03  0.61332706103E+02 -0.35367182558E+02  0.62879646862E+03  0.60011488264E+03 0.  0.
         23    2    4    4    0    0 -0.18924891227E+03  0.15710995237E+03 -0.25847399410E+03  0.36980136198E+03  0.97188238839E+02 0.  0.
         23    2    4    4    0    0  0.15367952551E+02 -0.95777246264E+02  0.22310681154E+03  0.25899510664E+03  0.88838961283E+02 0.  0.
          4    1    3    3  502    0  0.14037408456E+03 -0.78599098260E+02 -0.24556702082E+03  0.29357428971E+03  0.00000000000E+00 0. -1.
         -4    1    3    3    0  502  0.33506875156E+02  0.17266392157E+02 -0.23657069624E+02  0.44502763105E+02  0.00000000000E+00 0.  1.
         15    1    5    5    0    0 -0.12022634084E+03  0.15381282705E+03 -0.19557856270E+03  0.27634560014E+03  0.17770000000E+01 0. -1.
        -15    1    5    5    0    0 -0.69022571423E+02  0.32971253123E+01 -0.62895431396E+02  0.93455761838E+02  0.17770000000E+01 0.  1.
          2    1    6    6  503    0  0.38956018337E+02 -0.53411682699E+02  0.61577522177E+02  0.90344731173E+02  0.00000000000E+00 0. -1.
         -2    1    6    6    0  503 -0.23588065786E+02 -0.42365563565E+02  0.16152928937E+03  0.16865037547E+03  0.00000000000E+00 0.  1.
<mgrwt>
<rscale>  0 0.28876527E+03</rscale>
<asrwt>0</asrwt>
<pdfrwt beam="1">  1        1 0.97804983E-01 0.28876527E+03</pdfrwt>
<pdfrwt beam="2">  1       -1 0.50944789E-01 0.28876527E+03</pdfrwt>
<totfact> 0.12975240E+02</totfact>
</mgrwt>
</event>
<event>
12    1  0.9321077E-008  0.7445051E+03  0.7818608E-02  0.9644011E-01
          2   -1    0    0  501    0  0.00000000000E+00  0.00000000000E+00  0.25724006923E+04  0.25724006923E+04  0.00000000000E+00 0. -1.
         -2   -1    0    0    0  501 -0.00000000000E+00 -0.00000000000E+00 -0.31541088757E+03  0.31541088757E+03  0.00000000000E+00 0.  1.
         23    2    1    2    0    0 -0.69950628552E+03 -0.19993311022E+03  0.47924226220E+03  0.87550188938E+03  0.86879919328E+02 0.  0.
    5000000    2    1    2    0    0  0.69950628552E+03  0.19993311022E+03  0.17777475425E+04  0.20123096905E+04  0.59976801631E+03 0.  0.
         23    2    4    4    0    0  0.17199560672E+03 -0.41026102112E+02  0.77849469852E+02  0.21323649532E+03  0.90242081071E+02 0.  0.
         23    2    4    4    0    0  0.52751067880E+03  0.24095921233E+03  0.16998980727E+04  0.17990731952E+04  0.10335398291E+03 0.  0.
          3    1    3    3  502    0 -0.14268029017E+03 -0.16109598439E+02  0.12534685651E+03  0.19060172823E+03  0.00000000000E+00 0. -1.
         -3    1    3    3    0  502 -0.55682599535E+03 -0.18382351178E+03  0.35389540569E+03  0.68490016115E+03  0.00000000000E+00 0.  1.
         15    1    5    5    0    0  0.68982122562E+01 -0.76223796916E+01 -0.16978173888E+02  0.19927421360E+02  0.17770000000E+01 0. -1.
        -15    1    5    5    0    0  0.16509739446E+03 -0.33403722421E+02  0.94827643740E+02  0.19330907396E+03  0.17770000000E+01 0.  1.
          3    1    6    6  503    0  0.37126450692E+03  0.17748307219E+03  0.10529561797E+04  0.11305106330E+04  0.00000000000E+00 0. -1.
         -3    1    6    6    0  503  0.15624617189E+03  0.63476140143E+02  0.64694189302E+03  0.66856256217E+03  0.00000000000E+00 0.  1.
<mgrwt>
<rscale>  0 0.74450507E+03</rscale>
<asrwt>0</asrwt>
<pdfrwt beam="1">  1        2 0.39575394E+00 0.74450507E+03</pdfrwt>
<pdfrwt beam="2">  1       -2 0.48524754E-01 0.74450507E+03</pdfrwt>
<totfact> 0.13347115E+01</totfact>
</mgrwt>
</event>
<event>
12    1  0.9321077E-008  0.6776445E+03  0.7818608E-02  0.9756246E-01
          2   -1    0    0  501    0  0.00000000000E+00  0.00000000000E+00  0.17844785093E+04  0.17844785093E+04  0.00000000000E+00 0. -1.
         -2   -1    0    0    0  501 -0.00000000000E+00 -0.00000000000E+00 -0.34971806685E+03  0.34971806685E+03  0.00000000000E+00 0.  1.
         23    2    1    2    0    0  0.52229421550E+03  0.31854064928E+03  0.23934953365E+03  0.66339489212E+03  0.92440201425E+02 0.  0.
    5000000    2    1    2    0    0 -0.52229421550E+03 -0.31854064928E+03  0.11954109088E+04  0.14708016840E+04  0.59999246668E+03 0.  0.
         23    2    4    4    0    0 -0.39462603603E+03 -0.41551361489E+03  0.11381619197E+04  0.12775302489E+04  0.91047838761E+02 0.  0.
         23    2    4    4    0    0 -0.12766817947E+03  0.96972965608E+02  0.57248989060E+02  0.19327143509E+03  0.91506725233E+02 0.  0.
          2    1    3    3  502    0  0.45040723940E+03  0.23674788390E+03  0.21115340227E+03  0.55091015704E+03  0.00000000000E+00 0. -1.
         -2    1    3    3    0  502  0.71886976101E+02  0.81792765380E+02  0.28196131374E+02  0.11248473508E+03  0.00000000000E+00 0.  1.
         15    1    5    5    0    0 -0.15614452625E+03 -0.14717308350E+03  0.52246243109E+03  0.56481074637E+03  0.17770000000E+01 0. -1.
        -15    1    5    5    0    0 -0.23848150978E+03 -0.26834053139E+03  0.61569948865E+03  0.71271950257E+03  0.17770000000E+01 0.  1.
          1    1    6    6  503    0 -0.70212540840E+02  0.74247125183E+02  0.77497925710E+02  0.12825117925E+03  0.00000000000E+00 0. -1.
         -1    1    6    6    0  503 -0.57455638634E+02  0.22725840425E+02 -0.20248936649E+02  0.65020255839E+02  0.00000000000E+00 0.  1.
<mgrwt>
<rscale>  0 0.67764446E+03</rscale>
<asrwt>0</asrwt>
<pdfrwt beam="1">  1        2 0.27453515E+00 0.67764446E+03</pdfrwt>
<pdfrwt beam="2">  1       -2 0.53802780E-01 0.67764446E+03</pdfrwt>
<totfact> 0.29737963E+01</totfact>
</mgrwt>
</event>
<event>
12    1  0.9321077E-008  0.7538476E+03  0.7818608E-02  0.9629333E-01
         -1   -1    0    0    0  501 -0.00000000000E+00  0.00000000000E+00  0.43635047385E+03  0.43635047385E+03  0.00000000000E+00 0.  1.
          1   -1    0    0  501    0  0.00000000000E+00 -0.00000000000E+00 -0.13788166984E+04  0.13788166984E+04  0.00000000000E+00 0. -1.
         23    2    1    2    0    0 -0.57956879751E+03 -0.30216923117E+03 -0.46520280185E+03  0.80753465546E+03  0.92153880054E+02 0.  0.
    5000000    2    1    2    0    0  0.57956879751E+03  0.30216923117E+03 -0.47726342268E+03  0.10076325168E+04  0.60028050020E+03 0.  0.
         23    2    4    4    0    0 -0.45958537343E+02 -0.68735563033E+02  0.19429092641E+02  0.12236533253E+03  0.88085300614E+02 0.  0.
         23    2    4    4    0    0  0.62552733485E+03  0.37090479420E+03 -0.49669251532E+03  0.88526718424E+03  0.90220395234E+02 0.  0.
          2    1    3    3  502    0 -0.26836657306E+03 -0.92044153722E+02 -0.17985494742E+03  0.33591746886E+03  0.00000000000E+00 0. -1.
         -2    1    3    3    0  502 -0.31120222445E+03 -0.21012507745E+03 -0.28534785442E+03  0.47161718660E+03  0.00000000000E+00 0.  1.
         15    1    5    5    0    0 -0.71485732477E+02 -0.39957227973E+02  0.17772692422E+02  0.83820142806E+02  0.17770000000E+01 0.  1.
        -15    1    5    5    0    0  0.25527195134E+02 -0.28778335060E+02  0.16564002184E+01  0.38545189725E+02  0.17770000000E+01 0. -1.
          1    1    6    6  503    0  0.43991379602E+03  0.24208981665E+03 -0.38789558980E+03  0.63450344037E+03  0.00000000000E+00 0. -1.
         -1    1    6    6    0  503  0.18561353883E+03  0.12881497755E+03 -0.10879692552E+03  0.25076374388E+03  0.00000000000E+00 0.  1.
<mgrwt>
<rscale>  0 0.75384757E+03</rscale>
<asrwt>0</asrwt>
<pdfrwt beam="1">  1        1 0.21212564E+00 0.75384757E+03</pdfrwt>
<pdfrwt beam="2">  1       -1 0.67130843E-01 0.75384757E+03</pdfrwt>
<totfact> 0.18463814E+01</totfact>
</mgrwt>
</event>
<event>
12    1  0.9321077E-008  0.1091397E+04  0.7818608E-02  0.9213618E-01
          1   -1    0    0  501    0  0.00000000000E+00  0.00000000000E+00  0.96717846228E+03  0.96717846228E+03  0.00000000000E+00 0. -1.
         -1   -1    0    0    0  501 -0.00000000000E+00 -0.00000000000E+00 -0.14448572145E+04  0.14448572145E+04  0.00000000000E+00 0.  1.
         23    2    1    2    0    0  0.96025490179E+03 -0.48774245707E+03  0.22735431043E+02  0.10814988199E+04  0.95606572823E+02 0.  0.
    5000000    2    1    2    0    0 -0.96025490179E+03  0.48774245707E+03 -0.50041418322E+03  0.13305368568E+04  0.59994315715E+03 0.  0.
         23    2    4    4    0    0 -0.51106434312E+03  0.35502399946E+03 -0.56943283771E+03  0.84845830123E+03  0.91645672339E+02 0.  0.
         23    2    4    4    0    0 -0.44919055868E+03  0.13271845761E+03  0.69018654488E+02  0.48207855562E+03  0.90828476422E+02 0.  0.
          1    1    3    3  502    0  0.45874698146E+03 -0.25890835598E+03  0.52963728806E+02  0.52942184160E+03  0.00000000000E+00 0. -1.
         -1    1    3    3    0  502  0.50150792033E+03 -0.22883410108E+03 -0.30228297762E+02  0.55207697829E+03  0.00000000000E+00 0.  1.
         15    1    5    5    0    0 -0.21489640706E+03  0.95457743543E+02 -0.20961821459E+03  0.31501682524E+03  0.17770000000E+01 0.  1.
        -15    1    5    5    0    0 -0.29616793606E+03  0.25956625592E+03 -0.35981462312E+03  0.53344147598E+03  0.17770000000E+01 0. -1.
          3    1    6    6  503    0 -0.31964829819E+03  0.13313641637E+03  0.66001996157E+02  0.35250050128E+03  0.00000000000E+00 0. -1.
         -3    1    6    6    0  503 -0.12954226048E+03 -0.41795876685E+00  0.30166583306E+01  0.12957805435E+03  0.00000000000E+00 0.  1.
<mgrwt>
<rscale>  0 0.10913967E+04</rscale>
<asrwt>0</asrwt>
<pdfrwt beam="1">  1        1 0.14879669E+00 0.10913967E+04</pdfrwt>
<pdfrwt beam="2">  1       -1 0.22228572E+00 0.10913967E+04</pdfrwt>
<totfact> 0.16959749E+00</totfact>
</mgrwt>
</event>
<event>
12    1  0.9321077E-008  0.4814174E+03  0.7818608E-02  0.1018746E+00
          2   -1    0    0  501    0  0.00000000000E+00  0.00000000000E+00  0.14268570738E+04  0.14268570738E+04  0.00000000000E+00 0. -1.
         -2   -1    0    0    0  501 -0.00000000000E+00 -0.00000000000E+00 -0.30907983527E+03  0.30907983527E+03  0.00000000000E+00 0.  1.
         23    2    1    2    0    0  0.34707118862E+03  0.27361418696E+03  0.80566348146E+02  0.45882663071E+03  0.93315632743E+02 0.  0.
    5000000    2    1    2    0    0 -0.34707118862E+03 -0.27361418696E+03  0.10372108904E+04  0.12771102784E+04  0.59990090738E+03 0.  0.
         23    2    4    4    0    0 -0.30264049166E+03 -0.11422068862E+03  0.14681617801E+03  0.36684069676E+03  0.91539465646E+02 0.  0.
         23    2    4    4    0    0 -0.44430696965E+02 -0.15939349834E+03  0.89039471237E+03  0.91026958160E+03  0.91692928929E+02 0.  0.
          1    1    3    3  502    0  0.28575731220E+03  0.17728825789E+03  0.45320732694E+02  0.33932629823E+03  0.00000000000E+00 0. -1.
         -1    1    3    3    0  502  0.61313876429E+02  0.96325929066E+02  0.35245615452E+02  0.11950033248E+03  0.00000000000E+00 0.  1.
         15    1    5    5    0    0 -0.69211662250E+02 -0.36490190478E+02 -0.38151840501E+01  0.78354971450E+02  0.17770000000E+01 0. -1.
        -15    1    5    5    0    0 -0.23342882941E+03 -0.77730498143E+02  0.15063136206E+03  0.28848572531E+03  0.17770000000E+01 0.  1.
          3    1    6    6  503    0 -0.72052624898E+02 -0.11072240898E+03  0.66843111470E+03  0.68135980781E+03  0.00000000000E+00 0. -1.
         -3    1    6    6    0  503  0.27621927933E+02 -0.48671089355E+02  0.22196359767E+03  0.22890977378E+03  0.00000000000E+00 0.  1.
<mgrwt>
<rscale>  0 0.48141741E+03</rscale>
<asrwt>0</asrwt>
<pdfrwt beam="1">  1        2 0.21951647E+00 0.48141741E+03</pdfrwt>
<pdfrwt beam="2">  1       -2 0.47550745E-01 0.48141741E+03</pdfrwt>
<totfact> 0.61704604E+01</totfact>
</mgrwt>
</event>
<event>
12    1  0.9321077E-008  0.3229293E+03  0.7818608E-02  0.1074309E+00
          2   -1    0    0  501    0  0.00000000000E+00  0.00000000000E+00  0.89530077982E+03  0.89530077982E+03  0.00000000000E+00 0. -1.
         -2   -1    0    0    0  501 -0.00000000000E+00 -0.00000000000E+00 -0.55874813021E+03  0.55874813021E+03  0.00000000000E+00 0.  1.
         23    2    1    2    0    0  0.32133611249E+02 -0.84995478145E+02  0.72323949878E+03  0.73444842263E+03  0.89901683104E+02 0.  0.
    5000000    2    1    2    0    0 -0.32133611249E+02  0.84995478145E+02 -0.38668684917E+03  0.71960048741E+03  0.60003445058E+03 0.  0.
         23    2    4    4    0    0 -0.87779426664E+02 -0.20371441115E+03 -0.32973460750E+03  0.40804880173E+03  0.92596566626E+02 0.  0.
         23    2    4    4    0    0  0.55645815415E+02  0.28870988929E+03 -0.56952241669E+02  0.31155168568E+03  0.85854749855E+02 0.  0.
          2    1    3    3  502    0  0.47508230592E+02 -0.22424150412E+02  0.47828461162E+03  0.48116114162E+03  0.00000000000E+00 0. -1.
         -2    1    3    3    0  502 -0.15374619343E+02 -0.62571327733E+02  0.24495488717E+03  0.25328728101E+03  0.00000000000E+00 0.  1.
         15    1    5    5    0    0 -0.28078734658E+02 -0.33528998203E+02 -0.13817379163E+03  0.14494055155E+03  0.17770000000E+01 0.  1.
        -15    1    5    5    0    0 -0.59700692006E+02 -0.17018541294E+03 -0.19156081587E+03  0.26310825018E+03  0.17770000000E+01 0. -1.
          1    1    6    6  503    0  0.48590527315E+02  0.66097763017E+02 -0.15965902649E+01  0.82051829480E+02  0.00000000000E+00 0. -1.
         -1    1    6    6    0  503  0.70552881005E+01  0.22261212627E+03 -0.55355651404E+02  0.22949985620E+03  0.00000000000E+00 0.  1.
<mgrwt>
<rscale>  0 0.32292929E+03</rscale>
<asrwt>0</asrwt>
<pdfrwt beam="1">  1        2 0.13773858E+00 0.32292929E+03</pdfrwt>
<pdfrwt beam="2">  1       -2 0.85961251E-01 0.32292929E+03</pdfrwt>
<totfact> 0.37251678E+01</totfact>
</mgrwt>
</event>
<event>
12    1  0.9321077E-008  0.6051386E+03  0.7818608E-02  0.9894802E-01
         -2   -1    0    0    0  501 -0.00000000000E+00  0.00000000000E+00  0.14552811152E+03  0.14552811152E+03  0.00000000000E+00 0.  1.
          2   -1    0    0  501    0  0.00000000000E+00 -0.00000000000E+00 -0.29500352654E+04  0.29500352654E+04  0.00000000000E+00 0. -1.
         23    2    1    2    0    0 -0.50859883722E+03  0.41848034307E+02 -0.11458128352E+04  0.12593635180E+04  0.11262940066E+03 0.  0.
    5000000    2    1    2    0    0  0.50859883722E+03 -0.41848034307E+02 -0.16586943187E+04  0.18361998590E+04  0.59994920120E+03 0.  0.
         23    2    4    4    0    0  0.35325656635E+03 -0.24433836729E+03 -0.60121729137E+03  0.74439828243E+03  0.90416436762E+02 0.  0.
         23    2    4    4    0    0  0.15534227087E+03  0.20249033298E+03 -0.10574770273E+04  0.10918015765E+04  0.92948712522E+02 0.  0.
          2    1    3    3  502    0 -0.83300626839E+02 -0.30086319574E+02 -0.15088664214E+03  0.17495988064E+03  0.00000000000E+00 0.  1.
         -2    1    3    3    0  502 -0.42529821038E+03  0.71934353881E+02 -0.99492619307E+03  0.10844036373E+04  0.00000000000E+00 0. -1.
         15    1    5    5    0    0  0.22526306821E+03 -0.19090712446E+03 -0.45867779166E+03  0.54550660341E+03  0.17770000000E+01 0.  1.
        -15    1    5    5    0    0  0.12799349814E+03 -0.53431242830E+02 -0.14253949970E+03  0.19889167901E+03  0.17770000000E+01 0. -1.
          2    1    6    6  503    0  0.67165696927E+02  0.68154826113E+02 -0.23428562932E+03  0.25307324488E+03  0.00000000000E+00 0. -1.
         -2    1    6    6    0  503  0.88176573941E+02  0.13433550687E+03 -0.82319139800E+03  0.83872833167E+03  0.00000000000E+00 0.  1.
<mgrwt>
<rscale>  0 0.60513860E+03</rscale>
<asrwt>0</asrwt>
<pdfrwt beam="1">  1        2 0.45385155E+00 0.60513860E+03</pdfrwt>
<pdfrwt beam="2">  1       -2 0.22388942E-01 0.60513860E+03</pdfrwt>
<totfact> 0.35357742E+01</totfact>
</mgrwt>
</event>
<event>
12    1  0.9321077E-008  0.9082886E+03  0.7818608E-02  0.9415279E-01
          2   -1    0    0  501    0  0.00000000000E+00  0.00000000000E+00  0.31149045774E+04  0.31149045774E+04  0.00000000000E+00 0. -1.
         -2   -1    0    0    0  501 -0.00000000000E+00 -0.00000000000E+00 -0.38973665203E+03  0.38973665203E+03  0.00000000000E+00 0.  1.
         23    2    1    2    0    0 -0.75297535644E+03  0.31978339540E+03  0.30074737218E+03  0.87651821494E+03  0.92746384637E+02 0.  0.
    5000000    2    1    2    0    0  0.75297535644E+03 -0.31978339540E+03  0.24244205531E+04  0.26281230145E+04  0.59998521085E+03 0.  0.
         23    2    4    4    0    0  0.65800704227E+01 -0.23859911702E+03  0.69773498470E+03  0.74304567138E+03  0.91158789514E+02 0.  0.
         23    2    4    4    0    0  0.74639528602E+03 -0.81184278375E+02  0.17266855684E+04  0.18850773431E+04  0.91524461651E+02 0.  0.
          1    1    3    3  502    0 -0.32781255531E+03  0.98261142081E+02  0.97831298191E+02  0.35593157540E+03  0.00000000000E+00 0. -1.
         -1    1    3    3    0  502 -0.42516280113E+03  0.22152225332E+03  0.20291607399E+03  0.52058663954E+03  0.00000000000E+00 0.  1.
         15    1    5    5    0    0  0.12044427730E+02 -0.11300841644E+03  0.46317140341E+03  0.47691390952E+03  0.17770000000E+01 0.  1.
        -15    1    5    5    0    0 -0.54643573078E+01 -0.12559070058E+03  0.23456358129E+03  0.26613176185E+03  0.17770000000E+01 0. -1.
          1    1    6    6  503    0  0.43408496849E+03 -0.89157560619E+02  0.10550150971E+04  0.11443057658E+04  0.00000000000E+00 0. -1.
         -1    1    6    6    0  503  0.31231031753E+03  0.79732822440E+01  0.67167047133E+03  0.74077157729E+03  0.00000000000E+00 0.  1.
<mgrwt>
<rscale>  0 0.90828864E+03</rscale>
<asrwt>0</asrwt>
<pdfrwt beam="1">  1        2 0.47921607E+00 0.90828864E+03</pdfrwt>
<pdfrwt beam="2">  1       -2 0.59959487E-01 0.90828864E+03</pdfrwt>
<totfact> 0.39723907E+00</totfact>
</mgrwt>
</event>
<event>
12    1  0.9321077E-008  0.5805619E+03  0.7818608E-02  0.9946575E-01
         -3   -1    0    0    0  501 -0.00000000000E+00  0.00000000000E+00  0.12065316689E+04  0.12065316689E+04  0.00000000000E+00 0.  1.
          3   -1    0    0  501    0  0.00000000000E+00 -0.00000000000E+00 -0.29253210494E+03  0.29253210494E+03  0.00000000000E+00 0. -1.
         23    2    1    2    0    0 -0.93622123945E+02 -0.42250804171E+03  0.41472056505E+03  0.60643638614E+03  0.92161792342E+02 0.  0.
    5000000    2    1    2    0    0  0.93622123945E+02  0.42250804171E+03  0.49927899892E+03  0.89262738771E+03  0.60018829306E+03 0.  0.
         23    2    4    4    0    0  0.28049896383E+03  0.42666640647E+03  0.41128816486E+03  0.66246556698E+03  0.94756433888E+02 0.  0.
         23    2    4    4    0    0 -0.18687683988E+03 -0.41583647602E+01  0.87990834061E+02  0.23016182073E+03  0.10144866466E+03 0.  0.
          3    1    3    3  502    0 -0.11239130174E+03 -0.37018201284E+03  0.36184535392E+03  0.52971557226E+03  0.00000000000E+00 0. -1.
         -3    1    3    3    0  502  0.18769177793E+02 -0.52326028867E+02  0.52875211125E+02  0.76720813887E+02  0.00000000000E+00 0.  1.
         15    1    5    5    0    0  0.19537421814E+03  0.21947328848E+03  0.20843703966E+03  0.36026208057E+03  0.17770000000E+01 0. -1.
        -15    1    5    5    0    0  0.85124745686E+02  0.20719311799E+03  0.20285112520E+03  0.30220348640E+03  0.17770000000E+01 0.  1.
          4    1    6    6  503    0 -0.16304773741E+02  0.22902759758E+02 -0.12035096578E+02  0.30581458450E+02  0.00000000000E+00 0. -1.
         -4    1    6    6    0  503 -0.17057206614E+03 -0.27061124518E+02  0.10002593064E+03  0.19958036228E+03  0.00000000000E+00 0.  1.
<mgrwt>
<rscale>  0 0.58056188E+03</rscale>
<asrwt>0</asrwt>
<pdfrwt beam="1">  1        3 0.45004940E-01 0.58056188E+03</pdfrwt>
<pdfrwt beam="2">  1       -3 0.18562025E+00 0.58056188E+03</pdfrwt>
<totfact> 0.23471463E+00</totfact>
</mgrwt>
</event>
<event>
12    1  0.9321077E-008  0.3567027E+03  0.7818608E-02  0.1059897E+00
          2   -1    0    0  501    0  0.00000000000E+00  0.00000000000E+00  0.24505178243E+04  0.24505178243E+04  0.00000000000E+00 0. -1.
         -2   -1    0    0    0  501 -0.00000000000E+00 -0.00000000000E+00 -0.77890337125E+02  0.77890337125E+02  0.00000000000E+00 0.  1.
         23    2    1    2    0    0  0.13404831224E+03  0.50621512825E+02  0.16370525602E+03  0.23497548974E+03  0.88783908199E+02 0.  0.
    5000000    2    1    2    0    0 -0.13404831224E+03 -0.50621512825E+02  0.22089222311E+04  0.22934326717E+04  0.59997042316E+03 0.  0.
         23    2    4    4    0    0 -0.25344048090E+03  0.16414364608E+03  0.15851591290E+04  0.16168262138E+04  0.10110552697E+03 0.  0.
         23    2    4    4    0    0  0.11939216866E+03 -0.21476515890E+03  0.62376310218E+03  0.67660645787E+03  0.91308968747E+02 0.  0.
          1    1    3    3  502    0  0.11445401144E+03  0.12938752354E+02  0.15238675790E+03  0.19102056442E+03  0.00000000000E+00 0. -1.
         -1    1    3    3    0  502  0.19594300806E+02  0.37682760471E+02  0.11318498120E+02  0.43954925326E+02  0.00000000000E+00 0.  1.
         15    1    5    5    0    0 -0.17525948670E+03  0.85366959327E+02  0.12094947257E+04  0.12251057320E+04  0.17770000000E+01 0.  1.
        -15    1    5    5    0    0 -0.78180994205E+02  0.78776686752E+02  0.37566440324E+03  0.39172048175E+03  0.17770000000E+01 0. -1.
          1    1    6    6  503    0  0.69563308097E+02 -0.79460341786E+02  0.16667865031E+03  0.19731896061E+03  0.00000000000E+00 0. -1.
         -1    1    6    6    0  503  0.49828860561E+02 -0.13530481712E+03  0.45708445187E+03  0.47928749725E+03  0.00000000000E+00 0.  1.
<mgrwt>
<rscale>  0 0.35670275E+03</rscale>
<asrwt>0</asrwt>
<pdfrwt beam="1">  1        2 0.37700268E+00 0.35670275E+03</pdfrwt>
<pdfrwt beam="2">  1       -2 0.11983131E-01 0.35670275E+03</pdfrwt>
<totfact> 0.20785270E+02</totfact>
</mgrwt>
</event>
<event>
12    1  0.9321077E-008  0.1015613E+04  0.7818608E-02  0.9291584E-01
          2   -1    0    0  501    0  0.00000000000E+00  0.00000000000E+00  0.29704089806E+04  0.29704089806E+04  0.00000000000E+00 0. -1.
         -2   -1    0    0    0  501 -0.00000000000E+00 -0.00000000000E+00 -0.42511200755E+03  0.42511200755E+03  0.00000000000E+00 0.  1.
         23    2    1    2    0    0 -0.11665876677E+03 -0.93024445458E+03  0.18692335679E+04  0.20933630034E+04  0.95762829180E+02 0.  0.
    5000000    2    1    2    0    0  0.11665876677E+03  0.93024445458E+03  0.67606340520E+03  0.13021579848E+04  0.59965796620E+03 0.  0.
         23    2    4    4    0    0 -0.19271216793E+03  0.14480074001E+03  0.11297417623E+03  0.28340079685E+03  0.97198833253E+02 0.  0.
         23    2    4    4    0    0  0.30937093470E+03  0.78544371456E+03  0.56308922897E+03  0.10187571880E+04  0.90357756992E+02 0.  0.
          4    1    3    3  502    0 -0.97170529438E+02 -0.43698161418E+03  0.83841985720E+03  0.95044352798E+03  0.00000000000E+00 0. -1.
         -4    1    3    3    0  502 -0.19488237336E+02 -0.49326284040E+03  0.10308137107E+04  0.11429194754E+04  0.00000000000E+00 0.  1.
         15    1    5    5    0    0 -0.11775868631E+03  0.94984538201E+02  0.17709211114E+02  0.15233497493E+03  0.17770000000E+01 0. -1.
        -15    1    5    5    0    0 -0.74953481621E+02  0.49816201814E+02  0.95264965114E+02  0.13106582193E+03  0.17770000000E+01 0.  1.
          1    1    6    6  503    0  0.15017158695E+03  0.49642256832E+03  0.35917191851E+03  0.63086554741E+03  0.00000000000E+00 0. -1.
         -1    1    6    6    0  503  0.15919934775E+03  0.28902114625E+03  0.20391731046E+03  0.38789164055E+03  0.00000000000E+00 0.  1.
<mgrwt>
<rscale>  0 0.10156131E+04</rscale>
<asrwt>0</asrwt>
<pdfrwt beam="1">  1        2 0.45698598E+00 0.10156131E+04</pdfrwt>
<pdfrwt beam="2">  1       -2 0.65401849E-01 0.10156131E+04</pdfrwt>
<totfact> 0.39901955E+00</totfact>
</mgrwt>
</event>
<event>
12    1  0.9321077E-008  0.3867797E+03  0.7818608E-02  0.1048456E+00
          2   -1    0    0  501    0  0.00000000000E+00  0.00000000000E+00  0.11366098181E+04  0.11366098181E+04  0.00000000000E+00 0. -1.
         -2   -1    0    0    0  501 -0.00000000000E+00 -0.00000000000E+00 -0.19149114855E+03  0.19149114855E+03  0.00000000000E+00 0.  1.
         23    2    1    2    0    0  0.79224573592E+02 -0.24707448228E+03  0.22981870995E+03  0.35912357170E+03  0.93972163167E+02 0.  0.
    5000000    2    1    2    0    0 -0.79224573592E+02  0.24707448228E+03  0.71529995960E+03  0.96897739495E+03  0.59995068703E+03 0.  0.
         23    2    4    4    0    0 -0.16666957973E+03  0.31468271088E+03  0.17176913197E+03  0.40699970459E+03  0.96644542040E+02 0.  0.
         23    2    4    4    0    0  0.87445006137E+02 -0.67608228603E+02  0.54353082763E+03  0.56197769036E+03  0.90419368520E+02 0.  0.
          4    1    3    3  502    0 -0.19663086847E+02 -0.39055930708E+02  0.53262871344E+02  0.68912525506E+02  0.00000000000E+00 0. -1.
         -4    1    3    3    0  502  0.98887660439E+02 -0.20801855157E+03  0.17655583861E+03  0.29021104619E+03  0.00000000000E+00 0.  1.
         15    1    5    5    0    0 -0.69488379477E+02  0.15303587390E+03  0.13323758153E+03  0.21448548772E+03  0.17770000000E+01 0. -1.
        -15    1    5    5    0    0 -0.97181200252E+02  0.16164683698E+03  0.38531550439E+02  0.19251421687E+03  0.17770000000E+01 0.  1.
          4    1    6    6  503    0 -0.10858795251E+02  0.12091363543E+02  0.61734123521E+02  0.63837422516E+02  0.00000000000E+00 0. -1.
         -4    1    6    6    0  503  0.98303801388E+02 -0.79699592146E+02  0.48179670411E+03  0.49814026784E+03  0.00000000000E+00 0.  1.
<mgrwt>
<rscale>  0 0.38677969E+03</rscale>
<asrwt>0</asrwt>
<pdfrwt beam="1">  1        2 0.17486304E+00 0.38677969E+03</pdfrwt>
<pdfrwt beam="2">  1       -2 0.29460177E-01 0.38677969E+03</pdfrwt>
<totfact> 0.22838285E+02</totfact>
</mgrwt>
</event>
<event>
12    1  0.9321077E-008  0.1010008E+04  0.7818608E-02  0.9297636E-01
          2   -1    0    0  501    0  0.00000000000E+00  0.00000000000E+00  0.32590700918E+04  0.32590700918E+04  0.00000000000E+00 0. -1.
         -2   -1    0    0    0  501 -0.00000000000E+00 -0.00000000000E+00 -0.35493692909E+03  0.35493692909E+03  0.00000000000E+00 0.  1.
         23    2    1    2    0    0  0.80578756353E+03  0.54943285515E+03  0.10601724319E+04  0.14434749013E+04  0.92109421793E+02 0.  0.
    5000000    2    1    2    0    0 -0.80578756353E+03 -0.54943285515E+03  0.18439607308E+04  0.21705321195E+04  0.59987369114E+03 0.  0.
         23    2    4    4    0    0 -0.68280439894E+03 -0.57361139215E+03  0.11432625313E+04  0.14528212795E+04  0.91589182374E+02 0.  0.
         23    2    4    4    0    0 -0.12298316459E+03  0.24178536994E+02  0.70069819952E+03  0.71771084003E+03  0.91768309680E+02 0.  0.
          1    1    3    3  502    0  0.14078464211E+03  0.73121934294E+02  0.13270808942E+03  0.20682980860E+03  0.00000000000E+00 0. -1.
         -1    1    3    3    0  502  0.66500292143E+03  0.47631092086E+03  0.92746434249E+03  0.12366450928E+04  0.00000000000E+00 0.  1.
         15    1    5    5    0    0 -0.16943455859E+03 -0.93372147753E+02  0.24361723795E+03  0.31109314356E+03  0.17770000000E+01 0.  1.
        -15    1    5    5    0    0 -0.51336984036E+03 -0.48023924440E+03  0.89964529334E+03  0.11417281359E+04  0.17770000000E+01 0. -1.
          1    1    6    6  503    0  0.83344885969E+01  0.12608564522E+02  0.17818000302E+03  0.17881989005E+03  0.00000000000E+00 0. -1.
         -1    1    6    6    0  503 -0.13131765319E+03  0.11569972473E+02  0.52251819650E+03  0.53889094998E+03  0.00000000000E+00 0.  1.
<mgrwt>
<rscale>  0 0.10100079E+04</rscale>
<asrwt>0</asrwt>
<pdfrwt beam="1">  1        2 0.50139538E+00 0.10100079E+04</pdfrwt>
<pdfrwt beam="2">  1       -2 0.54605684E-01 0.10100079E+04</pdfrwt>
<totfact> 0.38482984E+00</totfact>
</mgrwt>
</event>
<event>
12    1  0.9321077E-008  0.7962707E+03  0.7818608E-02  0.9565431E-01
         -1   -1    0    0    0  501 -0.00000000000E+00  0.00000000000E+00  0.58229907620E+03  0.58229907620E+03  0.00000000000E+00 0.  1.
          1   -1    0    0  501    0  0.00000000000E+00 -0.00000000000E+00 -0.11477230194E+04  0.11477230194E+04  0.00000000000E+00 0. -1.
         23    2    1    2    0    0  0.60111075924E+03  0.32826319053E+03 -0.73015094243E+02  0.69480352864E+03  0.91268134083E+02 0.  0.
    5000000    2    1    2    0    0 -0.60111075924E+03 -0.32826319053E+03 -0.49240884894E+03  0.10352185669E+04  0.60010010807E+03 0.  0.
         23    2    4    4    0    0 -0.70530546636E+03 -0.27447192912E+03 -0.39931134772E+03  0.86002269427E+03  0.86016518722E+02 0.  0.
         23    2    4    4    0    0  0.10419470713E+03 -0.53791261409E+02 -0.93097501217E+02  0.17519587267E+03  0.90974789192E+02 0.  0.
          4    1    3    3  502    0  0.15170223527E+03  0.12826779252E+03 -0.10390330643E+02  0.19893253569E+03  0.00000000000E+00 0. -1.
         -4    1    3    3    0  502  0.44940852396E+03  0.19999539801E+03 -0.62624763600E+02  0.49587099295E+03  0.00000000000E+00 0.  1.
         15    1    5    5    0    0 -0.39446094609E+03 -0.19865890839E+03 -0.22557096636E+03  0.49593368354E+03  0.17770000000E+01 0. -1.
        -15    1    5    5    0    0 -0.31084452028E+03 -0.75813020730E+02 -0.17374038136E+03  0.36408901074E+03  0.17770000000E+01 0.  1.
          4    1    6    6  503    0  0.63060531385E+02 -0.71703915676E+02 -0.88330289647E+02  0.13007813887E+03  0.00000000000E+00 0. -1.
         -4    1    6    6    0  503  0.41134175744E+02  0.17912654267E+02 -0.47672115703E+01  0.45117733800E+02  0.00000000000E+00 0.  1.
<mgrwt>
<rscale>  0 0.79627073E+03</rscale>
<asrwt>0</asrwt>
<pdfrwt beam="1">  1        1 0.17657277E+00 0.79627073E+03</pdfrwt>
<pdfrwt beam="2">  1       -1 0.89584473E-01 0.79627073E+03</pdfrwt>
<totfact> 0.14622369E+01</totfact>
</mgrwt>
</event>
<event>
12    1  0.9321077E-008  0.8929507E+03  0.7818608E-02  0.9434437E-01
         -2   -1    0    0    0  501 -0.00000000000E+00  0.00000000000E+00  0.57665114908E+03  0.57665114908E+03  0.00000000000E+00 0.  1.
          2   -1    0    0  501    0  0.00000000000E+00 -0.00000000000E+00 -0.16453232514E+04  0.16453232514E+04  0.00000000000E+00 0. -1.
         23    2    1    2    0    0  0.71427979652E+03 -0.50608881598E+03 -0.39298807380E+03  0.96387070876E+03  0.91025269446E+02 0.  0.
    5000000    2    1    2    0    0 -0.71427979652E+03  0.50608881598E+03 -0.67568402850E+03  0.12581036917E+04  0.59996206156E+03 0.  0.
         23    2    4    4    0    0 -0.78296605465E+02  0.95029172926E+02  0.89500431210E+02  0.17763339440E+03  0.91555412098E+02 0.  0.
         23    2    4    4    0    0 -0.63598319105E+03  0.41105964306E+03 -0.76518445971E+03  0.10804702973E+04  0.92000850600E+02 0.  0.
          3    1    3    3  502    0  0.57357737421E+03 -0.40787091337E+03 -0.35435569424E+03  0.78798327662E+03  0.00000000000E+00 0. -1.
         -3    1    3    3    0  502  0.14070242231E+03 -0.98217902607E+02 -0.38632379559E+02  0.17588743214E+03  0.00000000000E+00 0.  1.
         15    1    5    5    0    0 -0.40372856792E+02  0.10622726492E+03  0.70308000769E+02  0.13364345131E+03  0.17770000000E+01 0.  1.
        -15    1    5    5    0    0 -0.37923748673E+02 -0.11198091990E+02  0.19192430441E+02  0.43989943088E+02  0.17770000000E+01 0. -1.
          1    1    6    6  503    0 -0.40909682696E+03  0.26435212269E+03 -0.55304341704E+03  0.73695269843E+03  0.00000000000E+00 0. -1.
         -1    1    6    6    0  503 -0.22688636410E+03  0.14670752036E+03 -0.21214104267E+03  0.34351759886E+03  0.00000000000E+00 0.  1.
<mgrwt>
<rscale>  0 0.89295070E+03</rscale>
<asrwt>0</asrwt>
<pdfrwt beam="1">  1        2 0.25312665E+00 0.89295070E+03</pdfrwt>
<pdfrwt beam="2">  1       -2 0.88715562E-01 0.89295070E+03</pdfrwt>
<totfact> 0.11596692E+01</totfact>
</mgrwt>
</event>
<event>
12    1  0.9321077E-008  0.4836404E+03  0.7818608E-02  0.1018139E+00
          2   -1    0    0  501    0  0.00000000000E+00  0.00000000000E+00  0.20464918556E+04  0.20464918556E+04  0.00000000000E+00 0. -1.
         -2   -1    0    0    0  501 -0.00000000000E+00 -0.00000000000E+00 -0.18721574938E+03  0.18721574938E+03  0.00000000000E+00 0.  1.
         23    2    1    2    0    0 -0.32966271750E+03 -0.32597749021E+03  0.60172906845E+03  0.76514831406E+03  0.91843558625E+02 0.  0.
    5000000    2    1    2    0    0  0.32966271750E+03  0.32597749021E+03  0.12575470377E+04  0.14685592909E+04  0.60025245298E+03 0.  0.
         23    2    4    4    0    0  0.21498511862E+03  0.20581965431E+03  0.15094722011E+03  0.34569136048E+03  0.90205998266E+02 0.  0.
         23    2    4    4    0    0  0.11467759888E+03  0.12015783590E+03  0.11065998176E+04  0.11228679304E+04  0.93168533155E+02 0.  0.
          3    1    3    3  502    0 -0.13241528104E+03 -0.81318065288E+02  0.16006575139E+03  0.22308625947E+03  0.00000000000E+00 0. -1.
         -3    1    3    3    0  502 -0.19724743645E+03 -0.24465942492E+03  0.44166331706E+03  0.54206205459E+03  0.00000000000E+00 0.  1.
         15    1    5    5    0    0  0.54971711384E+02  0.89718364717E+01  0.14251322883E+02  0.57520786113E+02  0.17770000000E+01 0. -1.
        -15    1    5    5    0    0  0.16001340723E+03  0.19684781784E+03  0.13669589723E+03  0.28817057437E+03  0.17770000000E+01 0.  1.
          3    1    6    6  503    0  0.64717745082E+02  0.77282006175E+01  0.46894278797E+03  0.47345057820E+03  0.00000000000E+00 0. -1.
         -3    1    6    6    0  503  0.49959853796E+02  0.11242963528E+03  0.63765702966E+03  0.64941735221E+03  0.00000000000E+00 0.  1.
<mgrwt>
<rscale>  0 0.48364038E+03</rscale>
<asrwt>0</asrwt>
<pdfrwt beam="1">  1        2 0.31484489E+00 0.48364038E+03</pdfrwt>
<pdfrwt beam="2">  1       -2 0.28802424E-01 0.48364038E+03</pdfrwt>
<totfact> 0.74345701E+01</totfact>
</mgrwt>
</event>
<event>
12    1  0.9321077E-008  0.6611552E+03  0.7818608E-02  0.9786069E-01
          2   -1    0    0  501    0  0.00000000000E+00  0.00000000000E+00  0.24323311091E+04  0.24323311091E+04  0.00000000000E+00 0.  1.
         -2   -1    0    0    0  501 -0.00000000000E+00 -0.00000000000E+00 -0.27285997829E+03  0.27285997829E+03  0.00000000000E+00 0. -1.
         23    2    1    2    0    0 -0.20141262588E+03  0.48239626082E+03  0.17109201214E+04  0.17917023088E+04  0.98368201172E+02 0.  0.
    5000000    2    1    2    0    0  0.20141262588E+03 -0.48239626082E+03  0.44855100942E+03  0.91348877867E+03  0.59999211860E+03 0.  0.
         23    2    4    4    0    0  0.39550877422E+03 -0.23121879149E+03  0.28549041589E+03  0.54672875965E+03  0.86707779596E+02 0.  0.
         23    2    4    4    0    0 -0.19409614834E+03 -0.25117746933E+03  0.16306059354E+03  0.36676001902E+03  0.84621028659E+02 0.  0.
          4    1    3    3  502    0 -0.69023535693E+02  0.26147176080E+03  0.76712106039E+03  0.81339194209E+03  0.00000000000E+00 0. -1.
         -4    1    3    3    0  502 -0.13238909019E+03  0.22092450003E+03  0.94379906103E+03  0.97831036666E+03  0.00000000000E+00 0.  1.
         15    1    5    5    0    0  0.18213529880E+03 -0.57631173457E+02  0.12396018408E+03  0.22773647970E+03  0.17770000000E+01 0.  1.
        -15    1    5    5    0    0  0.21337347542E+03 -0.17358761803E+03  0.16153023181E+03  0.31899227994E+03  0.17770000000E+01 0. -1.
          1    1    6    6  503    0 -0.15632833052E+03 -0.13670492542E+03  0.95500495329E+02  0.22857630710E+03  0.00000000000E+00 0. -1.
         -1    1    6    6    0  503 -0.37767817811E+02 -0.11447254391E+03  0.67560098206E+02  0.13818371192E+03  0.00000000000E+00 0.  1.
<mgrwt>
<rscale>  0 0.66115523E+03</rscale>
<asrwt>0</asrwt>
<pdfrwt beam="1">  1        2 0.37420477E+00 0.66115523E+03</pdfrwt>
<pdfrwt beam="2">  1       -2 0.41978460E-01 0.66115523E+03</pdfrwt>
<totfact> 0.21686525E+01</totfact>
</mgrwt>
</event>
<event>
12    1  0.9321077E-008  0.3351758E+03  0.7818608E-02  0.1068869E+00
          3   -1    0    0  501    0  0.00000000000E+00  0.00000000000E+00  0.39159546470E+03  0.39159546470E+03  0.00000000000E+00 0. -1.
         -3   -1    0    0    0  501 -0.00000000000E+00 -0.00000000000E+00 -0.58627685491E+03  0.58627685491E+03  0.00000000000E+00 0.  1.
         23    2    1    2    0    0 -0.19302473637E+03 -0.20297724556E+03 -0.84418035977E+02  0.30664110289E+03  0.91891512748E+02 0.  0.
    5000000    2    1    2    0    0  0.19302473637E+03  0.20297724556E+03 -0.11026335423E+03  0.67123121672E+03  0.59994585418E+03 0.  0.
         23    2    4    4    0    0 -0.16660752562E+02 -0.55566164799E+01 -0.29592291239E+03  0.31040459498E+03  0.92044477530E+02 0.  0.
         23    2    4    4    0    0  0.20968548894E+03  0.20853386204E+03  0.18565955816E+03  0.36082662175E+03  0.90950555454E+02 0.  0.
          4    1    3    3  502    0 -0.86477097359E+02 -0.38862833202E+02 -0.34172332616E+01  0.94869835329E+02  0.00000000000E+00 0. -1.
         -4    1    3    3    0  502 -0.10654763901E+03 -0.16411441236E+03 -0.81000802715E+02  0.21177126756E+03  0.00000000000E+00 0.  1.
         15    1    5    5    0    0 -0.14269235923E+02 -0.42427120007E+02 -0.83241076314E+02  0.94529921829E+02  0.17770000000E+01 0.  1.
        -15    1    5    5    0    0 -0.23915166393E+01  0.36870503527E+02 -0.21268183607E+03  0.21587467315E+03  0.17770000000E+01 0. -1.
          2    1    6    6  503    0  0.41733031050E+02  0.64544174323E+02  0.93847516392E+02  0.12130520456E+03  0.00000000000E+00 0. -1.
         -2    1    6    6    0  503  0.16795245789E+03  0.14398968772E+03  0.91812041766E+02  0.23952141719E+03  0.00000000000E+00 0.  1.
<mgrwt>
<rscale>  0 0.33517585E+03</rscale>
<asrwt>0</asrwt>
<pdfrwt beam="1">  1        3 0.60245456E-01 0.33517585E+03</pdfrwt>
<pdfrwt beam="2">  1       -3 0.90196440E-01 0.33517585E+03</pdfrwt>
<totfact> 0.77435564E+00</totfact>
</mgrwt>
</event>
<event>
12    1  0.9321077E-008  0.9738866E+03  0.7818608E-02  0.9337658E-01
         -2   -1    0    0    0  501 -0.00000000000E+00  0.00000000000E+00  0.36506769332E+03  0.36506769332E+03  0.00000000000E+00 0.  1.
          2   -1    0    0  501    0  0.00000000000E+00 -0.00000000000E+00 -0.30177099500E+04  0.30177099500E+04  0.00000000000E+00 0. -1.
         23    2    1    2    0    0 -0.83231033694E+02 -0.92134849365E+03 -0.79775696009E+03  0.12249124486E+04  0.90464842383E+02 0.  0.
    5000000    2    1    2    0    0  0.83231033694E+02  0.92134849365E+03 -0.18548852966E+04  0.21578651947E+04  0.59997690226E+03 0.  0.
         23    2    4    4    0    0 -0.15669701906E+03  0.52397285828E+03 -0.60103274782E+03  0.81758787364E+03  0.90044739898E+02 0.  0.
         23    2    4    4    0    0  0.23992805276E+03  0.39737563537E+03 -0.12538525488E+04  0.13402773210E+04  0.93403518002E+02 0.  0.
          1    1    3    3  502    0  0.17483470355E+02 -0.25152054155E+03 -0.21216354676E+03  0.32951726075E+03  0.00000000000E+00 0. -1.
         -1    1    3    3    0  502 -0.10071450405E+03 -0.66982795210E+03 -0.58559341332E+03  0.89539518787E+03  0.00000000000E+00 0.  1.
         15    1    5    5    0    0 -0.16554411145E+03  0.45456544257E+03 -0.53619991075E+03  0.72218286911E+03  0.17770000000E+01 0. -1.
        -15    1    5    5    0    0  0.88470923904E+01  0.69407415709E+02 -0.64832837068E+02  0.95405004535E+02  0.17770000000E+01 0.  1.
          4    1    6    6  503    0  0.10009489584E+03  0.18267086659E+03 -0.43549785244E+03  0.48274839529E+03  0.00000000000E+00 0. -1.
         -4    1    6    6    0  503  0.13983315692E+03  0.21470476878E+03 -0.81835469632E+03  0.85752892575E+03  0.00000000000E+00 0.  1.
<mgrwt>
<rscale>  0 0.97388658E+03</rscale>
<asrwt>0</asrwt>
<pdfrwt beam="1">  1        2 0.46426309E+00 0.97388658E+03</pdfrwt>
<pdfrwt beam="2">  1       -2 0.56164259E-01 0.97388658E+03</pdfrwt>
<totfact> 0.51883197E+00</totfact>
</mgrwt>
</event>
<event>
12    1  0.9321077E-008  0.1019049E+04  0.7818608E-02  0.9287896E-01
         -2   -1    0    0    0  501 -0.00000000000E+00  0.00000000000E+00  0.13671314318E+04  0.13671314318E+04  0.00000000000E+00 0.  1.
          2   -1    0    0  501    0  0.00000000000E+00 -0.00000000000E+00 -0.88826706269E+03  0.88826706269E+03  0.00000000000E+00 0. -1.
         23    2    1    2    0    0 -0.76865064287E+03  0.66459203377E+03  0.15079333303E+03  0.10306397298E+04  0.83505935499E+02 0.  0.
    5000000    2    1    2    0    0  0.76865064287E+03 -0.66459203377E+03  0.32807103604E+03  0.12247587646E+04  0.59991419782E+03 0.  0.
         23    2    4    4    0    0  0.42771444902E+03 -0.41544768803E+03 -0.10643900942E+03  0.61195796328E+03  0.87331865335E+02 0.  0.
         23    2    4    4    0    0  0.34093619385E+03 -0.24914434573E+03  0.43451004545E+03  0.61280080135E+03  0.91735757779E+02 0.  0.
          2    1    3    3  502    0 -0.32050441337E+03  0.32021130313E+03  0.93072462293E+02  0.46251577366E+03  0.00000000000E+00 0.  1.
         -2    1    3    3    0  502 -0.44814622950E+03  0.34438073063E+03  0.57720870741E+02  0.56812395616E+03  0.00000000000E+00 0. -1.
         15    1    5    5    0    0  0.29466152472E+03 -0.26094029752E+03 -0.32033440614E+02  0.39489815404E+03  0.17770000000E+01 0. -1.
        -15    1    5    5    0    0  0.13305292431E+03 -0.15450739051E+03 -0.74405568805E+02  0.21705980924E+03  0.17770000000E+01 0.  1.
          2    1    6    6  503    0  0.31573590877E+03 -0.22791470097E+03  0.35580505640E+03  0.52747655224E+03  0.00000000000E+00 0. -1.
         -2    1    6    6    0  503  0.25200285074E+02 -0.21229644765E+02  0.78704989054E+02  0.85324249112E+02  0.00000000000E+00 0.  1.
<mgrwt>
<rscale>  0 0.10190487E+04</rscale>
<asrwt>0</asrwt>
<pdfrwt beam="1">  1        2 0.13665647E+00 0.10190487E+04</pdfrwt>
<pdfrwt beam="2">  1       -2 0.21032791E+00 0.10190487E+04</pdfrwt>
<totfact> 0.33730457E+00</totfact>
</mgrwt>
</event>
<event>
12    1  0.9321077E-008  0.5986028E+03  0.7818608E-02  0.9908309E-01
          4   -1    0    0  501    0  0.00000000000E+00  0.00000000000E+00  0.93338248785E+03  0.93338248785E+03  0.00000000000E+00 0. -1.
         -4   -1    0    0    0  501 -0.00000000000E+00 -0.00000000000E+00 -0.65610780864E+03  0.65610780864E+03  0.00000000000E+00 0.  1.
         23    2    1    2    0    0  0.49098159975E+03  0.13323597751E+03  0.55224917959E+03  0.75604479907E+03  0.88373213442E+02 0.  0.
    5000000    2    1    2    0    0 -0.49098159975E+03 -0.13323597751E+03 -0.27497450038E+03  0.83344549742E+03  0.60017136246E+03 0.  0.
         23    2    4    4    0    0 -0.30410960060E+03 -0.29893459360E+03  0.21090190100E+02  0.43613884480E+03  0.89037943602E+02 0.  0.
         23    2    4    4    0    0 -0.18687199915E+03  0.16569861610E+03 -0.29606469048E+03  0.39730665262E+03  0.88436982210E+02 0.  0.
          3    1    3    3  502    0  0.46896096598E+03  0.14255330362E+03  0.50902950216E+03  0.70665187048E+03  0.00000000000E+00 0. -1.
         -3    1    3    3    0  502  0.22020633766E+02 -0.93173261162E+01  0.43219677434E+02  0.49392928592E+02  0.00000000000E+00 0.  1.
         15    1    5    5    0    0 -0.25049497787E+03 -0.27887873080E+03  0.37033401938E+02  0.37669047110E+03  0.17770000000E+01 0. -1.
        -15    1    5    5    0    0 -0.53614622729E+02 -0.20055862800E+02 -0.15943211838E+02  0.59448373701E+02  0.17770000000E+01 0.  1.
          3    1    6    6  503    0 -0.10974933374E+03  0.11349842407E+03 -0.24396676373E+03  0.29059695512E+03  0.00000000000E+00 0. -1.
         -3    1    6    6    0  503 -0.77122665409E+02  0.52200192025E+02 -0.52097926750E+02  0.10670969749E+03  0.00000000000E+00 0.  1.
<mgrwt>
<rscale>  0 0.59860283E+03</rscale>
<asrwt>0</asrwt>
<pdfrwt beam="1">  1        4 0.14359731E+00 0.59860283E+03</pdfrwt>
<pdfrwt beam="2">  1       -4 0.10093966E+00 0.59860283E+03</pdfrwt>
<totfact> 0.52870941E-01</totfact>
</mgrwt>
</event>
<event>
12    1  0.2041379E-007  0.1244822E+04  0.7818608E-02  0.9074504E-01
         -1   -1    0    0    0  501 -0.00000000000E+00  0.00000000000E+00  0.12166873594E+04  0.12166873594E+04  0.00000000000E+00 0.  1.
          1   -1    0    0  501    0  0.00000000000E+00 -0.00000000000E+00 -0.15140277205E+04  0.15140277205E+04  0.00000000000E+00 0. -1.
         23    2    1    2    0    0  0.37287170675E+03  0.11511796762E+04  0.30573082482E+03  0.12515392452E+04  0.92904188571E+02 0.  0.
    5000000    2    1    2    0    0 -0.37287170675E+03 -0.11511796762E+04 -0.60307118596E+03  0.14791758348E+04  0.60001528157E+03 0.  0.
         23    2    4    4    0    0 -0.12414801549E+03 -0.93065874383E+03 -0.62859934313E+03  0.11336849169E+04  0.92552306354E+02 0.  0.
         23    2    4    4    0    0 -0.24872369126E+03 -0.22052093241E+03  0.25528157169E+02  0.34549091786E+03  0.90660527720E+02 0.  0.
          3    1    3    3  502    0  0.19345000589E+03  0.70327343060E+03  0.15129554096E+03  0.74492064254E+03  0.00000000000E+00 0. -1.
         -3    1    3    3    0  502  0.17942170086E+03  0.44790624565E+03  0.15443528386E+03  0.50661860263E+03  0.00000000000E+00 0.  1.
         15    1    5    5    0    0 -0.29739875636E+01 -0.32982328771E+03 -0.24053511564E+03  0.40823099503E+03  0.17770000000E+01 0.  1.
        -15    1    5    5    0    0 -0.12117402792E+03 -0.60083545612E+03 -0.38806422749E+03  0.72545392187E+03  0.17770000000E+01 0. -1.
          1    1    6    6  503    0 -0.78808751103E+02 -0.45344279154E+02  0.43484917758E+02  0.10078621421E+03  0.00000000000E+00 0. -1.
         -1    1    6    6    0  503 -0.16991494016E+03 -0.17517665326E+03 -0.17956760589E+02  0.24470470365E+03  0.00000000000E+00 0.  1.
<mgrwt>
<rscale>  0 0.12448225E+04</rscale>
<asrwt>0</asrwt>
<pdfrwt beam="1">  1        1 0.23292734E+00 0.12448225E+04</pdfrwt>
<pdfrwt beam="2">  1       -1 0.18718267E+00 0.12448225E+04</pdfrwt>
<totfact> 0.11532081E+00</totfact>
</mgrwt>
</event>
<event>
12    1  0.9321077E-008  0.1510998E+04  0.7818608E-02  0.8877172E-01
          2   -1    0    0  501    0  0.00000000000E+00  0.00000000000E+00  0.14820762966E+04  0.14820762966E+04  0.00000000000E+00 0. -1.
         -2   -1    0    0    0  501 -0.00000000000E+00 -0.00000000000E+00 -0.17183476200E+04  0.17183476200E+04  0.00000000000E+00 0.  1.
         23    2    1    2    0    0  0.11218835004E+04  0.93110356342E+03 -0.60513951652E+03  0.15812579378E+04  0.92770668968E+02 0.  0.
    5000000    2    1    2    0    0 -0.11218835004E+04 -0.93110356342E+03  0.36886819312E+03  0.16191659788E+04  0.60004857203E+03 0.  0.
         23    2    4    4    0    0 -0.98458560032E+03 -0.49177088921E+03  0.30485835617E+03  0.11456776465E+04  0.91603714910E+02 0.  0.
         23    2    4    4    0    0 -0.13729790006E+03 -0.43933267421E+03  0.64009836958E+02  0.47348833229E+03  0.90719510558E+02 0.  0.
          4    1    3    3  502    0  0.10215731869E+04  0.81124926559E+03 -0.53507211157E+03  0.14099784792E+04  0.00000000000E+00 0. -1.
         -4    1    3    3    0  502  0.10031031345E+03  0.11985429783E+03 -0.70067404950E+02  0.17127945857E+03  0.00000000000E+00 0.  1.
         15    1    5    5    0    0 -0.22893886161E+02 -0.95971526095E+01  0.22233912299E+02  0.33372742573E+02  0.17770000000E+01 0. -1.
        -15    1    5    5    0    0 -0.96169171416E+03 -0.48217373660E+03  0.28262444387E+03  0.11123049039E+04  0.17770000000E+01 0.  1.
          3    1    6    6  503    0 -0.19758557422E+02 -0.48040091909E+02 -0.21248011013E+02  0.56122446437E+02  0.00000000000E+00 0. -1.
         -3    1    6    6    0  503 -0.11753934264E+03 -0.39129258230E+03  0.85257847971E+02  0.41736588585E+03  0.00000000000E+00 0.  1.
<mgrwt>
<rscale>  0 0.15109979E+04</rscale>
<asrwt>0</asrwt>
<pdfrwt beam="1">  1        2 0.22801174E+00 0.15109979E+04</pdfrwt>
<pdfrwt beam="2">  1       -2 0.26436117E+00 0.15109979E+04</pdfrwt>
<totfact> 0.64056522E-01</totfact>
</mgrwt>
</event>
<event>
12    1  0.9321077E-008  0.8985879E+03  0.7818608E-02  0.9427348E-01
         -2   -1    0    0    0  501 -0.00000000000E+00  0.00000000000E+00  0.26798291851E+03  0.26798291851E+03  0.00000000000E+00 0.  1.
          2   -1    0    0  501    0  0.00000000000E+00 -0.00000000000E+00 -0.31209656209E+04  0.31209656209E+04  0.00000000000E+00 0. -1.
         23    2    1    2    0    0 -0.76684523884E+03  0.24402449623E+03 -0.10586905758E+04  0.13329354188E+04  0.91057785338E+02 0.  0.
    5000000    2    1    2    0    0  0.76684523884E+03 -0.24402449623E+03 -0.17942921266E+04  0.20560131206E+04  0.60008844477E+03 0.  0.
         23    2    4    4    0    0 -0.76759477387E+02 -0.82169635739E+01 -0.13232523747E+03  0.17526862830E+03  0.85144510892E+02 0.  0.
         23    2    4    4    0    0  0.84360471622E+03 -0.23580753266E+03 -0.16619668891E+04  0.18807444923E+04  0.88271145877E+02 0.  0.
          1    1    3    3  502    0 -0.13375944919E+03  0.79174017339E+02 -0.19068409387E+03  0.24600922528E+03  0.00000000000E+00 0. -1.
         -1    1    3    3    0  502 -0.63308578965E+03  0.16485047889E+03 -0.86800648196E+03  0.10869261935E+04  0.00000000000E+00 0.  1.
         15    1    5    5    0    0 -0.30069547574E+02 -0.40669022974E+02 -0.31823191308E+02  0.59783110951E+02  0.17770000000E+01 0. -1.
        -15    1    5    5    0    0 -0.46689929813E+02  0.32452059400E+02 -0.10050204616E+03  0.11548551735E+03  0.17770000000E+01 0.  1.
          3    1    6    6  503    0  0.28869976740E+03 -0.12290450672E+03 -0.61746280819E+03  0.69261345134E+03  0.00000000000E+00 0. -1.
         -3    1    6    6    0  503  0.55490494882E+03 -0.11290302593E+03 -0.10445040809E+04  0.11881310410E+04  0.00000000000E+00 0.  1.
<mgrwt>
<rscale>  0 0.89858795E+03</rscale>
<asrwt>0</asrwt>
<pdfrwt beam="1">  1        2 0.48014852E+00 0.89858795E+03</pdfrwt>
<pdfrwt beam="2">  1       -2 0.41228145E-01 0.89858795E+03</pdfrwt>
<totfact> 0.84669743E+00</totfact>
</mgrwt>
</event>
<event>
12    1  0.9321077E-008  0.5551173E+03  0.7818608E-02  0.1000316E+00
          3   -1    0    0  501    0  0.00000000000E+00  0.00000000000E+00  0.19002097544E+03  0.19002097544E+03  0.00000000000E+00 0. -1.
         -3   -1    0    0    0  501 -0.00000000000E+00 -0.00000000000E+00 -0.35678127385E+04  0.35678127385E+04  0.00000000000E+00 0.  1.
         23    2    1    2    0    0  0.15134665496E+02 -0.53035643375E+03 -0.25491028690E+04  0.26053513661E+04  0.91778534425E+02 0.  0.
    5000000    2    1    2    0    0 -0.15134665496E+02  0.53035643375E+03 -0.82868889405E+03  0.11524823478E+04  0.59998606143E+03 0.  0.
         23    2    4    4    0    0  0.42562516492E+02  0.53577321476E+02  0.67156718141E+02  0.13199499208E+03  0.90722411546E+02 0.  0.
         23    2    4    4    0    0 -0.57697181988E+02  0.47677911227E+03 -0.89584561219E+03  0.10204873557E+04  0.90596884938E+02 0.  0.
          3    1    3    3  502    0 -0.15798951495E+02 -0.18564032995E+03 -0.71476918309E+03  0.73865209948E+03  0.00000000000E+00 0. -1.
         -3    1    3    3    0  502  0.30933616991E+02 -0.34471610379E+03 -0.18343336859E+04  0.18666992666E+04  0.00000000000E+00 0.  1.
         15    1    5    5    0    0 -0.14225430096E+02  0.11977524409E+02  0.58061663366E+02  0.60992937576E+02  0.17770000000E+01 0.  1.
        -15    1    5    5    0    0  0.56787946587E+02  0.41599797068E+02  0.90950547746E+01  0.71002054506E+02  0.17770000000E+01 0. -1.
          2    1    6    6  503    0  0.23465930947E+02  0.16003069132E+03 -0.29445205348E+03  0.33595012111E+03  0.00000000000E+00 0. -1.
         -2    1    6    6    0  503 -0.81163112935E+02  0.31674842095E+03 -0.60139355871E+03  0.68453723458E+03  0.00000000000E+00 0.  1.
<mgrwt>
<rscale>  0 0.55511725E+03</rscale>
<asrwt>0</asrwt>
<pdfrwt beam="1">  1        3 0.29233994E-01 0.55511725E+03</pdfrwt>
<pdfrwt beam="2">  1       -3 0.54889430E+00 0.55511725E+03</pdfrwt>
<totfact> 0.54843773E-02</totfact>
</mgrwt>
</event>
<event>
12    1  0.9321077E-008  0.7759113E+03  0.7818608E-02  0.9595554E-01
         -2   -1    0    0    0  501 -0.00000000000E+00  0.00000000000E+00  0.25090988516E+03  0.25090988516E+03  0.00000000000E+00 0.  1.
          2   -1    0    0  501    0  0.00000000000E+00 -0.00000000000E+00 -0.28672161667E+04  0.28672161667E+04  0.00000000000E+00 0. -1.
         23    2    1    2    0    0 -0.40302830066E+03  0.55891663747E+03 -0.16389024100E+04  0.17801561907E+04  0.90196091344E+02 0.  0.
    5000000    2    1    2    0    0  0.40302830066E+03 -0.55891663747E+03 -0.97740387150E+03  0.13379698612E+04  0.60002116842E+03 0.  0.
         23    2    4    4    0    0  0.14192089429E+03 -0.56872306236E+03 -0.45734404772E+03  0.74915089372E+03  0.92065312008E+02 0.  0.
         23    2    4    4    0    0  0.26110740637E+03  0.98064248905E+01 -0.52005982378E+03  0.58881896743E+03  0.89287806942E+02 0.  0.
          1    1    3    3  502    0 -0.29520930449E+03  0.35227053751E+03 -0.11534294175E+04  0.12416289647E+04  0.00000000000E+00 0. -1.
         -1    1    3    3    0  502 -0.10781899617E+03  0.20664609997E+03 -0.48547299257E+03  0.53852722594E+03  0.00000000000E+00 0.  1.
         15    1    5    5    0    0  0.74764983867E+02 -0.45561444423E+03 -0.36110663067E+03  0.58615312083E+03  0.17770000000E+01 0. -1.
        -15    1    5    5    0    0  0.67155910421E+02 -0.11310861813E+03 -0.96237417049E+02  0.16299777289E+03  0.17770000000E+01 0.  1.
          3    1    6    6  503    0  0.30460635561E+02  0.17418885348E+02 -0.13871135496E+03  0.14308077397E+03  0.00000000000E+00 0. -1.
         -3    1    6    6    0  503  0.23064677081E+03 -0.76124604574E+01 -0.38134846882E+03  0.44573819346E+03  0.00000000000E+00 0.  1.
<mgrwt>
<rscale>  0 0.77591125E+03</rscale>
<asrwt>0</asrwt>
<pdfrwt beam="1">  1        2 0.44111019E+00 0.77591125E+03</pdfrwt>
<pdfrwt beam="2">  1       -2 0.38601519E-01 0.77591125E+03</pdfrwt>
<totfact> 0.14048126E+01</totfact>
</mgrwt>
</event>
<event>
12    1  0.9321077E-008  0.9525692E+03  0.7818608E-02  0.9362153E-01
         -1   -1    0    0    0  501 -0.00000000000E+00  0.00000000000E+00  0.10581360684E+04  0.10581360684E+04  0.00000000000E+00 0.  1.
          1   -1    0    0  501    0  0.00000000000E+00 -0.00000000000E+00 -0.98972634944E+03  0.98972634944E+03  0.00000000000E+00 0. -1.
         23    2    1    2    0    0  0.90504790298E+03 -0.22591108789E+03  0.52190472568E+02  0.93863809817E+03  0.90388647462E+02 0.  0.
    5000000    2    1    2    0    0 -0.90504790298E+03  0.22591108789E+03  0.16219246342E+02  0.11092243196E+04  0.59997333355E+03 0.  0.
         23    2    4    4    0    0 -0.25516335906E+03 -0.58612860322E+02  0.23062501632E+03  0.36246586074E+03  0.98233369318E+02 0.  0.
         23    2    4    4    0    0 -0.64988454392E+03  0.28452394821E+03 -0.21440576998E+03  0.74675845888E+03  0.91512644931E+02 0.  0.
          1    1    3    3  502    0  0.71123621041E+03 -0.16623429122E+03  0.76478553457E+02  0.73439754610E+03  0.00000000000E+00 0.  1.
         -1    1    3    3    0  502  0.19381169257E+03 -0.59676796670E+02 -0.24288080889E+02  0.20424055208E+03  0.00000000000E+00 0. -1.
         15    1    5    5    0    0 -0.12102219587E+03 -0.18497555042E+02  0.46106235013E+02  0.13083376503E+03  0.17770000000E+01 0.  1.
        -15    1    5    5    0    0 -0.13414116320E+03 -0.40115305280E+02  0.18451878131E+03  0.23163209571E+03  0.17770000000E+01 0. -1.
          4    1    6    6  503    0 -0.37280853561E+03  0.16731512573E+03 -0.76165360995E+02  0.41567020309E+03  0.00000000000E+00 0. -1.
         -4    1    6    6    0  503 -0.27707600831E+03  0.11720882248E+03 -0.13824040898E+03  0.33108825579E+03  0.00000000000E+00 0.  1.
<mgrwt>
<rscale>  0 0.95256919E+03</rscale>
<asrwt>0</asrwt>
<pdfrwt beam="1">  1        1 0.15226559E+00 0.95256919E+03</pdfrwt>
<pdfrwt beam="2">  1       -1 0.16279016E+00 0.95256919E+03</pdfrwt>
<totfact> 0.43280562E+00</totfact>
</mgrwt>
</event>
<event>
12    1  0.9321077E-008  0.6502295E+03  0.7818608E-02  0.9806349E-01
         -1   -1    0    0    0  501 -0.00000000000E+00  0.00000000000E+00  0.82135422798E+03  0.82135422798E+03  0.00000000000E+00 0.  1.
          1   -1    0    0  501    0  0.00000000000E+00 -0.00000000000E+00 -0.53976410737E+03  0.53976410737E+03  0.00000000000E+00 0. -1.
         23    2    1    2    0    0  0.15025286800E+03  0.50247583673E+03  0.72194217619E+02  0.53728392207E+03  0.91673971309E+02 0.  0.
    5000000    2    1    2    0    0 -0.15025286800E+03 -0.50247583673E+03  0.20939590299E+03  0.82383441328E+03  0.59983214774E+03 0.  0.
         23    2    4    4    0    0 -0.99958613627E+02  0.11032011793E+03  0.39007822920E+02  0.17918826309E+03  0.91785459215E+02 0.  0.
         23    2    4    4    0    0 -0.50294254375E+02 -0.61279595466E+03  0.17038808007E+03  0.64464615018E+03  0.92131249020E+02 0.  0.
          1    1    3    3  502    0  0.65601968492E+02  0.15879109259E+03  0.63664462032E+02  0.18322497942E+03  0.00000000000E+00 0. -1.
         -1    1    3    3    0  502  0.84650899510E+02  0.34368474414E+03  0.85297555870E+01  0.35405894265E+03  0.00000000000E+00 0.  1.
         15    1    5    5    0    0 -0.87380344045E+01  0.40147437252E+02  0.48625343741E+02  0.63684784259E+02  0.17770000000E+01 0.  1.
        -15    1    5    5    0    0 -0.91220579223E+02  0.70172680675E+02 -0.96175208208E+01  0.11550347883E+03  0.17770000000E+01 0. -1.
          4    1    6    6  503    0  0.13731168347E+02 -0.22514413022E+03  0.94105450447E+02  0.24440593316E+03  0.00000000000E+00 0. -1.
         -4    1    6    6    0  503 -0.64025422722E+02 -0.38765182443E+03  0.76282629622E+02  0.40024021703E+03  0.00000000000E+00 0.  1.
<mgrwt>
<rscale>  0 0.65022951E+03</rscale>
<asrwt>0</asrwt>
<pdfrwt beam="1">  1        1 0.83040632E-01 0.65022951E+03</pdfrwt>
<pdfrwt beam="2">  1       -1 0.12636219E+00 0.65022951E+03</pdfrwt>
<totfact> 0.22504717E+01</totfact>
</mgrwt>
</event>
<event>
12    1  0.9321077E-008  0.5165582E+03  0.7818608E-02  0.1009545E+00
         -2   -1    0    0    0  501 -0.00000000000E+00  0.00000000000E+00  0.18599179255E+03  0.18599179255E+03  0.00000000000E+00 0.  1.
          2   -1    0    0  501    0  0.00000000000E+00 -0.00000000000E+00 -0.26163140685E+04  0.26163140685E+04  0.00000000000E+00 0. -1.
         23    2    1    2    0    0  0.20306500971E+03  0.44242724314E+03 -0.42276319492E+03  0.65123560039E+03  0.91661467333E+02 0.  0.
    5000000    2    1    2    0    0 -0.20306500971E+03 -0.44242724314E+03 -0.20075590810E+04  0.21510702606E+04  0.59986043280E+03 0.  0.
         23    2    4    4    0    0 -0.15506535213E+03 -0.93365067651E+02 -0.15627941153E+04  0.15756159435E+04  0.86474594208E+02 0.  0.
         23    2    4    4    0    0 -0.47999657577E+02 -0.34906217549E+03 -0.44476496569E+03  0.57545431708E+03  0.95830198031E+02 0.  0.
          2    1    3    3  502    0  0.88935171687E+02  0.11133989793E+03 -0.92674558328E+02  0.16998415042E+03  0.00000000000E+00 0.  1.
         -2    1    3    3    0  502  0.11412983802E+03  0.33108734522E+03 -0.33008863659E+03  0.48125144997E+03  0.00000000000E+00 0. -1.
         15    1    5    5    0    0 -0.71035786461E+02 -0.20049092368E+02 -0.34991013245E+03  0.35761474743E+03  0.17770000000E+01 0.  1.
        -15    1    5    5    0    0 -0.84029565667E+02 -0.73315975283E+02 -0.12128839828E+04  0.12180011961E+04  0.17770000000E+01 0. -1.
          4    1    6    6  503    0 -0.24976205779E+02 -0.29787180642E+03 -0.31595994395E+03  0.43495069847E+03  0.00000000000E+00 0. -1.
         -4    1    6    6    0  503 -0.23023451799E+02 -0.51190369071E+02 -0.12880502174E+03  0.14050361861E+03  0.00000000000E+00 0.  1.
<mgrwt>
<rscale>  0 0.51655820E+03</rscale>
<asrwt>0</asrwt>
<pdfrwt beam="1">  1        2 0.40250983E+00 0.51655820E+03</pdfrwt>
<pdfrwt beam="2">  1       -2 0.28614124E-01 0.51655820E+03</pdfrwt>
<totfact> 0.36279070E+01</totfact>
</mgrwt>
</event>
<event>
12    1  0.9321077E-008  0.7536417E+03  0.7818608E-02  0.9629654E-01
          2   -1    0    0  501    0  0.00000000000E+00  0.00000000000E+00  0.89084439868E+03  0.89084439868E+03  0.00000000000E+00 0. -1.
         -2   -1    0    0    0  501 -0.00000000000E+00 -0.00000000000E+00 -0.12021722004E+04  0.12021722004E+04  0.00000000000E+00 0.  1.
         23    2    1    2    0    0 -0.23887466380E+03  0.64183963310E+03  0.51630647687E+03  0.86244964886E+03  0.90707216579E+02 0.  0.
    5000000    2    1    2    0    0  0.23887466380E+03 -0.64183963310E+03 -0.82763427854E+03  0.12305669502E+04  0.60024769906E+03 0.  0.
         23    2    4    4    0    0  0.33970011710E+03 -0.29659171888E+03 -0.20083038345E+03  0.50215646624E+03  0.92007914887E+02 0.  0.
         23    2    4    4    0    0 -0.10082545330E+03 -0.34524791422E+03 -0.62680389509E+03  0.72841048394E+03  0.91306165729E+02 0.  0.
          4    1    3    3  502    0 -0.12707799032E+03  0.24121936042E+03  0.23886805518E+03  0.36248247302E+03  0.00000000000E+00 0. -1.
         -4    1    3    3    0  502 -0.11179667348E+03  0.40062027268E+03  0.27743842169E+03  0.49996717584E+03  0.00000000000E+00 0.  1.
         15    1    5    5    0    0  0.67219208693E+02 -0.10949563715E+03 -0.40052798912E+02  0.13459235120E+03  0.17770000000E+01 0. -1.
        -15    1    5    5    0    0  0.27248090841E+03 -0.18709608174E+03 -0.16077758454E+03  0.36756411504E+03  0.17770000000E+01 0.  1.
          3    1    6    6  503    0 -0.87461083353E+02 -0.29591181511E+03 -0.45965426951E+03  0.55362016844E+03  0.00000000000E+00 0. -1.
         -3    1    6    6    0  503 -0.13364369947E+02 -0.49336099104E+02 -0.16714962558E+03  0.17479031549E+03  0.00000000000E+00 0.  1.
<mgrwt>
<rscale>  0 0.75364171E+03</rscale>
<asrwt>0</asrwt>
<pdfrwt beam="1">  1        2 0.13705299E+00 0.75364171E+03</pdfrwt>
<pdfrwt beam="2">  1       -2 0.18494957E+00 0.75364171E+03</pdfrwt>
<totfact> 0.50884390E+00</totfact>
</mgrwt>
</event>
<event>
12    1  0.9321077E-008  0.3337197E+03  0.7818608E-02  0.1069503E+00
          2   -1    0    0  501    0  0.00000000000E+00  0.00000000000E+00  0.75001704760E+03  0.75001704760E+03  0.00000000000E+00 0. -1.
         -2   -1    0    0    0  501 -0.00000000000E+00 -0.00000000000E+00 -0.40310565521E+03  0.40310565521E+03  0.00000000000E+00 0.  1.
         23    2    1    2    0    0 -0.20835959696E+03 -0.22636805261E+03 -0.10889412441E+03  0.33923001161E+03  0.92535688001E+02 0.  0.
    5000000    2    1    2    0    0  0.20835959696E+03  0.22636805261E+03  0.45580551681E+03  0.81389269120E+03  0.60000535560E+03 0.  0.
         23    2    4    4    0    0  0.19050026279E+03  0.15853145391E+03  0.58490236390E+03  0.64122196162E+03  0.87362788193E+02 0.  0.
         23    2    4    4    0    0  0.17859334166E+02  0.67836598704E+02 -0.12909684710E+03  0.17267072958E+03  0.90710666311E+02 0.  0.
          1    1    3    3  502    0 -0.12930270173E+03 -0.88357235398E+02 -0.85622084825E+02  0.17848622112E+03  0.00000000000E+00 0.  1.
         -1    1    3    3    0  502 -0.79056895231E+02 -0.13801081722E+03 -0.23272039588E+02  0.16074379048E+03  0.00000000000E+00 0. -1.
         15    1    5    5    0    0  0.14313768386E+03  0.13190323184E+03  0.35380948098E+03  0.40382070981E+03  0.17770000000E+01 0. -1.
        -15    1    5    5    0    0  0.47362578929E+02  0.26628222067E+02  0.23109288292E+03  0.23740125181E+03  0.17770000000E+01 0.  1.
          3    1    6    6  503    0  0.46613546518E+02  0.30779528918E+02 -0.10725714374E+03  0.12093095966E+03  0.00000000000E+00 0. -1.
         -3    1    6    6    0  503 -0.28754212352E+02  0.37057069786E+02 -0.21839703352E+02  0.51739769922E+02  0.00000000000E+00 0.  1.
<mgrwt>
<rscale>  0 0.33371969E+03</rscale>
<asrwt>0</asrwt>
<pdfrwt beam="1">  1        2 0.11538724E+00 0.33371969E+03</pdfrwt>
<pdfrwt beam="2">  1       -2 0.62016255E-01 0.33371969E+03</pdfrwt>
<totfact> 0.95294187E+01</totfact>
</mgrwt>
</event>
<event>
12    1  0.9321077E-008  0.3382946E+03  0.7818608E-02  0.1067525E+00
         -4   -1    0    0    0  501 -0.00000000000E+00  0.00000000000E+00  0.35340902474E+03  0.35340902474E+03  0.00000000000E+00 0.  1.
          4   -1    0    0  501    0  0.00000000000E+00 -0.00000000000E+00 -0.47694877427E+03  0.47694877427E+03  0.00000000000E+00 0. -1.
         23    2    1    2    0    0  0.17320751156E+03  0.10351095819E+02  0.89396788071E+00  0.19334845990E+03  0.85292675657E+02 0.  0.
    5000000    2    1    2    0    0 -0.17320751156E+03 -0.10351095819E+02 -0.12443371740E+03  0.63700933911E+03  0.60015761333E+03 0.  0.
         23    2    4    4    0    0 -0.25368068152E+03 -0.14734424604E+03  0.12148014090E+03  0.33013058293E+03  0.90357966613E+02 0.  0.
         23    2    4    4    0    0  0.80473169963E+02  0.13699315023E+03 -0.24591385831E+03  0.30687875618E+03  0.91966792900E+02 0.  0.
          4    1    3    3  502    0  0.27858861037E+01 -0.20042720518E+02 -0.77669296523E-02  0.20235411226E+02  0.00000000000E+00 0. -1.
         -4    1    3    3    0  502  0.17042162546E+03  0.30393816337E+02  0.90173481036E+00  0.17311304867E+03  0.00000000000E+00 0.  1.
         15    1    5    5    0    0 -0.49792042491E+02 -0.64099495374E+02  0.58758765442E+01  0.81398258315E+02  0.17770000000E+01 0. -1.
        -15    1    5    5    0    0 -0.20388863903E+03 -0.83244750671E+02  0.11560426436E+03  0.24873232461E+03  0.17770000000E+01 0.  1.
          4    1    6    6  503    0  0.93215719758E+02  0.78227560394E+02 -0.14384888845E+03  0.18841768581E+03  0.00000000000E+00 0. -1.
         -4    1    6    6    0  503 -0.12742549796E+02  0.58765589831E+02 -0.10206496986E+03  0.11846107038E+03  0.00000000000E+00 0.  1.
<mgrwt>
<rscale>  0 0.33829464E+03</rscale>
<asrwt>0</asrwt>
<pdfrwt beam="1">  1        4 0.73376734E-01 0.33829464E+03</pdfrwt>
<pdfrwt beam="2">  1       -4 0.54370619E-01 0.33829464E+03</pdfrwt>
<totfact> 0.10367499E+01</totfact>
</mgrwt>
</event>
<event>
12    1  0.9321077E-008  0.4732589E+03  0.7818608E-02  0.1021004E+00
         -2   -1    0    0    0  501 -0.00000000000E+00  0.00000000000E+00  0.39447259447E+03  0.39447259447E+03  0.00000000000E+00 0.  1.
          2   -1    0    0  501    0  0.00000000000E+00 -0.00000000000E+00 -0.73390475214E+03  0.73390475214E+03  0.00000000000E+00 0. -1.
         23    2    1    2    0    0 -0.28526838992E+03 -0.11579075345E+03 -0.32090303433E+03  0.45393662470E+03  0.91072218221E+02 0.  0.
    5000000    2    1    2    0    0  0.28526838992E+03  0.11579075345E+03 -0.18529123351E+02  0.67444072191E+03  0.59978446636E+03 0.  0.
         23    2    4    4    0    0 -0.93321076270E+02  0.20112963219E+03 -0.11051197642E+03  0.26403632306E+03  0.91325411265E+02 0.  0.
         23    2    4    4    0    0  0.37858946619E+03 -0.85338878732E+02  0.91982853067E+02  0.41040439885E+03  0.96737878874E+02 0.  0.
          2    1    3    3  502    0 -0.13595451777E+03 -0.10273243815E+03 -0.18638312417E+03  0.25253960823E+03  0.00000000000E+00 0. -1.
         -2    1    3    3    0  502 -0.14931387214E+03 -0.13058315305E+02 -0.13451991016E+03  0.20139701647E+03  0.00000000000E+00 0.  1.
         15    1    5    5    0    0  0.94518645132E+01  0.72152934599E+02 -0.50227545155E+02  0.88438383835E+02  0.17770000000E+01 0. -1.
        -15    1    5    5    0    0 -0.10277294078E+03  0.12897669759E+03 -0.60284431263E+02  0.17559793922E+03  0.17770000000E+01 0.  1.
          2    1    6    6  503    0  0.21011807493E+03 -0.38100697306E+02  0.98822012893E+02  0.23530205860E+03  0.00000000000E+00 0.  1.
         -2    1    6    6    0  503  0.16847139125E+03 -0.47238181426E+02 -0.68391598258E+01  0.17510234025E+03  0.00000000000E+00 0. -1.
<mgrwt>
<rscale>  0 0.47325891E+03</rscale>
<asrwt>0</asrwt>
<pdfrwt beam="1">  1        2 0.11290842E+00 0.47325891E+03</pdfrwt>
<pdfrwt beam="2">  1       -2 0.60688092E-01 0.47325891E+03</pdfrwt>
<totfact> 0.10083803E+02</totfact>
</mgrwt>
</event>
<event>
12    1  0.9321077E-008  0.1170207E+04  0.7818608E-02  0.9139342E-01
          1   -1    0    0  501    0  0.00000000000E+00  0.00000000000E+00  0.16009588403E+04  0.16009588403E+04  0.00000000000E+00 0. -1.
         -1   -1    0    0    0  501 -0.00000000000E+00 -0.00000000000E+00 -0.16944724358E+04  0.16944724358E+04  0.00000000000E+00 0.  1.
         23    2    1    2    0    0 -0.94429421719E+03  0.57940627750E+03 -0.11876443859E+04  0.16267205231E+04  0.91199067447E+02 0.  0.
    5000000    2    1    2    0    0  0.94429421719E+03 -0.57940627750E+03  0.10941307904E+04  0.16687107530E+04  0.60005848691E+03 0.  0.
         23    2    4    4    0    0  0.37517777459E+03 -0.53074046662E+03  0.40853915185E+03  0.77223637859E+03  0.83671861308E+02 0.  0.
         23    2    4    4    0    0  0.56911644260E+03 -0.48665810885E+02  0.68559163851E+03  0.89647437440E+03  0.85840100044E+02 0.  0.
          3    1    3    3  502    0 -0.37967444403E+03  0.18110551818E+03 -0.44743016206E+03  0.61412184628E+03  0.00000000000E+00 0. -1.
         -3    1    3    3    0  502 -0.56461977316E+03  0.39830075933E+03 -0.74021422382E+03  0.10125986768E+04  0.00000000000E+00 0.  1.
         15    1    5    5    0    0  0.30151880452E+03 -0.36357230881E+03  0.30496935171E+03  0.56223471649E+03  0.17770000000E+01 0.  1.
        -15    1    5    5    0    0  0.73658970067E+02 -0.16716815781E+03  0.10356980015E+03  0.21000166210E+03  0.17770000000E+01 0. -1.
          3    1    6    6  503    0  0.13344972471E+03  0.11590484292E+02  0.11870178957E+03  0.17897844339E+03  0.00000000000E+00 0. -1.
         -3    1    6    6    0  503  0.43566671789E+03 -0.60256295177E+02  0.56688984894E+03  0.71749593101E+03  0.00000000000E+00 0.  1.
<mgrwt>
<rscale>  0 0.11702070E+04</rscale>
<asrwt>0</asrwt>
<pdfrwt beam="1">  1        1 0.24630136E+00 0.11702070E+04</pdfrwt>
<pdfrwt beam="2">  1       -1 0.26068807E+00 0.11702070E+04</pdfrwt>
<totfact> 0.32625011E-01</totfact>
</mgrwt>
</event>
<event>
12    1  0.9321077E-008  0.5518473E+03  0.7818608E-02  0.1001067E+00
         -1   -1    0    0    0  501 -0.00000000000E+00  0.00000000000E+00  0.63074622226E+03  0.63074622226E+03  0.00000000000E+00 0.  1.
          1   -1    0    0  501    0  0.00000000000E+00 -0.00000000000E+00 -0.97605449276E+03  0.97605449276E+03  0.00000000000E+00 0. -1.
         23    2    1    2    0    0  0.32669082978E+03  0.33888476723E+03 -0.63165853359E+03  0.79216651797E+03  0.83459603491E+02 0.  0.
    5000000    2    1    2    0    0 -0.32669082978E+03 -0.33888476723E+03  0.28635026309E+03  0.81463419704E+03  0.60005217948E+03 0.  0.
         23    2    4    4    0    0 -0.31383414294E+03 -0.29580644778E+02  0.35664440829E+03  0.48461154530E+03  0.91028742952E+02 0.  0.
         23    2    4    4    0    0 -0.12856686837E+02 -0.30930412245E+03 -0.70294145205E+02  0.33002265175E+03  0.90218342120E+02 0.  0.
          4    1    3    3  502    0  0.27699271186E+03  0.29318127465E+03 -0.58308637592E+03  0.70899220307E+03  0.00000000000E+00 0. -1.
         -4    1    3    3    0  502  0.49698117924E+02  0.45703492576E+02 -0.48572157672E+02  0.83174314904E+02  0.00000000000E+00 0.  1.
         15    1    5    5    0    0 -0.14112932576E+03  0.22228329147E+02  0.11679894553E+03  0.18454467376E+03  0.17770000000E+01 0. -1.
        -15    1    5    5    0    0 -0.17270481718E+03 -0.51808973925E+02  0.23984546276E+03  0.30006687154E+03  0.17770000000E+01 0.  1.
          3    1    6    6  503    0 -0.14861596582E+01 -0.11279834375E+03 -0.70804235383E+02  0.13318751733E+03  0.00000000000E+00 0. -1.
         -3    1    6    6    0  503 -0.11370527179E+02 -0.19650577870E+03  0.51009017748E+00  0.19683513442E+03  0.00000000000E+00 0.  1.
<mgrwt>
<rscale>  0 0.55184727E+03</rscale>
<asrwt>0</asrwt>
<pdfrwt beam="1">  1        1 0.15016223E+00 0.55184727E+03</pdfrwt>
<pdfrwt beam="2">  1       -1 0.97037880E-01 0.55184727E+03</pdfrwt>
<totfact> 0.17097062E+01</totfact>
</mgrwt>
</event>
<event>
12    1  0.9321077E-008  0.1306897E+04  0.7818608E-02  0.9024114E-01
          1   -1    0    0  501    0  0.00000000000E+00  0.00000000000E+00  0.11610015337E+04  0.11610015337E+04  0.00000000000E+00 0. -1.
         -1   -1    0    0    0  501 -0.00000000000E+00 -0.00000000000E+00 -0.20134356621E+04  0.20134356621E+04  0.00000000000E+00 0.  1.
         23    2    1    2    0    0 -0.72078496755E+03 -0.10553405289E+04  0.34099464708E+03  0.13258205138E+04  0.90818962726E+02 0.  0.
    5000000    2    1    2    0    0  0.72078496755E+03  0.10553405289E+04 -0.11934287755E+04  0.18486166821E+04  0.59986397938E+03 0.  0.
         23    2    4    4    0    0  0.69578071808E+03  0.79476595334E+03 -0.66134220719E+03  0.12495624113E+04  0.90933913018E+02 0.  0.
         23    2    4    4    0    0  0.25004249475E+02  0.26057457558E+03 -0.53208656827E+03  0.59905427076E+03  0.85003419088E+02 0.  0.
          3    1    3    3  502    0 -0.65181668781E+03 -0.99481125944E+03  0.31180736740E+03  0.12295276617E+04  0.00000000000E+00 0. -1.
         -3    1    3    3    0  502 -0.68968279747E+02 -0.60529269477E+02  0.29187279680E+02  0.96292852122E+02  0.00000000000E+00 0.  1.
         15    1    5    5    0    0  0.21714364732E+03  0.18690039256E+03 -0.18065925167E+03  0.33870937875E+03  0.17770000000E+01 0. -1.
        -15    1    5    5    0    0  0.47863707076E+03  0.60786556078E+03 -0.48068295552E+03  0.91085303257E+03  0.17770000000E+01 0.  1.
          1    1    6    6  503    0 -0.27216717106E+02  0.78530823029E+02 -0.12553103730E+03  0.15055192188E+03  0.00000000000E+00 0. -1.
         -1    1    6    6    0  503  0.52220966581E+02  0.18204375255E+03 -0.40655553097E+03  0.44850234888E+03  0.00000000000E+00 0.  1.
<mgrwt>
<rscale>  0 0.13068966E+04</rscale>
<asrwt>0</asrwt>
<pdfrwt beam="1">  1        1 0.17861562E+00 0.13068966E+04</pdfrwt>
<pdfrwt beam="2">  1       -1 0.30975933E+00 0.13068966E+04</pdfrwt>
<totfact> 0.31644127E-01</totfact>
</mgrwt>
</event>
<event>
12    1  0.9321077E-008  0.1083812E+04  0.7818608E-02  0.9221114E-01
          1   -1    0    0  501    0  0.00000000000E+00  0.00000000000E+00  0.23603901727E+04  0.23603901727E+04  0.00000000000E+00 0. -1.
         -1   -1    0    0    0  501 -0.00000000000E+00 -0.00000000000E+00 -0.67567300404E+03  0.67567300404E+03  0.00000000000E+00 0.  1.
         23    2    1    2    0    0 -0.50573781463E+03  0.94425845325E+03  0.17203353695E+03  0.10878209148E+04  0.79774940186E+02 0.  0.
    5000000    2    1    2    0    0  0.50573781463E+03 -0.94425845325E+03  0.15126836318E+04  0.19482422620E+04  0.60003448073E+03 0.  0.
         23    2    4    4    0    0  0.23787089944E+03 -0.61185807268E+03  0.13071947327E+04  0.14655903129E+04  0.90796641366E+02 0.  0.
         23    2    4    4    0    0  0.26786691518E+03 -0.33240038057E+03  0.20548889903E+03  0.48265194913E+03  0.92111449428E+02 0.  0.
          3    1    3    3  502    0 -0.43128604593E+03  0.76195224766E+03  0.16373460629E+03  0.89072324682E+03  0.00000000000E+00 0.  1.
         -3    1    3    3    0  502 -0.74451768702E+02  0.18230620559E+03  0.82989306607E+01  0.19709766794E+03  0.00000000000E+00 0. -1.
         15    1    5    5    0    0  0.13856676912E+03 -0.26905500305E+03  0.67171954575E+03  0.73675073807E+03  0.17770000000E+01 0.  1.
        -15    1    5    5    0    0  0.99304130327E+02 -0.34280306962E+03  0.63547518697E+03  0.72883957482E+03  0.17770000000E+01 0. -1.
          2    1    6    6  503    0  0.15181632554E+03 -0.25280213675E+03  0.15502980918E+03  0.33315365641E+03  0.00000000000E+00 0. -1.
         -2    1    6    6    0  503  0.11605058964E+03 -0.79598243823E+02  0.50459089846E+02  0.14949829271E+03  0.00000000000E+00 0.  1.
<mgrwt>
<rscale>  0 0.10838125E+04</rscale>
<asrwt>0</asrwt>
<pdfrwt beam="1">  1        1 0.36313695E+00 0.10838125E+04</pdfrwt>
<pdfrwt beam="2">  1       -1 0.10394969E+00 0.10838125E+04</pdfrwt>
<totfact> 0.14801039E+00</totfact>
</mgrwt>
</event>
<event>
12    1  0.9321077E-008  0.3810755E+03  0.7818608E-02  0.1050537E+00
         -2   -1    0    0    0  501 -0.00000000000E+00  0.00000000000E+00  0.75104330968E+03  0.75104330968E+03  0.00000000000E+00 0. -1.
          2   -1    0    0  501    0  0.00000000000E+00 -0.00000000000E+00 -0.56844552223E+03  0.56844552223E+03  0.00000000000E+00 0.  1.
         23    2    1    2    0    0  0.16625959920E+03  0.55312681314E+02 -0.41160593279E+03  0.45711902827E+03  0.94003271540E+02 0.  0.
    5000000    2    1    2    0    0 -0.16625959920E+03 -0.55312681314E+02  0.59420372024E+03  0.86236980364E+03  0.59991821947E+03 0.  0.
         23    2    4    4    0    0 -0.36217611529E+03 -0.23756575098E+02  0.23573981652E+03  0.44258288250E+03  0.92576635503E+02 0.  0.
         23    2    4    4    0    0  0.19591651609E+03 -0.31556106216E+02  0.35846390372E+03  0.41978692114E+03  0.91354363737E+02 0.  0.
          3    1    3    3  502    0  0.11249382045E+03  0.65595609239E+02 -0.20085458698E+03  0.23937462000E+03  0.00000000000E+00 0. -1.
         -3    1    3    3    0  502  0.53765778748E+02 -0.10282927925E+02 -0.21075134581E+03  0.21774440827E+03  0.00000000000E+00 0.  1.
         15    1    5    5    0    0 -0.56707471364E+02 -0.37541211166E+02  0.32325305641E+02  0.75320402004E+02  0.17770000000E+01 0.  1.
        -15    1    5    5    0    0 -0.30546864393E+03  0.13784636068E+02  0.20341451088E+03  0.36726248050E+03  0.17770000000E+01 0. -1.
          1    1    6    6  503    0  0.11913578944E+03  0.30029444015E+01  0.28160168404E+03  0.30578074245E+03  0.00000000000E+00 0. -1.
         -1    1    6    6    0  503  0.76780726657E+02 -0.34559050617E+02  0.76862219679E+02  0.11400617869E+03  0.00000000000E+00 0.  1.
<mgrwt>
<rscale>  0 0.38107553E+03</rscale>
<asrwt>0</asrwt>
<pdfrwt beam="1">  1        2 0.87453157E-01 0.38107553E+03</pdfrwt>
<pdfrwt beam="2">  1       -2 0.11554512E+00 0.38107553E+03</pdfrwt>
<totfact> 0.32510684E+01</totfact>
</mgrwt>
</event>
<event>
12    1  0.9321077E-008  0.1090105E+04  0.7818608E-02  0.9214890E-01
         -2   -1    0    0    0  501 -0.00000000000E+00  0.00000000000E+00  0.11460506767E+04  0.11460506767E+04  0.00000000000E+00 0.  1.
          2   -1    0    0  501    0  0.00000000000E+00 -0.00000000000E+00 -0.19025012711E+04  0.19025012711E+04  0.00000000000E+00 0. -1.
         23    2    1    2    0    0  0.10293911649E+04  0.78484728150E+01  0.63802167248E+03  0.12143740761E+04  0.89022319473E+02 0.  0.
    5000000    2    1    2    0    0 -0.10293911649E+04 -0.78484728150E+01 -0.13944722669E+04  0.18341778717E+04  0.59995649271E+03 0.  0.
         23    2    4    4    0    0 -0.94824626926E+03  0.15601628489E+03 -0.99978866539E+03  0.13897342531E+04  0.90949714221E+02 0.  0.
         23    2    4    4    0    0 -0.81144895635E+02 -0.16386475770E+03 -0.39468360149E+03  0.44444361862E+03  0.91207630911E+02 0.  0.
          1    1    3    3  502    0  0.33399493115E+03 -0.22515395758E+02  0.16856423395E+03  0.37479788960E+03  0.00000000000E+00 0. -1.
         -1    1    3    3    0  502  0.69539623375E+03  0.30363868573E+02  0.46945743853E+03  0.83957618654E+03  0.00000000000E+00 0.  1.
         15    1    5    5    0    0 -0.10707689185E+03  0.20063853499E+01 -0.78976244057E+02  0.13307851519E+03  0.17770000000E+01 0. -1.
        -15    1    5    5    0    0 -0.84116937741E+03  0.15400989954E+03 -0.92081242133E+03  0.12566557379E+04  0.17770000000E+01 0.  1.
          3    1    6    6  503    0 -0.52705547187E+02 -0.14136309714E+03 -0.37259723132E+03  0.40198270699E+03  0.00000000000E+00 0. -1.
         -3    1    6    6    0  503 -0.28439348447E+02 -0.22501660567E+02 -0.22086370178E+02  0.42460911625E+02  0.00000000000E+00 0.  1.
<mgrwt>
<rscale>  0 0.10901048E+04</rscale>
<asrwt>0</asrwt>
<pdfrwt beam="1">  1        2 0.29269250E+00 0.10901048E+04</pdfrwt>
<pdfrwt beam="2">  1       -2 0.17631549E+00 0.10901048E+04</pdfrwt>
<totfact> 0.14332962E+00</totfact>
</mgrwt>
</event>
<event>
12    1  0.9321077E-008  0.8971153E+03  0.7818608E-02  0.9429195E-01
          1   -1    0    0  501    0  0.00000000000E+00  0.00000000000E+00  0.49734035463E+03  0.49734035463E+03  0.00000000000E+00 0. -1.
         -1   -1    0    0    0  501 -0.00000000000E+00 -0.00000000000E+00 -0.16300931949E+04  0.16300931949E+04  0.00000000000E+00 0.  1.
         23    2    1    2    0    0  0.55668874810E+03  0.57026533826E+03 -0.46736082839E+03  0.92835535962E+03  0.91173524250E+02 0.  0.
    5000000    2    1    2    0    0 -0.55668874810E+03 -0.57026533826E+03 -0.66539201184E+03  0.11990781899E+04  0.59994754582E+03 0.  0.
         23    2    4    4    0    0 -0.11159512138E+03 -0.52275594421E+03 -0.37719148889E+03  0.66075285532E+03  0.92702039883E+02 0.  0.
         23    2    4    4    0    0 -0.44509362672E+03 -0.47509394057E+02 -0.28820052295E+03  0.53832533456E+03  0.79806925362E+02 0.  0.
          2    1    3    3  502    0  0.39772822908E+03  0.46179504215E+03 -0.34564817724E+03  0.70065331484E+03  0.00000000000E+00 0. -1.
         -2    1    3    3    0  502  0.15896051902E+03  0.10847029611E+03 -0.12171265115E+03  0.22770204478E+03  0.00000000000E+00 0.  1.
         15    1    5    5    0    0 -0.48846115781E+02 -0.81194788520E+02 -0.87043241352E+02  0.12867874845E+03  0.17770000000E+01 0. -1.
        -15    1    5    5    0    0 -0.62749005602E+02 -0.44156115569E+03 -0.29014824754E+03  0.53207410686E+03  0.17770000000E+01 0.  1.
          2    1    6    6  503    0 -0.26047184248E+02 -0.17612029783E+02 -0.54159844138E+01  0.31905677982E+02  0.00000000000E+00 0. -1.
         -2    1    6    6    0  503 -0.41904644247E+03 -0.29897364275E+02 -0.28278453853E+03  0.50641965658E+03  0.00000000000E+00 0.  1.
<mgrwt>
<rscale>  0 0.89711531E+03</rscale>
<asrwt>0</asrwt>
<pdfrwt beam="1">  1        1 0.76513902E-01 0.89711531E+03</pdfrwt>
<pdfrwt beam="2">  1       -1 0.25078357E+00 0.89711531E+03</pdfrwt>
<totfact> 0.31420096E+00</totfact>
</mgrwt>
</event>
<event>
12    1  0.9321077E-008  0.1499542E+04  0.7818608E-02  0.8884758E-01
          2   -1    0    0  501    0  0.00000000000E+00  0.00000000000E+00  0.18606030395E+04  0.18606030395E+04  0.00000000000E+00 0.  1.
         -2   -1    0    0    0  501 -0.00000000000E+00 -0.00000000000E+00 -0.12734064223E+04  0.12734064223E+04  0.00000000000E+00 0. -1.
         23    2    1    2    0    0 -0.52484625089E+03 -0.13649543044E+04  0.54904702967E+02  0.14661732508E+04  0.89920157065E+02 0.  0.
    5000000    2    1    2    0    0  0.52484625089E+03  0.13649543044E+04  0.53229191426E+03  0.16678362111E+04  0.59981589238E+03 0.  0.
         23    2    4    4    0    0  0.54707200255E+03  0.13554263965E+04  0.55647479187E+03  0.15666732787E+04  0.91282395919E+02 0.  0.
         23    2    4    4    0    0 -0.22225751659E+02  0.95279079259E+01 -0.24182877615E+02  0.10116293241E+03  0.95206944376E+02 0.  0.
          1    1    3    3  502    0 -0.14025531332E+03 -0.36601078289E+03 -0.25110549930E+02  0.39276708852E+03  0.00000000000E+00 0. -1.
         -1    1    3    3    0  502 -0.38459093758E+03 -0.99894352151E+03  0.80015252898E+02  0.10734061622E+04  0.00000000000E+00 0.  1.
         15    1    5    5    0    0  0.20223152961E+03  0.47739251352E+03  0.24338513160E+03  0.57274835971E+03  0.17770000000E+01 0. -1.
        -15    1    5    5    0    0  0.34484047294E+03  0.87803388296E+03  0.31308966027E+03  0.99392491894E+03  0.17770000000E+01 0.  1.
          4    1    6    6  503    0  0.18129084140E+02 -0.18403715388E+02  0.21880068780E+02  0.33854066841E+02  0.00000000000E+00 0. -1.
         -4    1    6    6    0  503 -0.40354835799E+02  0.27931623314E+02 -0.46062946395E+02  0.67308865567E+02  0.00000000000E+00 0.  1.
<mgrwt>
<rscale>  0 0.14995416E+04</rscale>
<asrwt>0</asrwt>
<pdfrwt beam="1">  1        2 0.28624662E+00 0.14995416E+04</pdfrwt>
<pdfrwt beam="2">  1       -2 0.19590868E+00 0.14995416E+04</pdfrwt>
<totfact> 0.10626702E+00</totfact>
</mgrwt>
</event>
<event>
12    1  0.9321077E-008  0.9011830E+03  0.7818608E-02  0.9424104E-01
         -2   -1    0    0    0  501 -0.00000000000E+00  0.00000000000E+00  0.78552260630E+03  0.78552260630E+03  0.00000000000E+00 0.  1.
          2   -1    0    0  501    0  0.00000000000E+00 -0.00000000000E+00 -0.12607516421E+04  0.12607516421E+04  0.00000000000E+00 0. -1.
         23    2    1    2    0    0 -0.56167801234E+03  0.68826137990E+03 -0.37891130278E+03  0.96991649630E+03  0.89321429803E+02 0.  0.
    5000000    2    1    2    0    0  0.56167801234E+03 -0.68826137990E+03 -0.96317732970E+02  0.10763577521E+04  0.60006915279E+03 0.  0.
         23    2    4    4    0    0  0.29652667565E+02 -0.29052952971E+02  0.15726098544E+03  0.18718356211E+03  0.92646174299E+02 0.  0.
         23    2    4    4    0    0  0.53202534477E+03 -0.65920842693E+03 -0.25357871841E+03  0.88917418995E+03  0.93390877662E+02 0.  0.
          3    1    3    3  502    0 -0.24733542095E+03  0.37356529044E+03 -0.19326934986E+03  0.48793327236E+03  0.00000000000E+00 0. -1.
         -3    1    3    3    0  502 -0.31434259138E+03  0.31469608945E+03 -0.18564195293E+03  0.48198322394E+03  0.00000000000E+00 0.  1.
         15    1    5    5    0    0  0.83494996069E+01  0.99613469218E+01 -0.84502307314E+01  0.15604701362E+02  0.17770000000E+01 0. -1.
        -15    1    5    5    0    0  0.21303167958E+02 -0.39014299893E+02  0.16571121617E+03  0.17157886075E+03  0.17770000000E+01 0.  1.
          2    1    6    6  503    0  0.25413613963E+03 -0.24393119178E+03 -0.93038790123E+02  0.36434025342E+03  0.00000000000E+00 0. -1.
         -2    1    6    6    0  503  0.27788920514E+03 -0.41527723514E+03 -0.16053992829E+03  0.52483393653E+03  0.00000000000E+00 0.  1.
<mgrwt>
<rscale>  0 0.90118295E+03</rscale>
<asrwt>0</asrwt>
<pdfrwt beam="1">  1        2 0.19396179E+00 0.90118295E+03</pdfrwt>
<pdfrwt beam="2">  1       -2 0.12084963E+00 0.90118295E+03</pdfrwt>
<totfact> 0.91202463E+00</totfact>
</mgrwt>
</event>
<event>
12    1  0.9321077E-008  0.6585483E+03  0.7818608E-02  0.9790870E-01
         -1   -1    0    0    0  501 -0.00000000000E+00  0.00000000000E+00  0.79347901254E+03  0.79347901254E+03  0.00000000000E+00 0.  1.
          1   -1    0    0  501    0  0.00000000000E+00 -0.00000000000E+00 -0.89993569134E+03  0.89993569134E+03  0.00000000000E+00 0. -1.
         23    2    1    2    0    0  0.31839634953E+03  0.42643350704E+03  0.46083750539E+03  0.71102071710E+03  0.99787185799E+02 0.  0.
    5000000    2    1    2    0    0 -0.31839634953E+03 -0.42643350704E+03 -0.56729418419E+03  0.98239398678E+03  0.60004456712E+03 0.  0.
         23    2    4    4    0    0 -0.44010368723E+03 -0.43755570127E+03 -0.54191803235E+03  0.82870615477E+03  0.89064526828E+02 0.  0.
         23    2    4    4    0    0  0.12170733769E+03  0.11122194238E+02 -0.25376151839E+02  0.15368783201E+03  0.89663935745E+02 0.  0.
          2    1    3    3  502    0  0.28931214224E+03  0.32163047150E+03  0.37342441162E+03  0.57148356672E+03  0.00000000000E+00 0. -1.
         -2    1    3    3    0  502  0.29084207298E+02  0.10480303554E+03  0.87413093769E+02  0.13953715038E+03  0.00000000000E+00 0.  1.
         15    1    5    5    0    0 -0.13039344615E+03 -0.18617096240E+03 -0.21656049575E+03  0.31394853733E+03  0.17770000000E+01 0. -1.
        -15    1    5    5    0    0 -0.30971024108E+03 -0.25138473888E+03 -0.32535753660E+03  0.51475761745E+03  0.17770000000E+01 0.  1.
          4    1    6    6  503    0  0.11332359438E+03 -0.21935693157E+02 -0.30024462058E+02  0.11926810135E+03  0.00000000000E+00 0. -1.
         -4    1    6    6    0  503  0.83837433128E+01  0.33057887395E+02  0.46483102194E+01  0.34419730662E+02  0.00000000000E+00 0.  1.
<mgrwt>
<rscale>  0 0.65854835E+03</rscale>
<asrwt>0</asrwt>
<pdfrwt beam="1">  1        1 0.13845164E+00 0.65854835E+03</pdfrwt>
<pdfrwt beam="2">  1       -1 0.12207369E+00 0.65854835E+03</pdfrwt>
<totfact> 0.11283998E+01</totfact>
</mgrwt>
</event>
<event>
12    1  0.9321077E-008  0.8130600E+03  0.7818608E-02  0.9541303E-01
          2   -1    0    0  501    0  0.00000000000E+00  0.00000000000E+00  0.19335605529E+04  0.19335605529E+04  0.00000000000E+00 0. -1.
         -2   -1    0    0    0  501 -0.00000000000E+00 -0.00000000000E+00 -0.43915365227E+03  0.43915365227E+03  0.00000000000E+00 0.  1.
         23    2    1    2    0    0  0.35822731883E+03  0.62937615721E+03  0.11679161333E+04  0.13772245520E+04  0.90984686161E+02 0.  0.
    5000000    2    1    2    0    0 -0.35822731883E+03 -0.62937615721E+03  0.32649076736E+03  0.99548965315E+03  0.59996855679E+03 0.  0.
         23    2    4    4    0    0 -0.37192518405E+02 -0.55055879532E+03  0.33533342192E+03  0.65086772542E+03  0.81743633431E+02 0.  0.
         23    2    4    4    0    0 -0.32103480042E+03 -0.78817361889E+02 -0.88426545595E+01  0.34462192773E+03  0.97008045607E+02 0.  0.
          2    1    3    3  502    0  0.28914533777E+03  0.56840085692E+03  0.10234004266E+04  0.12058329046E+04  0.00000000000E+00 0. -1.
         -2    1    3    3    0  502  0.69081981059E+02  0.60975300293E+02  0.14451570663E+03  0.17139164745E+03  0.00000000000E+00 0.  1.
         15    1    5    5    0    0 -0.62586121757E+02 -0.40457411208E+03  0.25487785416E+03  0.48224797882E+03  0.17770000000E+01 0. -1.
        -15    1    5    5    0    0  0.25393603352E+02 -0.14598468324E+03  0.80455567750E+02  0.16861974660E+03  0.17770000000E+01 0.  1.
          1    1    6    6  503    0 -0.20801188660E+03 -0.86758274076E+02  0.24006650872E+02  0.22665450001E+03  0.00000000000E+00 0. -1.
         -1    1    6    6    0  503 -0.11302291382E+03  0.79409121866E+01 -0.32849305431E+02  0.11796742772E+03  0.00000000000E+00 0.  1.
<mgrwt>
<rscale>  0 0.81305996E+03</rscale>
<asrwt>0</asrwt>
<pdfrwt beam="1">  1        2 0.29747085E+00 0.81305996E+03</pdfrwt>
<pdfrwt beam="2">  1       -2 0.67562101E-01 0.81305996E+03</pdfrwt>
<totfact> 0.14964814E+01</totfact>
</mgrwt>
</event>
<event>
12    1  0.9321077E-008  0.4671934E+03  0.7818608E-02  0.1022715E+00
          2   -1    0    0  501    0  0.00000000000E+00  0.00000000000E+00  0.75924209544E+03  0.75924209544E+03  0.00000000000E+00 0. -1.
         -2   -1    0    0    0  501 -0.00000000000E+00 -0.00000000000E+00 -0.59490938204E+03  0.59490938204E+03  0.00000000000E+00 0.  1.
         23    2    1    2    0    0  0.31449382691E+03 -0.20550461876E+03  0.44761857335E+03  0.59167441053E+03  0.92615902356E+02 0.  0.
    5000000    2    1    2    0    0 -0.31449382691E+03  0.20550461876E+03 -0.28328585996E+03  0.76247706695E+03  0.59998490288E+03 0.  0.
         23    2    4    4    0    0  0.83292090013E+02  0.49121268551E+02  0.11175548148E+03  0.17352089270E+03  0.90938117859E+02 0.  0.
         23    2    4    4    0    0 -0.39778591692E+03  0.15638335020E+03 -0.39504134144E+03  0.58895617425E+03  0.90123946984E+02 0.  0.
          3    1    3    3  502    0  0.19272036141E+03 -0.99223744060E+02  0.31616850497E+03  0.38333929178E+03  0.00000000000E+00 0. -1.
         -3    1    3    3    0  502  0.12177346550E+03 -0.10628087470E+03  0.13145006838E+03  0.20833511875E+03  0.00000000000E+00 0.  1.
         15    1    5    5    0    0  0.64243020001E+02 -0.73755269637E+01  0.27508026321E+02  0.70295186591E+02  0.17770000000E+01 0.  1.
        -15    1    5    5    0    0  0.19049070012E+02  0.56496795515E+02  0.84247455160E+02  0.10322570611E+03  0.17770000000E+01 0. -1.
          2    1    6    6  503    0 -0.28313421107E+03  0.81188668036E+02 -0.30998337614E+03  0.42760527917E+03  0.00000000000E+00 0.  1.
         -2    1    6    6    0  503 -0.11465170586E+03  0.75194682168E+02 -0.85057965305E+02  0.16135089508E+03  0.00000000000E+00 0. -1.
<mgrwt>
<rscale>  0 0.46719343E+03</rscale>
<asrwt>0</asrwt>
<pdfrwt beam="1">  1        2 0.11680648E+00 0.46719343E+03</pdfrwt>
<pdfrwt beam="2">  1       -2 0.91524520E-01 0.46719343E+03</pdfrwt>
<totfact> 0.39158103E+01</totfact>
</mgrwt>
</event>
<event>
12    1  0.9321077E-008  0.1021226E+04  0.7818608E-02  0.9285566E-01
          1   -1    0    0  501    0  0.00000000000E+00  0.00000000000E+00  0.96999745110E+03  0.96999745110E+03  0.00000000000E+00 0. -1.
         -1   -1    0    0    0  501 -0.00000000000E+00 -0.00000000000E+00 -0.13321661139E+04  0.13321661139E+04  0.00000000000E+00 0.  1.
         23    2    1    2    0    0  0.92749107756E+03  0.39664818145E+03 -0.48336432088E+03  0.11222896160E+04  0.91232870978E+02 0.  0.
    5000000    2    1    2    0    0 -0.92749107756E+03 -0.39664818145E+03  0.12119565811E+03  0.11798739489E+04  0.59987054356E+03 0.  0.
         23    2    4    4    0    0 -0.16564886800E+03 -0.10994091739E+03 -0.20298242825E+03  0.29874385291E+03  0.92300978809E+02 0.  0.
         23    2    4    4    0    0 -0.76184220956E+03 -0.28670726406E+03  0.32417808635E+03  0.88113009603E+03  0.93242731173E+02 0.  0.
          4    1    3    3  502    0  0.55414578972E+03  0.22252382927E+03 -0.33316761253E+03  0.68380923429E+03  0.00000000000E+00 0. -1.
         -4    1    3    3    0  502  0.37334528784E+03  0.17412435218E+03 -0.15019670835E+03  0.43848038174E+03  0.00000000000E+00 0.  1.
         15    1    5    5    0    0 -0.14781046639E+03 -0.54316523298E+02 -0.12374290645E+03  0.20028400661E+03  0.17770000000E+01 0. -1.
        -15    1    5    5    0    0 -0.17838401608E+02 -0.55624394092E+02 -0.79239521795E+02  0.98459846300E+02  0.17770000000E+01 0.  1.
          4    1    6    6  503    0 -0.85439657110E+02 -0.78932051516E+01  0.53135659835E+02  0.10092391214E+03  0.00000000000E+00 0. -1.
         -4    1    6    6    0  503 -0.67640255245E+03 -0.27881405891E+03  0.27104242652E+03  0.78020618389E+03  0.00000000000E+00 0.  1.
<mgrwt>
<rscale>  0 0.10212260E+04</rscale>
<asrwt>0</asrwt>
<pdfrwt beam="1">  1        1 0.14923038E+00 0.10212260E+04</pdfrwt>
<pdfrwt beam="2">  1       -1 0.20494863E+00 0.10212260E+04</pdfrwt>
<totfact> 0.22274560E+00</totfact>
</mgrwt>
</event>
<event>
12    1  0.9321077E-008  0.2245540E+04  0.7818608E-02  0.8499709E-01
          2   -1    0    0  501    0  0.00000000000E+00  0.00000000000E+00  0.35618160055E+04  0.35618160055E+04  0.00000000000E+00 0.  1.
         -2   -1    0    0    0  501 -0.00000000000E+00 -0.00000000000E+00 -0.14414157922E+04  0.14414157922E+04  0.00000000000E+00 0. -1.
         23    2    1    2    0    0  0.74187406480E+03  0.20977539059E+04  0.10631860467E+04  0.24677622001E+04  0.92396584861E+02 0.  0.
    5000000    2    1    2    0    0 -0.74187406480E+03 -0.20977539059E+04  0.10572141667E+04  0.25354695975E+04  0.59996308903E+03 0.  0.
         23    2    4    4    0    0  0.40177978244E+02 -0.11304729595E+03  0.15659620031E+03  0.21817017604E+03  0.93176685420E+02 0.  0.
         23    2    4    4    0    0 -0.78205204304E+03 -0.19847066099E+04  0.90061796635E+03  0.23172994215E+04  0.89989788439E+02 0.  0.
          1    1    3    3  502    0  0.55779351248E+03  0.15172643338E+04  0.81185919845E+03  0.18089610331E+04  0.00000000000E+00 0. -1.
         -1    1    3    3    0  502  0.18408055232E+03  0.58048957204E+03  0.25132684820E+03  0.65880116698E+03  0.00000000000E+00 0.  1.
         15    1    5    5    0    0  0.14730254385E+02  0.61330702724E+00  0.73740211591E+02  0.75220562842E+02  0.17770000000E+01 0. -1.
        -15    1    5    5    0    0  0.25447723859E+02 -0.11366060298E+03  0.82855988714E+02  0.14294961320E+03  0.17770000000E+01 0.  1.
          1    1    6    6  503    0 -0.47546584856E+03 -0.11189763644E+04  0.47951187809E+03  0.13069458743E+04  0.00000000000E+00 0. -1.
         -1    1    6    6    0  503 -0.30658619448E+03 -0.86573024552E+03  0.42110608827E+03  0.10103535471E+04  0.00000000000E+00 0.  1.
<mgrwt>
<rscale>  0 0.22455395E+04</rscale>
<asrwt>0</asrwt>
<pdfrwt beam="1">  1        2 0.54797169E+00 0.22455395E+04</pdfrwt>
<pdfrwt beam="2">  1       -2 0.22175628E+00 0.22455395E+04</pdfrwt>
<totfact> 0.61616083E-02</totfact>
</mgrwt>
</event>
<event>
12    1  0.9321077E-008  0.5612934E+03  0.7818608E-02  0.9989132E-01
         -1   -1    0    0    0  501 -0.00000000000E+00  0.00000000000E+00  0.29671272286E+03  0.29671272286E+03  0.00000000000E+00 0.  1.
          1   -1    0    0  501    0  0.00000000000E+00 -0.00000000000E+00 -0.15776043718E+04  0.15776043718E+04  0.00000000000E+00 0. -1.
         23    2    1    2    0    0 -0.15030441115E+03 -0.44947001955E+03 -0.89687715082E+03  0.10186187695E+04  0.92632928634E+02 0.  0.
    5000000    2    1    2    0    0  0.15030441115E+03  0.44947001955E+03 -0.38401449810E+03  0.85569832512E+03  0.60011480099E+03 0.  0.
         23    2    4    4    0    0  0.27002916710E+03  0.14263962211E+03 -0.40526978511E+03  0.51550035226E+03  0.90748011453E+02 0.  0.
         23    2    4    4    0    0 -0.11972475595E+03  0.30683039744E+03  0.21255287007E+02  0.34019797285E+03  0.82486141419E+02 0.  0.
          1    1    3    3  502    0 -0.94230577590E+02 -0.35807743450E+03 -0.75373432656E+03  0.83977037688E+03  0.00000000000E+00 0. -1.
         -1    1    3    3    0  502 -0.56073833558E+02 -0.91392585050E+02 -0.14314282426E+03  0.17884839264E+03  0.00000000000E+00 0.  1.
         15    1    5    5    0    0  0.19375067174E+03  0.94471349851E+02 -0.21267704988E+03  0.30281816990E+03  0.17770000000E+01 0. -1.
        -15    1    5    5    0    0  0.76278495356E+02  0.48168272258E+02 -0.19259273522E+03  0.21268218236E+03  0.17770000000E+01 0.  1.
          4    1    6    6  503    0 -0.56095694942E+02  0.24217365798E+03  0.99872670004E+01  0.24878615941E+03  0.00000000000E+00 0.  1.
         -4    1    6    6    0  503 -0.63629061009E+02  0.64656739463E+02  0.11268020007E+02  0.91411813448E+02  0.00000000000E+00 0. -1.
<mgrwt>
<rscale>  0 0.56129342E+03</rscale>
<asrwt>0</asrwt>
<pdfrwt beam="1">  1        1 0.24270836E+00 0.56129342E+03</pdfrwt>
<pdfrwt beam="2">  1       -1 0.45648112E-01 0.56129342E+03</pdfrwt>
<totfact> 0.29265675E+01</totfact>
</mgrwt>
</event>
<event>
12    1  0.9321077E-008  0.8360167E+03  0.7818608E-02  0.9509299E-01
         -1   -1    0    0    0  501 -0.00000000000E+00  0.00000000000E+00  0.52004110145E+03  0.52004110145E+03  0.00000000000E+00 0.  1.
          1   -1    0    0  501    0  0.00000000000E+00 -0.00000000000E+00 -0.18054726588E+04  0.18054726588E+04  0.00000000000E+00 0. -1.
         23    2    1    2    0    0  0.73072847091E+03 -0.37075222426E+03 -0.94590815782E+03  0.12546484060E+04  0.89325638331E+02 0.  0.
    5000000    2    1    2    0    0 -0.73072847091E+03  0.37075222426E+03 -0.33952339952E+03  0.10708653542E+04  0.60004596332E+03 0.  0.
         23    2    4    4    0    0 -0.53544831033E+03  0.31901955245E+03  0.40660255490E+02  0.63085122589E+03  0.88553062876E+02 0.  0.
         23    2    4    4    0    0 -0.19528016058E+03  0.51732671804E+02 -0.38018365501E+03  0.44001412835E+03  0.90896706008E+02 0.  0.
          4    1    3    3  502    0  0.21451942497E+03 -0.71072841268E+02 -0.22809047159E+03  0.32108440586E+03  0.00000000000E+00 0. -1.
         -4    1    3    3    0  502  0.51620904594E+03 -0.29967938299E+03 -0.71781768623E+03  0.93356400014E+03  0.00000000000E+00 0.  1.
         15    1    5    5    0    0 -0.24990439215E+03  0.19877341396E+03  0.96339775898E+01  0.31946681607E+03  0.17770000000E+01 0. -1.
        -15    1    5    5    0    0 -0.28554391818E+03  0.12024613850E+03  0.31026277900E+02  0.31138440982E+03  0.17770000000E+01 0.  1.
          3    1    6    6  503    0 -0.13763315129E+03  0.76263011554E+02 -0.29409318468E+03  0.33354120066E+03  0.00000000000E+00 0. -1.
         -3    1    6    6    0  503 -0.57647009292E+02 -0.24530339750E+02 -0.86090470328E+02  0.10647292768E+03  0.00000000000E+00 0.  1.
<mgrwt>
<rscale>  0 0.83601666E+03</rscale>
<asrwt>0</asrwt>
<pdfrwt beam="1">  1        1 0.27776502E+00 0.83601666E+03</pdfrwt>
<pdfrwt beam="2">  1       -1 0.80006325E-01 0.83601666E+03</pdfrwt>
<totfact> 0.64968770E+00</totfact>
</mgrwt>
</event>
<event>
12    1  0.9321077E-008  0.5239248E+03  0.7818608E-02  0.1007716E+00
          1   -1    0    0  501    0  0.00000000000E+00  0.00000000000E+00  0.28767240322E+04  0.28767240322E+04  0.00000000000E+00 0. -1.
         -1   -1    0    0    0  501 -0.00000000000E+00 -0.00000000000E+00 -0.31031615613E+03  0.31031615613E+03  0.00000000000E+00 0.  1.
         23    2    1    2    0    0 -0.29857669001E+03 -0.29322997744E+03  0.23987884529E+04  0.24367156264E+04  0.90912829790E+02 0.  0.
    5000000    2    1    2    0    0  0.29857669001E+03  0.29322997744E+03  0.16761942321E+03  0.75032456198E+03  0.59979898115E+03 0.  0.
         23    2    4    4    0    0  0.27029853159E+03 -0.37308709440E+02 -0.10804022970E+03  0.30914417984E+03  0.97181257011E+02 0.  0.
         23    2    4    4    0    0  0.28278158412E+02  0.33053868688E+03  0.27565965291E+03  0.44118038214E+03  0.92716813859E+02 0.  0.
          3    1    3    3  502    0 -0.18514459794E+03 -0.12042446206E+03  0.11705521719E+04  0.11912065146E+04  0.00000000000E+00 0. -1.
         -3    1    3    3    0  502 -0.11343209206E+03 -0.17280551537E+03  0.12282362810E+04  0.12455091118E+04  0.00000000000E+00 0.  1.
         15    1    5    5    0    0  0.25029628067E+03 -0.23331489688E+02 -0.65030973587E+02  0.25966280401E+03  0.17770000000E+01 0. -1.
        -15    1    5    5    0    0  0.20002250921E+02 -0.13977219752E+02 -0.43009256117E+02  0.49481375836E+02  0.17770000000E+01 0.  1.
          4    1    6    6  503    0  0.51062696990E+02  0.30859110478E+03  0.24848296829E+03  0.39947422258E+03  0.00000000000E+00 0.  1.
         -4    1    6    6    0  503 -0.22784538579E+02  0.21947582101E+02  0.27176684618E+02  0.41706159559E+02  0.00000000000E+00 0. -1.
<mgrwt>
<rscale>  0 0.52392476E+03</rscale>
<asrwt>0</asrwt>
<pdfrwt beam="1">  1        1 0.44257291E+00 0.52392476E+03</pdfrwt>
<pdfrwt beam="2">  1       -1 0.47740949E-01 0.52392476E+03</pdfrwt>
<totfact> 0.36237961E+00</totfact>
</mgrwt>
</event>
<event>
12    1  0.9321077E-008  0.1400264E+04  0.7818608E-02  0.8953628E-01
          2   -1    0    0  501    0  0.00000000000E+00  0.00000000000E+00  0.17556852777E+04  0.17556852777E+04  0.00000000000E+00 0. -1.
         -2   -1    0    0    0  501 -0.00000000000E+00 -0.00000000000E+00 -0.11449453005E+04  0.11449453005E+04  0.00000000000E+00 0.  1.
         23    2    1    2    0    0  0.37925183806E+03 -0.12865247555E+04  0.46829446991E+03  0.14235615309E+04  0.90828512394E+02 0.  0.
    5000000    2    1    2    0    0 -0.37925183806E+03  0.12865247555E+04  0.14244550733E+03  0.14770690473E+04  0.60205011810E+03 0.  0.
         23    2    4    4    0    0 -0.50927052822E+03  0.11404899004E+04  0.88162194277E+02  0.12560061875E+04  0.98515413555E+02 0.  0.
         23    2    4    4    0    0  0.13001869016E+03  0.14603485508E+03  0.54283313053E+02  0.22106285977E+03  0.87698752579E+02 0.  0.
          3    1    3    3  502    0  0.26270911582E+02 -0.12717871443E+03  0.19904363665E+02  0.13138024925E+03  0.00000000000E+00 0. -1.
         -3    1    3    3    0  502  0.35298092648E+03 -0.11593460411E+04  0.44839010624E+03  0.12921812817E+04  0.00000000000E+00 0.  1.
         15    1    5    5    0    0 -0.23037222409E+03  0.41662835780E+03  0.59009854065E+02  0.47972478648E+03  0.17770000000E+01 0. -1.
        -15    1    5    5    0    0 -0.27889830413E+03  0.72386154261E+03  0.29152340212E+02  0.77628140103E+03  0.17770000000E+01 0.  1.
          4    1    6    6  503    0  0.42817406959E+02  0.78074613996E+01 -0.11290517424E+02  0.44964014232E+02  0.00000000000E+00 0. -1.
         -4    1    6    6    0  503  0.87201283202E+02  0.13822739368E+03  0.65573830477E+02  0.17609884554E+03  0.00000000000E+00 0.  1.
<mgrwt>
<rscale>  0 0.14002639E+04</rscale>
<asrwt>0</asrwt>
<pdfrwt beam="1">  1        2 0.27010543E+00 0.14002639E+04</pdfrwt>
<pdfrwt beam="2">  1       -2 0.17614543E+00 0.14002639E+04</pdfrwt>
<totfact> 0.16751704E+00</totfact>
</mgrwt>
</event>
<event>
12    1  0.9321077E-008  0.1039476E+04  0.7818608E-02  0.9266277E-01
          1   -1    0    0  501    0  0.00000000000E+00  0.00000000000E+00  0.15403751940E+04  0.15403751940E+04  0.00000000000E+00 0. -1.
         -1   -1    0    0    0  501 -0.00000000000E+00 -0.00000000000E+00 -0.75118237204E+03  0.75118237204E+03  0.00000000000E+00 0.  1.
         23    2    1    2    0    0  0.19103727165E+03  0.94232622427E+03  0.61478986722E+03  0.11448740729E+04  0.91082983972E+02 0.  0.
    5000000    2    1    2    0    0 -0.19103727165E+03 -0.94232622427E+03  0.17440295469E+03  0.11466834931E+04  0.59999390875E+03 0.  0.
         23    2    4    4    0    0 -0.30841611218E+03 -0.24295789866E+03 -0.26298905047E+02  0.40399289126E+03  0.91485436044E+02 0.  0.
         23    2    4    4    0    0  0.11737884053E+03 -0.69936832561E+03  0.20070185974E+03  0.74269060180E+03  0.91729201591E+02 0.  0.
          3    1    3    3  502    0  0.31260915207E+02  0.30262803999E+03  0.15862064591E+03  0.34310564658E+03  0.00000000000E+00 0. -1.
         -3    1    3    3    0  502  0.15977635644E+03  0.63969818428E+03  0.45616922131E+03  0.80176842637E+03  0.00000000000E+00 0.  1.
         15    1    5    5    0    0 -0.27558489043E+03 -0.24484415759E+03 -0.14234499715E+02  0.36891933000E+03  0.17770000000E+01 0.  1.
        -15    1    5    5    0    0 -0.32831221744E+02  0.18862589278E+01 -0.12064405332E+02  0.35073561253E+02  0.17770000000E+01 0. -1.
          2    1    6    6  503    0  0.99790859000E+02 -0.34927463969E+03  0.79993219962E+02  0.37195417017E+03  0.00000000000E+00 0. -1.
         -2    1    6    6    0  503  0.17587981531E+02 -0.35009368592E+03  0.12070863978E+03  0.37073643163E+03  0.00000000000E+00 0.  1.
<mgrwt>
<rscale>  0 0.10394760E+04</rscale>
<asrwt>0</asrwt>
<pdfrwt beam="1">  1        1 0.23698080E+00 0.10394760E+04</pdfrwt>
<pdfrwt beam="2">  1       -1 0.11556652E+00 0.10394760E+04</pdfrwt>
<totfact> 0.41646351E+00</totfact>
</mgrwt>
</event>
<event>
12    1  0.9321077E-008  0.6400887E+03  0.7818608E-02  0.9825557E-01
         -2   -1    0    0    0  501 -0.00000000000E+00  0.00000000000E+00  0.74917456883E+03  0.74917456883E+03  0.00000000000E+00 0.  1.
          2   -1    0    0  501    0  0.00000000000E+00 -0.00000000000E+00 -0.11064484496E+04  0.11064484496E+04  0.00000000000E+00 0. -1.
         23    2    1    2    0    0  0.36786254696E+03 -0.48262511187E+03 -0.70407268722E+03  0.93398604016E+03  0.91442453275E+02 0.  0.
    5000000    2    1    2    0    0 -0.36786254696E+03  0.48262511187E+03  0.34679880646E+03  0.92163697826E+03  0.60074574945E+03 0.  0.
         23    2    4    4    0    0 -0.24151964071E+03  0.11780725066E+03  0.43040212626E+03  0.51596654066E+03  0.93622623481E+02 0.  0.
         23    2    4    4    0    0 -0.12634290625E+03  0.36481786121E+03 -0.83603319804E+02  0.40567043761E+03  0.92327607195E+02 0.  0.
          1    1    3    3  502    0  0.14179597812E+03 -0.11817699369E+03 -0.22374272162E+03  0.29005638543E+03  0.00000000000E+00 0. -1.
         -1    1    3    3    0  502  0.22606656884E+03 -0.36444811819E+03 -0.48032996560E+03  0.64392965474E+03  0.00000000000E+00 0.  1.
         15    1    5    5    0    0 -0.78023187159E+02  0.20830098278E+02  0.63524607975E+02  0.10276207606E+03  0.17770000000E+01 0.  1.
        -15    1    5    5    0    0 -0.16349645355E+03  0.96977152384E+02  0.36687751829E+03  0.41320446460E+03  0.17770000000E+01 0. -1.
          1    1    6    6  503    0 -0.10510580353E+02  0.16153996370E+03 -0.19280140548E+02  0.16302562985E+03  0.00000000000E+00 0. -1.
         -1    1    6    6    0  503 -0.11583232590E+03  0.20327789752E+03 -0.64323179256E+02  0.24264480775E+03  0.00000000000E+00 0.  1.
<mgrwt>
<rscale>  0 0.64008873E+03</rscale>
<asrwt>0</asrwt>
<pdfrwt beam="1">  1        2 0.17022284E+00 0.64008873E+03</pdfrwt>
<pdfrwt beam="2">  1       -2 0.11525763E+00 0.64008873E+03</pdfrwt>
<totfact> 0.13072468E+01</totfact>
</mgrwt>
</event>
<event>
12    1  0.9321077E-008  0.7868502E+03  0.7818608E-02  0.9579248E-01
          1   -1    0    0  501    0  0.00000000000E+00  0.00000000000E+00  0.29287058650E+04  0.29287058650E+04  0.00000000000E+00 0. -1.
         -1   -1    0    0    0  501 -0.00000000000E+00 -0.00000000000E+00 -0.22308479834E+03  0.22308479834E+03  0.00000000000E+00 0.  1.
         23    2    1    2    0    0  0.68744074712E+03 -0.84188071973E+02  0.12382756483E+04  0.14218393970E+04  0.92942334970E+02 0.  0.
    5000000    2    1    2    0    0 -0.68744074712E+03  0.84188071973E+02  0.14673454184E+04  0.17299512663E+04  0.59997199485E+03 0.  0.
         23    2    4    4    0    0 -0.68094233235E+03  0.23367288037E+03  0.10429508815E+04  0.12707723624E+04  0.93970105054E+02 0.  0.
         23    2    4    4    0    0 -0.64984147681E+01 -0.14948480840E+03  0.42439453684E+03  0.45917890391E+03  0.91359758992E+02 0.  0.
          4    1    3    3  502    0  0.41110664192E+03 -0.49960985313E+02  0.83104332973E+03  0.92851375163E+03  0.00000000000E+00 0. -1.
         -4    1    3    3    0  502  0.27633410520E+03 -0.34227086660E+02  0.40723231853E+03  0.49332564541E+03  0.00000000000E+00 0.  1.
         15    1    5    5    0    0 -0.64680485037E+02  0.24113352097E+02  0.15600640410E+03  0.17060531863E+03  0.17770000000E+01 0. -1.
        -15    1    5    5    0    0 -0.61626184731E+03  0.20955952827E+03  0.88694447742E+03  0.11001670437E+04  0.17770000000E+01 0.  1.
          1    1    6    6  503    0  0.26842304634E+02 -0.64783597905E+02  0.27869439133E+03  0.28738125832E+03  0.00000000000E+00 0. -1.
         -1    1    6    6    0  503 -0.33340719403E+02 -0.84701210493E+02  0.14570014551E+03  0.17179764559E+03  0.00000000000E+00 0.  1.
<mgrwt>
<rscale>  0 0.78685023E+03</rscale>
<asrwt>0</asrwt>
<pdfrwt beam="1">  1        1 0.45057011E+00 0.78685023E+03</pdfrwt>
<pdfrwt beam="2">  1       -1 0.34320740E-01 0.78685023E+03</pdfrwt>
<totfact> 0.57291872E+00</totfact>
</mgrwt>
</event>
<event>
12    1  0.9321077E-008  0.9865443E+03  0.7818608E-02  0.9323427E-01
         -1   -1    0    0    0  501 -0.00000000000E+00  0.00000000000E+00  0.28669805177E+03  0.28669805177E+03  0.00000000000E+00 0.  1.
          1   -1    0    0  501    0  0.00000000000E+00 -0.00000000000E+00 -0.42248354118E+04  0.42248354118E+04  0.00000000000E+00 0. -1.
         23    2    1    2    0    0 -0.75199747065E+03  0.52785346294E+03 -0.27177527301E+04  0.28703327355E+04  0.92198895554E+02 0.  0.
    5000000    2    1    2    0    0  0.75199747065E+03 -0.52785346294E+03 -0.12203846300E+04  0.16412007281E+04  0.60005975594E+03 0.  0.
         23    2    4    4    0    0  0.10225107437E+03  0.90923612436E+02 -0.35608959368E+03  0.39186770042E+03  0.89655509595E+02 0.  0.
         23    2    4    4    0    0  0.64974639628E+03 -0.61877707538E+03 -0.86429503634E+03  0.12493330277E+04  0.93657118495E+02 0.  0.
          1    1    3    3  502    0 -0.50904430063E+03  0.39668509804E+03 -0.18163094008E+04  0.19275541514E+04  0.00000000000E+00 0. -1.
         -1    1    3    3    0  502 -0.24295317002E+03  0.13116836490E+03 -0.90144332924E+03  0.94277858408E+03  0.00000000000E+00 0.  1.
         15    1    5    5    0    0 -0.10057914750E+02  0.16657746954E+02 -0.13457623149E+02  0.23725672435E+02  0.17770000000E+01 0. -1.
        -15    1    5    5    0    0  0.11230898912E+03  0.74265865482E+02 -0.34263197053E+03  0.36814202799E+03  0.17770000000E+01 0.  1.
          3    1    6    6  503    0  0.21281040457E+03 -0.21467113972E+03 -0.23243180811E+03  0.38130894554E+03  0.00000000000E+00 0. -1.
         -3    1    6    6    0  503  0.43693599170E+03 -0.40410593565E+03 -0.63186322823E+03  0.86802408219E+03  0.00000000000E+00 0.  1.
<mgrwt>
<rscale>  0 0.98654432E+03</rscale>
<asrwt>0</asrwt>
<pdfrwt beam="1">  1        1 0.64997468E+00 0.98654432E+03</pdfrwt>
<pdfrwt beam="2">  1       -1 0.44107392E-01 0.98654432E+03</pdfrwt>
<totfact> 0.32446894E-01</totfact>
</mgrwt>
</event>
<event>
12    1  0.9321077E-008  0.5413690E+03  0.7818608E-02  0.1003512E+00
          2   -1    0    0  501    0  0.00000000000E+00  0.00000000000E+00  0.12396079017E+04  0.12396079017E+04  0.00000000000E+00 0. -1.
         -2   -1    0    0    0  501 -0.00000000000E+00 -0.00000000000E+00 -0.34478762724E+03  0.34478762724E+03  0.00000000000E+00 0.  1.
         23    2    1    2    0    0 -0.39808001810E+03 -0.31891191095E+03  0.32432712192E+03  0.61199832956E+03  0.95819442743E+02 0.  0.
    5000000    2    1    2    0    0  0.39808001810E+03  0.31891191095E+03  0.57049315255E+03  0.97239719941E+03  0.59993447021E+03 0.  0.
         23    2    4    4    0    0  0.16750133505E+03  0.75866280853E+01  0.54037267993E+03  0.57336981996E+03  0.92930420492E+02 0.  0.
         23    2    4    4    0    0  0.23057868305E+03  0.31132528286E+03  0.30120472620E+02  0.39902737945E+03  0.90695346350E+02 0.  0.
          1    1    3    3  502    0 -0.10932408722E+03 -0.11527408923E+03  0.56474191506E+02  0.16860962606E+03  0.00000000000E+00 0.  1.
         -1    1    3    3    0  502 -0.28875593089E+03 -0.20363782172E+03  0.26785293042E+03  0.44338870350E+03  0.00000000000E+00 0. -1.
         15    1    5    5    0    0  0.19310825808E+02 -0.21891491917E+02  0.33579043657E+02  0.44529263565E+02  0.17770000000E+01 0. -1.
        -15    1    5    5    0    0  0.14819050924E+03  0.29478120002E+02  0.50679363628E+03  0.52884055639E+03  0.17770000000E+01 0.  1.
          4    1    6    6  503    0  0.34654266704E+02  0.79012046018E+02 -0.25739472522E+02  0.90035226786E+02  0.00000000000E+00 0. -1.
         -4    1    6    6    0  503  0.19592441635E+03  0.23231323685E+03  0.55859945141E+02  0.30899215266E+03  0.00000000000E+00 0.  1.
<mgrwt>
<rscale>  0 0.54136902E+03</rscale>
<asrwt>0</asrwt>
<pdfrwt beam="1">  1        2 0.19070891E+00 0.54136902E+03</pdfrwt>
<pdfrwt beam="2">  1       -2 0.53044251E-01 0.54136902E+03</pdfrwt>
<totfact> 0.62569267E+01</totfact>
</mgrwt>
</event>
<event>
12    1  0.9321077E-008  0.4317903E+03  0.7818608E-02  0.1033296E+00
         -2   -1    0    0    0  501 -0.00000000000E+00  0.00000000000E+00  0.29956599697E+03  0.29956599697E+03  0.00000000000E+00 0. -1.
          2   -1    0    0  501    0  0.00000000000E+00 -0.00000000000E+00 -0.18346103877E+04  0.18346103877E+04  0.00000000000E+00 0.  1.
         23    2    1    2    0    0 -0.38594772238E+01  0.40287450425E+03 -0.13154143319E+04  0.13788236800E+04  0.92288213140E+02 0.  0.
    5000000    2    1    2    0    0  0.38594772238E+01 -0.40287450425E+03 -0.21963005885E+03  0.75535270467E+03  0.59999798663E+03 0.  0.
         23    2    4    4    0    0  0.18681698845E+01 -0.86077923339E+02  0.19133810812E+03  0.22842137519E+03  0.90294817558E+02 0.  0.
         23    2    4    4    0    0  0.19913073394E+01 -0.31679658091E+03 -0.41096816697E+03  0.52693132948E+03  0.91639253310E+02 0.  0.
          1    1    3    3  502    0 -0.44304614999E+02  0.29057654355E+03 -0.92748810194E+03  0.97295005309E+03  0.00000000000E+00 0. -1.
         -1    1    3    3    0  502  0.40445137775E+02  0.11229796070E+03 -0.38792622994E+03  0.40587362691E+03  0.00000000000E+00 0.  1.
         15    1    5    5    0    0  0.16986241804E+02  0.14701098019E+02  0.41123098308E+02  0.46892660801E+02  0.17770000000E+01 0. -1.
        -15    1    5    5    0    0 -0.15118071919E+02 -0.10077902136E+03  0.15021500981E+03  0.18152871438E+03  0.17770000000E+01 0.  1.
          1    1    6    6  503    0 -0.37099288843E+02 -0.15492837732E+03 -0.24174380236E+03  0.28951550098E+03  0.00000000000E+00 0. -1.
         -1    1    6    6    0  503  0.39090596182E+02 -0.16186820359E+03 -0.16922436461E+03  0.23741582850E+03  0.00000000000E+00 0.  1.
<mgrwt>
<rscale>  0 0.43179034E+03</rscale>
<asrwt>0</asrwt>
<pdfrwt beam="1">  1        2 0.28224776E+00 0.43179034E+03</pdfrwt>
<pdfrwt beam="2">  1       -2 0.46087075E-01 0.43179034E+03</pdfrwt>
<totfact> 0.39855094E+01</totfact>
</mgrwt>
</event>
<event>
12    1  0.9321077E-008  0.7851108E+03  0.7818608E-02  0.9581822E-01
          1   -1    0    0  501    0  0.00000000000E+00  0.00000000000E+00  0.12251996119E+04  0.12251996119E+04  0.00000000000E+00 0. -1.
         -1   -1    0    0    0  501 -0.00000000000E+00 -0.00000000000E+00 -0.73894373907E+03  0.73894373907E+03  0.00000000000E+00 0.  1.
         23    2    1    2    0    0 -0.72613208792E+03  0.15313506715E+03 -0.21708521349E+03  0.77861034855E+03  0.91596544987E+02 0.  0.
    5000000    2    1    2    0    0  0.72613208792E+03 -0.15313506715E+03  0.70334108631E+03  0.11855330024E+04  0.60006804464E+03 0.  0.
         23    2    4    4    0    0  0.65684801392E+03 -0.29853899595E+02  0.26322042781E+03  0.71427659130E+03  0.92549913838E+02 0.  0.
         23    2    4    4    0    0  0.69284074006E+02 -0.12328116756E+03  0.44012065850E+03  0.47125641111E+03  0.91530769609E+02 0.  0.
          3    1    3    3  502    0 -0.23401067456E+03  0.19726622248E+02 -0.36322519052E+02  0.23763303816E+03  0.00000000000E+00 0. -1.
         -3    1    3    3    0  502 -0.49212141336E+03  0.13340844490E+03 -0.18076269444E+03  0.54097731039E+03  0.00000000000E+00 0.  1.
         15    1    5    5    0    0  0.22202985220E+03  0.17278158571E+02  0.52596869607E+02  0.22883482789E+03  0.17770000000E+01 0.  1.
        -15    1    5    5    0    0  0.43481816171E+03 -0.47132058166E+02  0.21062355820E+03  0.48544176341E+03  0.17770000000E+01 0. -1.
          4    1    6    6  503    0  0.68290627370E+02 -0.34276248466E+02  0.15951125458E+03  0.17686806194E+03  0.00000000000E+00 0. -1.
         -4    1    6    6    0  503  0.99344663644E+00 -0.89004919092E+02  0.28060940392E+03  0.29438834917E+03  0.00000000000E+00 0.  1.
<mgrwt>
<rscale>  0 0.78511079E+03</rscale>
<asrwt>0</asrwt>
<pdfrwt beam="1">  1        1 0.18849225E+00 0.78511079E+03</pdfrwt>
<pdfrwt beam="2">  1       -1 0.11368365E+00 0.78511079E+03</pdfrwt>
<totfact> 0.74518077E+00</totfact>
</mgrwt>
</event>
<event>
12    1  0.9321077E-008  0.5387777E+03  0.7818608E-02  0.1004125E+00
         -4   -1    0    0    0  501 -0.00000000000E+00  0.00000000000E+00  0.62723812230E+03  0.62723812230E+03  0.00000000000E+00 0.  1.
          4   -1    0    0  501    0  0.00000000000E+00 -0.00000000000E+00 -0.59203011560E+03  0.59203011560E+03  0.00000000000E+00 0. -1.
         23    2    1    2    0    0  0.27615326810E+03  0.24730644828E+03  0.27726020197E+03  0.47359011594E+03  0.99966351701E+02 0.  0.
    5000000    2    1    2    0    0 -0.27615326810E+03 -0.24730644828E+03 -0.24205219528E+03  0.74567812196E+03  0.60002124086E+03 0.  0.
         23    2    4    4    0    0 -0.35013758727E+03  0.67616660911E+02 -0.98557869660E+02  0.38091576047E+03  0.90635644507E+02 0.  0.
         23    2    4    4    0    0  0.73984319167E+02 -0.31492310920E+03 -0.14349432562E+03  0.36476236148E+03  0.88378247789E+02 0.  0.
          4    1    3    3  502    0  0.18326524072E+03  0.10041888351E+03  0.13283281775E+03  0.24761796803E+03  0.00000000000E+00 0.  1.
         -4    1    3    3    0  502  0.92888027383E+02  0.14688756478E+03  0.14442738423E+03  0.22597214791E+03  0.00000000000E+00 0. -1.
         15    1    5    5    0    0 -0.20594512659E+03  0.13639929938E+02 -0.94189554761E+02  0.22687942351E+03  0.17770000000E+01 0. -1.
        -15    1    5    5    0    0 -0.14419246067E+03  0.53976730973E+02 -0.43683148991E+01  0.15403633696E+03  0.17770000000E+01 0.  1.
          2    1    6    6  503    0 -0.33858729472E+01 -0.17078801194E+03 -0.86949831529E+02  0.19167754788E+03  0.00000000000E+00 0. -1.
         -2    1    6    6    0  503  0.77370192114E+02 -0.14413509726E+03 -0.56544494092E+02  0.17308481360E+03  0.00000000000E+00 0.  1.
<mgrwt>
<rscale>  0 0.53877768E+03</rscale>
<asrwt>0</asrwt>
<pdfrwt beam="1">  1        4 0.91081557E-01 0.53877768E+03</pdfrwt>
<pdfrwt beam="2">  1       -4 0.96498172E-01 0.53877768E+03</pdfrwt>
<totfact> 0.18051097E+00</totfact>
</mgrwt>
</event>
<event>
12    1  0.9321077E-008  0.8389492E+03  0.7818608E-02  0.9505290E-01
         -2   -1    0    0    0  501 -0.00000000000E+00  0.00000000000E+00  0.73660624457E+03  0.73660624457E+03  0.00000000000E+00 0.  1.
          2   -1    0    0  501    0  0.00000000000E+00 -0.00000000000E+00 -0.17636991533E+04  0.17636991533E+04  0.00000000000E+00 0. -1.
         23    2    1    2    0    0  0.72254222538E+03  0.28788701128E+03 -0.12666522051E+04  0.14891539982E+04  0.90695221091E+02 0.  0.
    5000000    2    1    2    0    0 -0.72254222538E+03 -0.28788701128E+03  0.23955929635E+03  0.10111513996E+04  0.60007690989E+03 0.  0.
         23    2    4    4    0    0 -0.40769880201E+03 -0.37029607016E+03 -0.56713952908E+02  0.56138400296E+03  0.92725582164E+02 0.  0.
         23    2    4    4    0    0 -0.31484342337E+03  0.82409058882E+02  0.29627324926E+03  0.44976739667E+03  0.92710509949E+02 0.  0.
          3    1    3    3  502    0  0.33479746252E+03  0.84927103445E+02 -0.55800358547E+03  0.65625448967E+03  0.00000000000E+00 0. -1.
         -3    1    3    3    0  502  0.38774476287E+03  0.20295990783E+03 -0.70864861961E+03  0.83289950858E+03  0.00000000000E+00 0.  1.
         15    1    5    5    0    0 -0.12380942099E+03 -0.65244017906E+02  0.53965826752E+01  0.14006368349E+03  0.17770000000E+01 0. -1.
        -15    1    5    5    0    0 -0.28388938102E+03 -0.30505205225E+03 -0.62110535583E+02  0.42132031947E+03  0.17770000000E+01 0.  1.
          2    1    6    6  503    0 -0.15850586138E+03 -0.58976589925E+01  0.14722079366E+03  0.21640899371E+03  0.00000000000E+00 0. -1.
         -2    1    6    6    0  503 -0.15633756199E+03  0.88306717875E+02  0.14905245561E+03  0.23335840296E+03  0.00000000000E+00 0.  1.
<mgrwt>
<rscale>  0 0.83894921E+03</rscale>
<asrwt>0</asrwt>
<pdfrwt beam="1">  1        2 0.27133833E+00 0.83894921E+03</pdfrwt>
<pdfrwt beam="2">  1       -2 0.11332404E+00 0.83894921E+03</pdfrwt>
<totfact> 0.56189483E+00</totfact>
</mgrwt>
</event>
<event>
12    1  0.9321077E-008  0.4764925E+03  0.7818608E-02  0.1020104E+00
         -1   -1    0    0    0  501 -0.00000000000E+00  0.00000000000E+00  0.52865137064E+03  0.52865137064E+03  0.00000000000E+00 0.  1.
          1   -1    0    0  501    0  0.00000000000E+00 -0.00000000000E+00 -0.84381962854E+03  0.84381962854E+03  0.00000000000E+00 0. -1.
         23    2    1    2    0    0  0.37965504642E+03  0.17189623528E+03  0.20736281345E+03  0.47417606167E+03  0.90317944415E+02 0.  0.
    5000000    2    1    2    0    0 -0.37965504642E+03 -0.17189623528E+03 -0.52253107135E+03  0.89829493752E+03  0.60017397834E+03 0.  0.
         23    2    4    4    0    0 -0.34049002578E+02 -0.15632857655E+03 -0.50785671843E+03  0.54036739943E+03  0.92089746962E+02 0.  0.
         23    2    4    4    0    0 -0.34560604384E+03 -0.15567658738E+02 -0.14674352919E+02  0.35792753809E+03  0.90613996438E+02 0.  0.
          1    1    3    3  502    0  0.35772551167E+03  0.13631877058E+03  0.17310975877E+03  0.42013966427E+03  0.00000000000E+00 0. -1.
         -1    1    3    3    0  502  0.21929534749E+02  0.35577464706E+02  0.34253054676E+02  0.54036397399E+02  0.00000000000E+00 0.  1.
         15    1    5    5    0    0 -0.62554766345E+02 -0.12201689830E+03 -0.41998953906E+03  0.44180945317E+03  0.17770000000E+01 0. -1.
        -15    1    5    5    0    0  0.28505763768E+02 -0.34311678250E+02 -0.87867179373E+02  0.98557946267E+02  0.17770000000E+01 0.  1.
          3    1    6    6  503    0 -0.23440757128E+03 -0.20428137976E+02 -0.51163498879E+02  0.24079435607E+03  0.00000000000E+00 0. -1.
         -3    1    6    6    0  503 -0.11119847256E+03  0.48604792377E+01  0.36489145960E+02  0.11713318202E+03  0.00000000000E+00 0.  1.
<mgrwt>
<rscale>  0 0.47649254E+03</rscale>
<asrwt>0</asrwt>
<pdfrwt beam="1">  1        1 0.12981840E+00 0.47649254E+03</pdfrwt>
<pdfrwt beam="2">  1       -1 0.81330981E-01 0.47649254E+03</pdfrwt>
<totfact> 0.32457641E+01</totfact>
</mgrwt>
</event>
<event>
12    1  0.9321077E-008  0.7154461E+03  0.7818608E-02  0.9691176E-01
         -1   -1    0    0    0  501 -0.00000000000E+00  0.00000000000E+00  0.99488229881E+03  0.99488229881E+03  0.00000000000E+00 0.  1.
          1   -1    0    0  501    0  0.00000000000E+00 -0.00000000000E+00 -0.11477960119E+04  0.11477960119E+04  0.00000000000E+00 0. -1.
         23    2    1    2    0    0  0.27832126749E+02 -0.69259925238E+03 -0.76777176896E+03  0.10387777263E+04  0.95484678031E+02 0.  0.
    5000000    2    1    2    0    0 -0.27832126749E+02  0.69259925238E+03  0.61485805585E+03  0.11039005844E+04  0.60006476299E+03 0.  0.
         23    2    4    4    0    0 -0.11061602196E+03  0.58559464549E+03  0.16550100898E+03  0.62580976265E+03  0.95342969910E+02 0.  0.
         23    2    4    4    0    0  0.82783895209E+02  0.10700460689E+03  0.44935704687E+03  0.47809082178E+03  0.91356001990E+02 0.  0.
          4    1    3    3  502    0  0.18894015983E+02 -0.37002680398E+03 -0.48033410628E+03  0.60662811768E+03  0.00000000000E+00 0. -1.
         -4    1    3    3    0  502  0.89381107656E+01 -0.32257244840E+03 -0.28743766267E+03  0.43214960860E+03  0.00000000000E+00 0.  1.
         15    1    5    5    0    0 -0.54467651957E+02  0.38325171115E+03  0.15030962987E+03  0.41526466473E+03  0.17770000000E+01 0.  1.
        -15    1    5    5    0    0 -0.56148370001E+02  0.20234293434E+03  0.15191379114E+02  0.21054509792E+03  0.17770000000E+01 0. -1.
          2    1    6    6  503    0  0.38903725011E+02  0.21431896158E+02  0.27857950880E+03  0.28209815440E+03  0.00000000000E+00 0. -1.
         -2    1    6    6    0  503  0.43880170198E+02  0.85572710730E+02  0.17077753807E+03  0.19599266738E+03  0.00000000000E+00 0.  1.
<mgrwt>
<rscale>  0 0.71544611E+03</rscale>
<asrwt>0</asrwt>
<pdfrwt beam="1">  1        1 0.17658400E+00 0.71544611E+03</pdfrwt>
<pdfrwt beam="2">  1       -1 0.15305882E+00 0.71544611E+03</pdfrwt>
<totfact> 0.40310334E+00</totfact>
</mgrwt>
</event>
<event>
12    1  0.9321077E-008  0.5941092E+03  0.7818608E-02  0.9917704E-01
          3   -1    0    0  501    0  0.00000000000E+00  0.00000000000E+00  0.29588725048E+04  0.29588725048E+04  0.00000000000E+00 0. -1.
         -3   -1    0    0    0  501 -0.00000000000E+00 -0.00000000000E+00 -0.15292318269E+03  0.15292318269E+03  0.00000000000E+00 0.  1.
         23    2    1    2    0    0  0.44563979687E+03 -0.41264187614E+02  0.18056515535E+04  0.18624845098E+04  0.90407159764E+02 0.  0.
    5000000    2    1    2    0    0 -0.44563979687E+03  0.41264187614E+02  0.10002977686E+04  0.12493111777E+04  0.59990435177E+03 0.  0.
         23    2    4    4    0    0 -0.56125824062E+03 -0.55824396576E+02  0.79552363495E+03  0.97940486267E+03  0.90823209260E+02 0.  0.
         23    2    4    4    0    0  0.11561844375E+03  0.97088584190E+02  0.20477413361E+03  0.26990631506E+03  0.90128549296E+02 0.  0.
          3    1    3    3  502    0  0.38423786882E+03 -0.29956063892E+02  0.16574458951E+04  0.17016647733E+04  0.00000000000E+00 0. -1.
         -3    1    3    3    0  502  0.61401928053E+02 -0.11308123722E+02  0.14820565844E+03  0.16081973642E+03  0.00000000000E+00 0.  1.
         15    1    5    5    0    0 -0.22789910034E+03 -0.35691506733E+02  0.25347548196E+03  0.34273147108E+03  0.17770000000E+01 0. -1.
        -15    1    5    5    0    0 -0.33335914028E+03 -0.20132889843E+02  0.54204815299E+03  0.63667339159E+03  0.17770000000E+01 0.  1.
          2    1    6    6  503    0  0.11853639065E+03  0.50171268970E+02  0.15411297505E+03  0.20079552091E+03  0.00000000000E+00 0. -1.
         -2    1    6    6    0  503 -0.29179468996E+01  0.46917315220E+02  0.50661158560E+02  0.69110794151E+02  0.00000000000E+00 0.  1.
<mgrwt>
<rscale>  0 0.59410915E+03</rscale>
<asrwt>0</asrwt>
<pdfrwt beam="1">  1        3 0.45521111E+00 0.59410915E+03</pdfrwt>
<pdfrwt beam="2">  1       -3 0.23526646E-01 0.59410915E+03</pdfrwt>
<totfact> 0.27318839E-01</totfact>
</mgrwt>
</event>
<event>
12    1  0.9321077E-008  0.5559706E+03  0.7818608E-02  0.1000121E+00
         -1   -1    0    0    0  501 -0.00000000000E+00  0.00000000000E+00  0.80167002613E+03  0.80167002613E+03  0.00000000000E+00 0.  1.
          1   -1    0    0  501    0  0.00000000000E+00 -0.00000000000E+00 -0.47766901489E+03  0.47766901489E+03  0.00000000000E+00 0. -1.
         23    2    1    2    0    0  0.36704208101E+03 -0.25680350700E+03 -0.96645596734E+01  0.45954475135E+03  0.10207861843E+03 0.  0.
    5000000    2    1    2    0    0 -0.36704208101E+03  0.25680350700E+03  0.33366557092E+03  0.81979428967E+03  0.60005169254E+03 0.  0.
         23    2    4    4    0    0 -0.13009425982E+03  0.35665109977E+03  0.37750814291E+03  0.54260104665E+03  0.88198494649E+02 0.  0.
         23    2    4    4    0    0 -0.23694782119E+03 -0.99847592766E+02 -0.43842571990E+02  0.27719324302E+03  0.93808907409E+02 0.  0.
          2    1    3    3  502    0  0.33820834621E+02 -0.63937491611E+02 -0.17637627541E+02  0.74450907269E+02  0.00000000000E+00 0. -1.
         -2    1    3    3    0  502  0.33322124639E+03 -0.19286601539E+03  0.79730678679E+01  0.38509384408E+03  0.00000000000E+00 0.  1.
         15    1    5    5    0    0 -0.92813477519E+02  0.32786904772E+03  0.31287566159E+03  0.46260868064E+03  0.17770000000E+01 0.  1.
        -15    1    5    5    0    0 -0.37280782302E+02  0.28782052052E+02  0.64632481314E+02  0.79992366006E+02  0.17770000000E+01 0. -1.
          3    1    6    6  503    0 -0.10565197706E+03 -0.82961905415E+02  0.90591721347E+01  0.13463686942E+03  0.00000000000E+00 0. -1.
         -3    1    6    6    0  503 -0.13129584413E+03 -0.16885687351E+02 -0.52901744124E+02  0.14255637360E+03  0.00000000000E+00 0.  1.
<mgrwt>
<rscale>  0 0.55597058E+03</rscale>
<asrwt>0</asrwt>
<pdfrwt beam="1">  1        1 0.73487541E-01 0.55597058E+03</pdfrwt>
<pdfrwt beam="2">  1       -1 0.12333385E+00 0.55597058E+03</pdfrwt>
<totfact> 0.28593026E+01</totfact>
</mgrwt>
</event>
<event>
12    1  0.9321077E-008  0.8306527E+03  0.7818608E-02  0.9516679E-01
          1   -1    0    0  501    0  0.00000000000E+00  0.00000000000E+00  0.92332623185E+03  0.92332623185E+03  0.00000000000E+00 0. -1.
         -1   -1    0    0    0  501 -0.00000000000E+00 -0.00000000000E+00 -0.91510814286E+03  0.91510814286E+03  0.00000000000E+00 0.  1.
         23    2    1    2    0    0 -0.88017575856E+02  0.78733284206E+03  0.20941333838E+03  0.82444512193E+03  0.90640581058E+02 0.  0.
    5000000    2    1    2    0    0  0.88017575856E+02 -0.78733284206E+03 -0.20119524938E+03  0.10139892528E+04  0.60004548038E+03 0.  0.
         23    2    4    4    0    0  0.81053791771E+02 -0.78850080156E+03 -0.50986920879E+01  0.79789527465E+03  0.91146263949E+02 0.  0.
         23    2    4    4    0    0  0.69637840848E+01  0.11679594970E+01 -0.19609655729E+03  0.21609397812E+03  0.90514579938E+02 0.  0.
          2    1    3    3  502    0 -0.60557294435E+02  0.68704455002E+03  0.15428074487E+03  0.70675310248E+03  0.00000000000E+00 0. -1.
         -2    1    3    3    0  502 -0.27460281421E+02  0.10028829204E+03  0.55132593504E+02  0.11769201945E+03  0.00000000000E+00 0.  1.
         15    1    5    5    0    0 -0.14616017916E+02 -0.26500891557E+03  0.85490996099E+01  0.26555526382E+03  0.17770000000E+01 0.  1.
        -15    1    5    5    0    0  0.95669809687E+02 -0.52349188599E+03 -0.13647791698E+02  0.53234001083E+03  0.17770000000E+01 0. -1.
          1    1    6    6  503    0 -0.27271390146E+02 -0.16122901868E+02 -0.16105944314E+03  0.16414573071E+03  0.00000000000E+00 0. -1.
         -1    1    6    6    0  503  0.34235174231E+02  0.17290861365E+02 -0.35037114151E+02  0.51948247414E+02  0.00000000000E+00 0.  1.
<mgrwt>
<rscale>  0 0.83065272E+03</rscale>
<asrwt>0</asrwt>
<pdfrwt beam="1">  1        1 0.14205019E+00 0.83065272E+03</pdfrwt>
<pdfrwt beam="2">  1       -1 0.14078587E+00 0.83065272E+03</pdfrwt>
<totfact> 0.73544985E+00</totfact>
</mgrwt>
</event>
<event>
12    1  0.9321077E-008  0.5302613E+03  0.7818608E-02  0.1006169E+00
         -2   -1    0    0    0  501 -0.00000000000E+00  0.00000000000E+00  0.15163779169E+03  0.15163779169E+03  0.00000000000E+00 0. -1.
          2   -1    0    0  501    0  0.00000000000E+00 -0.00000000000E+00 -0.27351018440E+04  0.27351018440E+04  0.00000000000E+00 0.  1.
         23    2    1    2    0    0 -0.48831977907E+03  0.22387775771E+02 -0.81474283448E+03  0.95614939781E+03  0.10704375488E+03 0.  0.
    5000000    2    1    2    0    0  0.48831977907E+03 -0.22387775771E+02 -0.17687212178E+04  0.19305902379E+04  0.59987207055E+03 0.  0.
         23    2    4    4    0    0  0.44813698379E+03 -0.81543446861E+02 -0.61540398089E+03  0.77143057604E+03  0.94376819116E+02 0.  0.
         23    2    4    4    0    0  0.40182795284E+02  0.59155671090E+02 -0.11533172370E+04  0.11591596618E+04  0.91631992965E+02 0.  0.
          3    1    3    3  502    0 -0.22676542950E+03  0.52007643913E+01 -0.27777209141E+03  0.35861810152E+03  0.00000000000E+00 0. -1.
         -3    1    3    3    0  502 -0.26155434957E+03  0.17187011380E+02 -0.53697074307E+03  0.59753129630E+03  0.00000000000E+00 0.  1.
         15    1    5    5    0    0  0.30838348892E+03 -0.58280401237E+02 -0.34667109424E+03  0.46763338923E+03  0.17770000000E+01 0.  1.
        -15    1    5    5    0    0  0.13975349486E+03 -0.23263045624E+02 -0.26873288665E+03  0.30379718681E+03  0.17770000000E+01 0. -1.
          3    1    6    6  503    0  0.55325292539E+02  0.75605426599E+02 -0.90377002827E+03  0.90861286175E+03  0.00000000000E+00 0. -1.
         -3    1    6    6    0  503 -0.15142497255E+02 -0.16449755509E+02 -0.24954720868E+03  0.25054680010E+03  0.00000000000E+00 0.  1.
<mgrwt>
<rscale>  0 0.53026130E+03</rscale>
<asrwt>0</asrwt>
<pdfrwt beam="1">  1        2 0.42078488E+00 0.53026130E+03</pdfrwt>
<pdfrwt beam="2">  1       -2 0.23328892E-01 0.53026130E+03</pdfrwt>
<totfact> 0.44681774E+01</totfact>
</mgrwt>
</event>
<event>
12    1  0.9321077E-008  0.7320691E+03  0.7818608E-02  0.9663909E-01
          1   -1    0    0  501    0  0.00000000000E+00  0.00000000000E+00  0.20984822207E+04  0.20984822207E+04  0.00000000000E+00 0. -1.
         -1   -1    0    0    0  501 -0.00000000000E+00 -0.00000000000E+00 -0.34800854061E+03  0.34800854061E+03  0.00000000000E+00 0.  1.
         23    2    1    2    0    0 -0.42532568639E+02 -0.72470415930E+03  0.10154312418E+04  0.12516201946E+04  0.91909557352E+02 0.  0.
    5000000    2    1    2    0    0  0.42532568639E+02  0.72470415930E+03  0.73504243834E+03  0.11948705668E+04  0.60035251920E+03 0.  0.
         23    2    4    4    0    0  0.31377993416E+02  0.55183426664E+03  0.81052667141E+03  0.98521791475E+03  0.90527444372E+02 0.  0.
         23    2    4    4    0    0  0.11154575223E+02  0.17286989266E+03 -0.75484233073E+02  0.20965265203E+03  0.90818173959E+02 0.  0.
          2    1    3    3  502    0 -0.37380329590E+02 -0.50952184602E+03  0.64051856183E+03  0.81931302239E+03  0.00000000000E+00 0.  1.
         -2    1    3    3    0  502 -0.51522390497E+01 -0.21518231328E+03  0.37491267996E+03  0.43230717217E+03  0.00000000000E+00 0. -1.
         15    1    5    5    0    0  0.54280126423E+02  0.19344327573E+03  0.29653860741E+03  0.35819678455E+03  0.17770000000E+01 0. -1.
        -15    1    5    5    0    0 -0.22902133007E+02  0.35839099091E+03  0.51398806400E+03  0.62702113021E+03  0.17770000000E+01 0.  1.
          2    1    6    6  503    0 -0.10840901562E+02  0.12265653158E+03 -0.89726518941E+01  0.12346116137E+03  0.00000000000E+00 0. -1.
         -2    1    6    6    0  503  0.21995476785E+02  0.50213361089E+02 -0.66511581179E+02  0.86191490658E+02  0.00000000000E+00 0.  1.
<mgrwt>
<rscale>  0 0.73206907E+03</rscale>
<asrwt>0</asrwt>
<pdfrwt beam="1">  1        1 0.32284341E+00 0.73206907E+03</pdfrwt>
<pdfrwt beam="2">  1       -1 0.53539777E-01 0.73206907E+03</pdfrwt>
<totfact> 0.94486295E+00</totfact>
</mgrwt>
</event>
<event>
12    1  0.9321077E-008  0.7460617E+03  0.7818608E-02  0.9641549E-01
          1   -1    0    0  501    0  0.00000000000E+00  0.00000000000E+00  0.26527487819E+03  0.26527487819E+03  0.00000000000E+00 0. -1.
         -1   -1    0    0    0  501 -0.00000000000E+00 -0.00000000000E+00 -0.22511731934E+04  0.22511731934E+04  0.00000000000E+00 0.  1.
         23    2    1    2    0    0 -0.33516779205E+03 -0.53592285042E+03 -0.11107668994E+04  0.12813522050E+04  0.92247591032E+02 0.  0.
    5000000    2    1    2    0    0  0.33516779205E+03  0.53592285042E+03 -0.87513141581E+03  0.12350958666E+04  0.60004671006E+03 0.  0.
         23    2    4    4    0    0  0.33897517862E+03  0.24842618964E+02 -0.35156001062E+03  0.49756427708E+03  0.91948036004E+02 0.  0.
         23    2    4    4    0    0 -0.38073865683E+01  0.51108023146E+03 -0.52357140519E+03  0.73753158949E+03  0.92781086329E+02 0.  0.
          3    1    3    3  502    0 -0.26739669239E+03 -0.40307782900E+03 -0.76920609362E+03  0.90865325719E+03  0.00000000000E+00 0.  1.
         -3    1    3    3    0  502 -0.67771099669E+02 -0.13284502142E+03 -0.34156080577E+03  0.37269894782E+03  0.00000000000E+00 0. -1.
         15    1    5    5    0    0  0.24898086765E+03 -0.33902016969E+00 -0.30318081595E+03  0.39231792246E+03  0.17770000000E+01 0. -1.
        -15    1    5    5    0    0  0.89994310969E+02  0.25181639134E+02 -0.48379194666E+02  0.10524635462E+03  0.17770000000E+01 0.  1.
          3    1    6    6  503    0 -0.33734791855E+02  0.12140834507E+03 -0.16082630774E+03  0.20431134011E+03  0.00000000000E+00 0. -1.
         -3    1    6    6    0  503  0.29927405286E+02  0.38967188639E+03 -0.36274509745E+03  0.53322024938E+03  0.00000000000E+00 0.  1.
<mgrwt>
<rscale>  0 0.74606165E+03</rscale>
<asrwt>0</asrwt>
<pdfrwt beam="1">  1        1 0.40811520E-01 0.74606165E+03</pdfrwt>
<pdfrwt beam="2">  1       -1 0.34633434E+00 0.74606165E+03</pdfrwt>
<totfact> 0.17899584E+00</totfact>
</mgrwt>
</event>
<event>
12    1  0.9321077E-008  0.6469178E+03  0.7818608E-02  0.9812580E-01
          2   -1    0    0  501    0  0.00000000000E+00  0.00000000000E+00  0.26521312629E+04  0.26521312629E+04  0.00000000000E+00 0. -1.
         -2   -1    0    0    0  501 -0.00000000000E+00 -0.00000000000E+00 -0.17988786916E+03  0.17988786916E+03  0.00000000000E+00 0.  1.
         23    2    1    2    0    0 -0.39052765868E+03 -0.33578240601E+03  0.57912813706E+03  0.78009384423E+03  0.88855671170E+02 0.  0.
    5000000    2    1    2    0    0  0.39052765868E+03  0.33578240601E+03  0.18931152567E+04  0.20519252878E+04  0.60104104302E+03 0.  0.
         23    2    4    4    0    0  0.11829397780E+03 -0.16009872547E+03  0.56408041051E+03  0.60462852266E+03  0.88112847022E+02 0.  0.
         23    2    4    4    0    0  0.27223368088E+03  0.49588113148E+03  0.13290348462E+04  0.14472967652E+04  0.91241605539E+02 0.  0.
          1    1    3    3  502    0 -0.26764552703E+03 -0.24902958545E+03  0.46375060006E+03  0.59052051753E+03  0.00000000000E+00 0. -1.
         -1    1    3    3    0  502 -0.12288213165E+03 -0.86752820558E+02  0.11537753700E+03  0.18957332671E+03  0.00000000000E+00 0.  1.
         15    1    5    5    0    0  0.52461016681E+02 -0.28660263478E+02  0.26112965174E+03  0.26789068987E+03  0.17770000000E+01 0. -1.
        -15    1    5    5    0    0  0.65832961119E+02 -0.13143846200E+03  0.30295075877E+03  0.33673783279E+03  0.17770000000E+01 0.  1.
          4    1    6    6  503    0  0.19350807547E+03  0.27290188597E+03  0.83723440952E+03  0.90159983980E+03  0.00000000000E+00 0. -1.
         -4    1    6    6    0  503  0.78725605406E+02  0.22297924551E+03  0.49180043667E+03  0.54569692539E+03  0.00000000000E+00 0.  1.
<mgrwt>
<rscale>  0 0.64691783E+03</rscale>
<asrwt>0</asrwt>
<pdfrwt beam="1">  1        2 0.40802017E+00 0.64691783E+03</pdfrwt>
<pdfrwt beam="2">  1       -2 0.27675059E-01 0.64691783E+03</pdfrwt>
<totfact> 0.35892871E+01</totfact>
</mgrwt>
</event>
<event>
12    1  0.9321077E-008  0.6139486E+03  0.7818608E-02  0.9876882E-01
          2   -1    0    0  501    0  0.00000000000E+00  0.00000000000E+00  0.17203996155E+04  0.17203996155E+04  0.00000000000E+00 0. -1.
         -2   -1    0    0    0  501 -0.00000000000E+00 -0.00000000000E+00 -0.63267433007E+03  0.63267433007E+03  0.00000000000E+00 0.  1.
         23    2    1    2    0    0 -0.45863578068E+03  0.13884646918E+03 -0.43088386290E+03  0.65112734201E+03  0.93170761938E+02 0.  0.
    5000000    2    1    2    0    0  0.45863578068E+03 -0.13884646918E+03  0.15186091484E+04  0.17019466036E+04  0.60068575365E+03 0.  0.
         23    2    4    4    0    0 -0.12564417905E+03 -0.25584443973E+02  0.22162573886E+03  0.27199719458E+03  0.91779530568E+02 0.  0.
         23    2    4    4    0    0  0.58427995974E+03 -0.11326202521E+03  0.12969834095E+04  0.14299494090E+04  0.91531361206E+02 0.  0.
          1    1    3    3  502    0 -0.32402046350E+03  0.11655397641E+03 -0.35680386381E+03  0.49586599744E+03  0.00000000000E+00 0. -1.
         -1    1    3    3    0  502 -0.13461531718E+03  0.22292492768E+02 -0.74079999094E+02  0.15526134458E+03  0.00000000000E+00 0.  1.
         15    1    5    5    0    0 -0.52378008627E+02  0.29387426880E+02  0.12586516705E+03  0.13947141159E+03  0.17770000000E+01 0. -1.
        -15    1    5    5    0    0 -0.73266170427E+02 -0.54971870854E+02  0.95760571813E+02  0.13252578299E+03  0.17770000000E+01 0.  1.
          4    1    6    6  503    0  0.21115634476E+03 -0.49348159557E+02  0.37345764321E+03  0.43184818404E+03  0.00000000000E+00 0. -1.
         -4    1    6    6    0  503  0.37312361497E+03 -0.63913865650E+02  0.92352576629E+03  0.99810122496E+03  0.00000000000E+00 0.  1.
<mgrwt>
<rscale>  0 0.61394864E+03</rscale>
<asrwt>0</asrwt>
<pdfrwt beam="1">  1        2 0.26467686E+00 0.61394864E+03</pdfrwt>
<pdfrwt beam="2">  1       -2 0.97334513E-01 0.61394864E+03</pdfrwt>
<totfact> 0.88490111E+00</totfact>
</mgrwt>
</event>
<event>
12    1  0.9321077E-008  0.4747720E+03  0.7818608E-02  0.1020582E+00
          1   -1    0    0  501    0  0.00000000000E+00  0.00000000000E+00  0.15535966492E+04  0.15535966492E+04  0.00000000000E+00 0. -1.
         -1   -1    0    0    0  501 -0.00000000000E+00 -0.00000000000E+00 -0.19566577399E+03  0.19566577399E+03  0.00000000000E+00 0.  1.
         23    2    1    2    0    0  0.29495140505E+03  0.20922720288E+03  0.67458864985E+03  0.77069427017E+03  0.90152414295E+02 0.  0.
    5000000    2    1    2    0    0 -0.29495140505E+03 -0.20922720288E+03  0.68334222533E+03  0.97856815299E+03  0.59988888918E+03 0.  0.
         23    2    4    4    0    0 -0.40613673490E+03 -0.17411471280E+03  0.69644987728E+03  0.82977217860E+03  0.90644669881E+02 0.  0.
         23    2    4    4    0    0  0.11118532985E+03 -0.35112490080E+02 -0.13107651941E+02  0.14879597439E+03  0.91506103187E+02 0.  0.
          3    1    3    3  502    0  0.91711040571E+02  0.11634578240E+03  0.24051412740E+03  0.28247885146E+03  0.00000000000E+00 0. -1.
         -3    1    3    3    0  502  0.20324036448E+03  0.92881420477E+02  0.43407452245E+03  0.48821541871E+03  0.00000000000E+00 0.  1.
         15    1    5    5    0    0 -0.40192498734E+02 -0.46855614975E+02  0.71643664683E+02  0.94587832343E+02  0.17770000000E+01 0.  1.
        -15    1    5    5    0    0 -0.36594423617E+03 -0.12725909783E+03  0.62480621259E+03  0.73518434626E+03  0.17770000000E+01 0. -1.
          2    1    6    6  503    0  0.71887580284E+02  0.56592515075E+01 -0.43815917425E+02  0.84378231473E+02  0.00000000000E+00 0. -1.
         -2    1    6    6    0  503  0.39297749570E+02 -0.40771741588E+02  0.30708265484E+02  0.64417742916E+02  0.00000000000E+00 0.  1.
<mgrwt>
<rscale>  0 0.47477201E+03</rscale>
<asrwt>0</asrwt>
<pdfrwt beam="1">  1        1 0.23901486E+00 0.47477201E+03</pdfrwt>
<pdfrwt beam="2">  1       -1 0.30102428E-01 0.47477201E+03</pdfrwt>
<totfact> 0.64829086E+01</totfact>
</mgrwt>
</event>
<event>
12    1  0.9321077E-008  0.8938594E+03  0.7818608E-02  0.9433290E-01
          2   -1    0    0  501    0  0.00000000000E+00  0.00000000000E+00  0.53313465900E+03  0.53313465900E+03  0.00000000000E+00 0. -1.
         -2   -1    0    0    0  501 -0.00000000000E+00 -0.00000000000E+00 -0.15235147694E+04  0.15235147694E+04  0.00000000000E+00 0.  1.
         23    2    1    2    0    0 -0.42111956687E+03  0.67709816757E+03 -0.49084829300E+03  0.94078980236E+03  0.91377170837E+02 0.  0.
    5000000    2    1    2    0    0  0.42111956687E+03 -0.67709816757E+03 -0.49953181739E+03  0.11158596260E+04  0.59983918701E+03 0.  0.
         23    2    4    4    0    0  0.17139224675E+01 -0.53589201421E+03 -0.23629093165E+03  0.59269840387E+03  0.90965955987E+02 0.  0.
         23    2    4    4    0    0  0.41940564440E+03 -0.14120615336E+03 -0.26324088574E+03  0.52316122215E+03  0.92529066440E+02 0.  0.
          3    1    3    3  502    0 -0.24425606549E+03  0.34028265338E+03 -0.29964594053E+03  0.51501553316E+03  0.00000000000E+00 0. -1.
         -3    1    3    3    0  502 -0.17686350138E+03  0.33681551419E+03 -0.19120235247E+03  0.42577426920E+03  0.00000000000E+00 0.  1.
         15    1    5    5    0    0 -0.10824193262E+02 -0.21910430018E+03 -0.50097194694E+02  0.22502609662E+03  0.17770000000E+01 0.  1.
        -15    1    5    5    0    0  0.12538115730E+02 -0.31678771403E+03 -0.18619373695E+03  0.36767230725E+03  0.17770000000E+01 0. -1.
          2    1    6    6  503    0  0.17058287364E+03 -0.10564895472E+03 -0.11117535923E+03  0.22939088673E+03  0.00000000000E+00 0. -1.
         -2    1    6    6    0  503  0.24882277076E+03 -0.35557198643E+02 -0.15206552651E+03  0.29377033543E+03  0.00000000000E+00 0.  1.
<mgrwt>
<rscale>  0 0.89385941E+03</rscale>
<asrwt>0</asrwt>
<pdfrwt beam="1">  1        2 0.82020719E-01 0.89385941E+03</pdfrwt>
<pdfrwt beam="2">  1       -2 0.23438688E+00 0.89385941E+03</pdfrwt>
<totfact> 0.46248439E+00</totfact>
</mgrwt>
</event>
<event>
12    1  0.9321077E-008  0.6024970E+03  0.7818608E-02  0.9900239E-01
         -1   -1    0    0    0  501 -0.00000000000E+00  0.00000000000E+00  0.11858044298E+04  0.11858044298E+04  0.00000000000E+00 0.  1.
          1   -1    0    0  501    0  0.00000000000E+00 -0.00000000000E+00 -0.88573023813E+03  0.88573023813E+03  0.00000000000E+00 0. -1.
         23    2    1    2    0    0 -0.47299028848E+03 -0.33373361553E+03  0.87903614671E+03  0.10564833382E+04  0.91403268409E+02 0.  0.
    5000000    2    1    2    0    0  0.47299028848E+03  0.33373361553E+03 -0.57896195507E+03  0.10150513297E+04  0.60002859719E+03 0.  0.
         23    2    4    4    0    0  0.72924880462E+02  0.50913426953E+02  0.10773677998E+03  0.16671170730E+03  0.90969029657E+02 0.  0.
         23    2    4    4    0    0  0.40006540802E+03  0.28282018858E+03 -0.68669873504E+03  0.84833962243E+03  0.89918699499E+02 0.  0.
          2    1    3    3  502    0 -0.28712765332E+03 -0.24058057761E+03  0.61945888332E+03  0.72391340072E+03  0.00000000000E+00 0. -1.
         -2    1    3    3    0  502 -0.18586263517E+03 -0.93153037919E+02  0.25957726339E+03  0.33256993745E+03  0.00000000000E+00 0.  1.
         15    1    5    5    0    0  0.21495875955E+02 -0.24928898628E+02  0.44418414183E+02  0.55314337358E+02  0.17770000000E+01 0. -1.
        -15    1    5    5    0    0  0.51429004508E+02  0.75842325581E+02  0.63318365795E+02  0.11139736994E+03  0.17770000000E+01 0.  1.
          2    1    6    6  503    0  0.62703103534E+02  0.89273040094E+01 -0.78830351615E+02  0.10112171026E+03  0.00000000000E+00 0. -1.
         -2    1    6    6    0  503  0.33736230449E+03  0.27389288457E+03 -0.60786838343E+03  0.74721791218E+03  0.00000000000E+00 0.  1.
<mgrwt>
<rscale>  0 0.60249698E+03</rscale>
<asrwt>0</asrwt>
<pdfrwt beam="1">  1        1 0.13626619E+00 0.60249698E+03</pdfrwt>
<pdfrwt beam="2">  1       -1 0.18243145E+00 0.60249698E+03</pdfrwt>
<totfact> 0.39834393E+00</totfact>
</mgrwt>
</event>
<event>
12    1  0.9321077E-008  0.1189250E+04  0.7818608E-02  0.9122318E-01
          4   -1    0    0  501    0  0.00000000000E+00  0.00000000000E+00  0.71232235295E+03  0.71232235295E+03  0.00000000000E+00 0. -1.
         -4   -1    0    0    0  501 -0.00000000000E+00 -0.00000000000E+00 -0.20677378195E+04  0.20677378195E+04  0.00000000000E+00 0.  1.
         23    2    1    2    0    0 -0.84163952073E+02 -0.11168553517E+04 -0.40956205194E+03  0.11960651215E+04  0.91549182805E+02 0.  0.
    5000000    2    1    2    0    0  0.84163952073E+02  0.11168553517E+04 -0.94585341462E+03  0.15839950510E+04  0.59996015878E+03 0.  0.
         23    2    4    4    0    0  0.25687765313E+03  0.10125357376E+04 -0.78700560647E+03  0.13110935573E+04  0.91508157072E+02 0.  0.
         23    2    4    4    0    0 -0.17271370106E+03  0.10431961417E+03 -0.15884780815E+03  0.27290149372E+03  0.92357970349E+02 0.  0.
          3    1    3    3  502    0 -0.52816927336E+02 -0.89209635558E+03 -0.36203738489E+03  0.96420775952E+03  0.00000000000E+00 0. -1.
         -3    1    3    3    0  502 -0.31347024737E+02 -0.22475899615E+03 -0.47524667045E+02  0.23185736194E+03  0.00000000000E+00 0.  1.
         15    1    5    5    0    0  0.24503706985E+03  0.10028273733E+04 -0.76829609584E+03  0.12868519553E+04  0.17770000000E+01 0.  1.
        -15    1    5    5    0    0  0.11840583277E+02  0.97083642222E+01 -0.18709510628E+02  0.24241601951E+02  0.17770000000E+01 0. -1.
          4    1    6    6  503    0 -0.13188326165E+03  0.10614156144E+03 -0.15867806622E+03  0.23203007233E+03  0.00000000000E+00 0.  1.
         -4    1    6    6    0  503 -0.40830439411E+02 -0.18219472688E+01 -0.16974193820E+00  0.40871421393E+02  0.00000000000E+00 0. -1.
<mgrwt>
<rscale>  0 0.11892504E+04</rscale>
<asrwt>0</asrwt>
<pdfrwt beam="1">  1        4 0.10958805E+00 0.11892504E+04</pdfrwt>
<pdfrwt beam="2">  1       -4 0.31811351E+00 0.11892504E+04</pdfrwt>
<totfact> 0.30199485E-02</totfact>
</mgrwt>
</event>
<event>
12    1  0.9321077E-008  0.8038155E+03  0.7818608E-02  0.9554511E-01
          1   -1    0    0  501    0  0.00000000000E+00  0.00000000000E+00  0.96874096496E+03  0.96874096496E+03  0.00000000000E+00 0. -1.
         -1   -1    0    0    0  501 -0.00000000000E+00 -0.00000000000E+00 -0.77491905749E+03  0.77491905749E+03  0.00000000000E+00 0.  1.
         23    2    1    2    0    0 -0.70243541210E+03 -0.28649223254E+03  0.43611032542E+02  0.76469083933E+03  0.85772082441E+02 0.  0.
    5000000    2    1    2    0    0  0.70243541210E+03  0.28649223254E+03  0.15021087494E+03  0.97896918312E+03  0.60026997849E+03 0.  0.
         23    2    4    4    0    0  0.12699279628E+03  0.20834070669E+03 -0.16820377257E+03  0.31064485064E+03  0.93138035997E+02 0.  0.
         23    2    4    4    0    0  0.57544261582E+03  0.78151525853E+02  0.31841464751E+03  0.66832433248E+03  0.89597212820E+02 0.  0.
          3    1    3    3  502    0 -0.55057116974E+03 -0.20205089870E+03  0.63007226744E+02  0.58985005657E+03  0.00000000000E+00 0. -1.
         -3    1    3    3    0  502 -0.15186424236E+03 -0.84441333841E+02 -0.19396194202E+02  0.17484078276E+03  0.00000000000E+00 0.  1.
         15    1    5    5    0    0  0.92732888204E+02  0.64504544966E+02 -0.65257981476E+02  0.13046833620E+03  0.17770000000E+01 0. -1.
        -15    1    5    5    0    0  0.34259908073E+02  0.14383616172E+03 -0.10294579110E+03  0.18017651443E+03  0.17770000000E+01 0.  1.
          1    1    6    6  503    0  0.11591080476E+03 -0.17337361313E+02  0.47994069231E+02  0.12664647425E+03  0.00000000000E+00 0. -1.
         -1    1    6    6    0  503  0.45953181106E+03  0.95488887166E+02  0.27042057828E+03  0.54167785824E+03  0.00000000000E+00 0.  1.
<mgrwt>
<rscale>  0 0.80381547E+03</rscale>
<asrwt>0</asrwt>
<pdfrwt beam="1">  1        1 0.14903707E+00 0.80381547E+03</pdfrwt>
<pdfrwt beam="2">  1       -1 0.11921832E+00 0.80381547E+03</pdfrwt>
<totfact> 0.10324638E+01</totfact>
</mgrwt>
</event>
<event>
12    1  0.9321077E-008  0.1290572E+04  0.7818608E-02  0.9037075E-01
          2   -1    0    0  501    0  0.00000000000E+00  0.00000000000E+00  0.27857697180E+04  0.27857697180E+04  0.00000000000E+00 0.  1.
         -2   -1    0    0    0  501 -0.00000000000E+00 -0.00000000000E+00 -0.65497260917E+03  0.65497260917E+03  0.00000000000E+00 0. -1.
         23    2    1    2    0    0  0.92260830283E+03 -0.88971350687E+03  0.10692537646E+04  0.16716787545E+04  0.91706272133E+02 0.  0.
    5000000    2    1    2    0    0 -0.92260830283E+03  0.88971350687E+03  0.10615433442E+04  0.17690635727E+04  0.59992953567E+03 0.  0.
         23    2    4    4    0    0 -0.28171910765E+03  0.40594830118E+03  0.74993762662E+03  0.90292056296E+03  0.93270683204E+02 0.  0.
         23    2    4    4    0    0 -0.64088919518E+03  0.48376520568E+03  0.31160571758E+03  0.86614300970E+03  0.91311857419E+02 0.  0.
          3    1    3    3  502    0  0.10209952678E+03 -0.13278367943E+03  0.11616730912E+03  0.20383979641E+03  0.00000000000E+00 0. -1.
         -3    1    3    3    0  502  0.82050877605E+03 -0.75692982743E+03  0.95308645552E+03  0.14678389581E+04  0.00000000000E+00 0.  1.
         15    1    5    5    0    0 -0.10007740012E+03  0.15582659353E+03  0.20391551791E+03  0.27546707505E+03  0.17770000000E+01 0.  1.
        -15    1    5    5    0    0 -0.18164170753E+03  0.25012170765E+03  0.54602210871E+03  0.62745348790E+03  0.17770000000E+01 0. -1.
          3    1    6    6  503    0 -0.10883622511E+03  0.79530589590E+02  0.90316063576E+02  0.16225729542E+03  0.00000000000E+00 0. -1.
         -3    1    6    6    0  503 -0.53205297007E+03  0.40423461609E+03  0.22128965400E+03  0.70388571428E+03  0.00000000000E+00 0.  1.
<mgrwt>
<rscale>  0 0.12905720E+04</rscale>
<asrwt>0</asrwt>
<pdfrwt beam="1">  1        2 0.42857995E+00 0.12905720E+04</pdfrwt>
<pdfrwt beam="2">  1       -2 0.10076502E+00 0.12905720E+04</pdfrwt>
<totfact> 0.18680759E+00</totfact>
</mgrwt>
</event>
<event>
12    1  0.9321077E-008  0.5663685E+03  0.7818608E-02  0.9977747E-01
         -1   -1    0    0    0  501 -0.00000000000E+00  0.00000000000E+00  0.20509421170E+04  0.20509421170E+04  0.00000000000E+00 0.  1.
          1   -1    0    0  501    0  0.00000000000E+00 -0.00000000000E+00 -0.15999632297E+03  0.15999632297E+03  0.00000000000E+00 0. -1.
         23    2    1    2    0    0  0.33890545780E+02 -0.40535812998E+03  0.78851433452E+03  0.89151925958E+03  0.87108850352E+02 0.  0.
    5000000    2    1    2    0    0 -0.33890545780E+02  0.40535812998E+03  0.11024314595E+04  0.13194191804E+04  0.60004005537E+03 0.  0.
         23    2    4    4    0    0  0.89045565293E+02  0.51993418445E+03  0.80985440751E+03  0.97044516823E+03  0.87401340521E+02 0.  0.
         23    2    4    4    0    0 -0.12293611107E+03 -0.11457605446E+03  0.29257705198E+03  0.34897401215E+03  0.89109876836E+02 0.  0.
          3    1    3    3  502    0 -0.50952795718E+01 -0.33879084633E+03  0.64584758267E+03  0.72933140579E+03  0.00000000000E+00 0.  1.
         -3    1    3    3    0  502  0.38985825351E+02 -0.66567283649E+02  0.14266675185E+03  0.16218785378E+03  0.00000000000E+00 0. -1.
         15    1    5    5    0    0  0.61382006547E+01  0.17466944271E+03  0.33085338976E+03  0.37418473375E+03  0.17770000000E+01 0. -1.
        -15    1    5    5    0    0  0.82907364638E+02  0.34526474174E+03  0.47900101775E+03  0.59626043449E+03  0.17770000000E+01 0.  1.
          2    1    6    6  503    0  0.66552521094E+01 -0.33224539106E+02  0.30966851473E+02  0.45903249009E+02  0.00000000000E+00 0. -1.
         -2    1    6    6    0  503 -0.12959136318E+03 -0.81351515359E+02  0.26161020051E+03  0.30307076315E+03  0.00000000000E+00 0.  1.
<mgrwt>
<rscale>  0 0.56636848E+03</rscale>
<asrwt>0</asrwt>
<pdfrwt beam="1">  1        1 0.24614820E-01 0.56636848E+03</pdfrwt>
<pdfrwt beam="2">  1       -1 0.31552954E+00 0.56636848E+03</pdfrwt>
<totfact> 0.56199419E+00</totfact>
</mgrwt>
</event>
<event>
12    1  0.9321077E-008  0.6428595E+03  0.7818608E-02  0.9820271E-01
          2   -1    0    0  501    0  0.00000000000E+00  0.00000000000E+00  0.20080406670E+04  0.20080406670E+04  0.00000000000E+00 0.  1.
         -2   -1    0    0    0  501 -0.00000000000E+00 -0.00000000000E+00 -0.65136622243E+03  0.65136622243E+03  0.00000000000E+00 0. -1.
         23    2    1    2    0    0 -0.34595858090E+02  0.58697928004E+03  0.16622468851E+04  0.17654983715E+04  0.90433644510E+02 0.  0.
    5000000    2    1    2    0    0  0.34595858090E+02 -0.58697928004E+03 -0.30557244050E+03  0.89390851799E+03  0.59996364352E+03 0.  0.
         23    2    4    4    0    0 -0.33145429418E+02 -0.61584102284E+03 -0.67658733452E+02  0.62712710978E+03  0.91388854334E+02 0.  0.
         23    2    4    4    0    0  0.67741287508E+02  0.28861742801E+02 -0.23791370705E+03  0.26678140821E+03  0.95642592676E+02 0.  0.
          3    1    3    3  502    0 -0.13431854216E+02  0.35590363136E+03  0.87324522601E+03  0.94308272929E+03  0.00000000000E+00 0. -1.
         -3    1    3    3    0  502 -0.21164003874E+02  0.23107564868E+03  0.78900165911E+03  0.82241564220E+03  0.00000000000E+00 0.  1.
         15    1    5    5    0    0 -0.56407348144E+02 -0.31668179261E+03 -0.11682557306E+02  0.32188318777E+03  0.17770000000E+01 0. -1.
        -15    1    5    5    0    0  0.23261918726E+02 -0.29915923023E+03 -0.55976176146E+02  0.30524392200E+03  0.17770000000E+01 0.  1.
          3    1    6    6  503    0  0.59384353050E+02  0.31228701829E+02 -0.24595655075E+03  0.25494383315E+03  0.00000000000E+00 0. -1.
         -3    1    6    6    0  503  0.83569344584E+01 -0.23669590274E+01  0.80428436979E+01  0.11837575061E+02  0.00000000000E+00 0.  1.
<mgrwt>
<rscale>  0 0.64285954E+03</rscale>
<asrwt>0</asrwt>
<pdfrwt beam="1">  1        2 0.30892933E+00 0.64285954E+03</pdfrwt>
<pdfrwt beam="2">  1       -2 0.10021019E+00 0.64285954E+03</pdfrwt>
<totfact> 0.57393419E+00</totfact>
</mgrwt>
</event>
<event>
12    1  0.9321077E-008  0.6239860E+03  0.7818608E-02  0.9856855E-01
          2   -1    0    0  501    0  0.00000000000E+00  0.00000000000E+00  0.77763379931E+03  0.77763379931E+03  0.00000000000E+00 0. -1.
         -2   -1    0    0    0  501 -0.00000000000E+00 -0.00000000000E+00 -0.54299016780E+03  0.54299016780E+03  0.00000000000E+00 0.  1.
         23    2    1    2    0    0 -0.45459728328E+03 -0.17817164678E+03 -0.44287120050E+02  0.49848511614E+03  0.90123450485E+02 0.  0.
    5000000    2    1    2    0    0  0.45459728328E+03  0.17817164678E+03  0.27893075156E+03  0.82213885098E+03  0.59975503369E+03 0.  0.
         23    2    4    4    0    0  0.34219468368E+03  0.37703296945E+03  0.12559381117E+03  0.53231427304E+03  0.91288653657E+02 0.  0.
         23    2    4    4    0    0  0.11240259961E+03 -0.19886132267E+03  0.15333694039E+03  0.28982457794E+03  0.91136703030E+02 0.  0.
          3    1    3    3  502    0 -0.28431100233E+03 -0.71194251637E+02 -0.49894920729E+02  0.29730602185E+03  0.00000000000E+00 0. -1.
         -3    1    3    3    0  502 -0.17028628095E+03 -0.10697739514E+03  0.56078006796E+01  0.20117909429E+03  0.00000000000E+00 0.  1.
         15    1    5    5    0    0  0.17424225222E+03  0.25830649360E+03  0.77496834394E+02  0.32107868843E+03  0.17770000000E+01 0. -1.
        -15    1    5    5    0    0  0.16795243146E+03  0.11872647585E+03  0.48096976778E+02  0.21123558461E+03  0.17770000000E+01 0.  1.
          4    1    6    6  503    0  0.25267730256E+02 -0.10680695965E+03  0.31924003636E+02  0.11430366062E+03  0.00000000000E+00 0. -1.
         -4    1    6    6    0  503  0.87134869349E+02 -0.92054363016E+02  0.12141293675E+03  0.17552091732E+03  0.00000000000E+00 0.  1.
<mgrwt>
<rscale>  0 0.62398598E+03</rscale>
<asrwt>0</asrwt>
<pdfrwt beam="1">  1        2 0.11963597E+00 0.62398598E+03</pdfrwt>
<pdfrwt beam="2">  1       -2 0.83536948E-01 0.62398598E+03</pdfrwt>
<totfact> 0.45943647E+01</totfact>
</mgrwt>
</event>
<event>
12    1  0.9321077E-008  0.1164907E+04  0.7818608E-02  0.9144140E-01
          2   -1    0    0  501    0  0.00000000000E+00  0.00000000000E+00  0.98325431772E+03  0.98325431772E+03  0.00000000000E+00 0. -1.
         -2   -1    0    0    0  501 -0.00000000000E+00 -0.00000000000E+00 -0.21400661571E+04  0.21400661571E+04  0.00000000000E+00 0.  1.
         23    2    1    2    0    0  0.83185786580E+03 -0.70734232282E+03  0.36652687578E+03  0.11553720654E+04  0.90675179778E+02 0.  0.
    5000000    2    1    2    0    0 -0.83185786580E+03  0.70734232282E+03 -0.15233387151E+04  0.19679484094E+04  0.59994952338E+03 0.  0.
         23    2    4    4    0    0 -0.74085834280E+03  0.28063109467E+03 -0.10358061722E+04  0.13074314355E+04  0.94115018355E+02 0.  0.
         23    2    4    4    0    0 -0.90999523001E+02  0.42671122814E+03 -0.48753254289E+03  0.66051697393E+03  0.90726551039E+02 0.  0.
          1    1    3    3  502    0  0.74057735934E+03 -0.61750936980E+03  0.35196801972E+03  0.10264765627E+04  0.00000000000E+00 0. -1.
         -1    1    3    3    0  502  0.91280506454E+02 -0.89832953013E+02  0.14558856056E+02  0.12889550262E+03  0.00000000000E+00 0.  1.
         15    1    5    5    0    0 -0.30055584566E+03  0.11019512799E+03 -0.34446199892E+03  0.47024887987E+03  0.17770000000E+01 0. -1.
        -15    1    5    5    0    0 -0.44030249713E+03  0.17043596668E+03 -0.69134417330E+03  0.83718255561E+03  0.17770000000E+01 0.  1.
          3    1    6    6  503    0  0.77031037733E+01  0.17035259010E+03 -0.20059756936E+03  0.26328449934E+03  0.00000000000E+00 0.  1.
         -3    1    6    6    0  503 -0.98702626775E+02  0.25635863805E+03 -0.28693497353E+03  0.39723247459E+03  0.00000000000E+00 0. -1.
<mgrwt>
<rscale>  0 0.11649073E+04</rscale>
<asrwt>0</asrwt>
<pdfrwt beam="1">  1        2 0.15126990E+00 0.11649073E+04</pdfrwt>
<pdfrwt beam="2">  1       -2 0.32924094E+00 0.11649073E+04</pdfrwt>
<totfact> 0.53405033E-01</totfact>
</mgrwt>
</event>
<event>
12    1  0.9321077E-008  0.5906140E+03  0.7818608E-02  0.9925073E-01
          2   -1    0    0  501    0  0.00000000000E+00  0.00000000000E+00  0.14406774416E+04  0.14406774416E+04  0.00000000000E+00 0. -1.
         -2   -1    0    0    0  501 -0.00000000000E+00 -0.00000000000E+00 -0.26417965395E+03  0.26417965395E+03  0.00000000000E+00 0.  1.
         23    2    1    2    0    0  0.43664592893E+03  0.15870838991E+03  0.41346417807E+03  0.62862838191E+03  0.91504074853E+02 0.  0.
    5000000    2    1    2    0    0 -0.43664592893E+03 -0.15870838991E+03  0.76303360954E+03  0.10762287136E+04  0.60016658889E+03 0.  0.
         23    2    4    4    0    0 -0.55738342163E+03 -0.83370343458E+02  0.47718006941E+03  0.74427219415E+03  0.92808337291E+02 0.  0.
         23    2    4    4    0    0  0.12073749270E+03 -0.75338046452E+02  0.28585354013E+03  0.33195651945E+03  0.90716707483E+02 0.  0.
          1    1    3    3  502    0  0.14220635165E+03  0.62591051028E+02  0.19631748523E+03  0.25036142100E+03  0.00000000000E+00 0. -1.
         -1    1    3    3    0  502  0.29443957728E+03  0.96117338882E+02  0.21714669284E+03  0.37826696091E+03  0.00000000000E+00 0.  1.
         15    1    5    5    0    0 -0.29735135677E+03 -0.65639041327E+02  0.31043963887E+03  0.43485887392E+03  0.17770000000E+01 0. -1.
        -15    1    5    5    0    0 -0.26003206486E+03 -0.17731302131E+02  0.16674043055E+03  0.30941332023E+03  0.17770000000E+01 0.  1.
          1    1    6    6  503    0  0.97567142499E+02 -0.33527473281E+02  0.25495714735E+03  0.27503924401E+03  0.00000000000E+00 0. -1.
         -1    1    6    6    0  503  0.23170350198E+02 -0.41810573171E+02  0.30896392780E+02  0.56917275445E+02  0.00000000000E+00 0.  1.
<mgrwt>
<rscale>  0 0.59061401E+03</rscale>
<asrwt>0</asrwt>
<pdfrwt beam="1">  1        2 0.22164268E+00 0.59061401E+03</pdfrwt>
<pdfrwt beam="2">  1       -2 0.40643024E-01 0.59061401E+03</pdfrwt>
<totfact> 0.81445179E+01</totfact>
</mgrwt>
</event>
<event>
12    1  0.9321077E-008  0.1018966E+04  0.7818608E-02  0.9287985E-01
         -1   -1    0    0    0  501 -0.00000000000E+00  0.00000000000E+00  0.69189086697E+03  0.69189086697E+03  0.00000000000E+00 0.  1.
          1   -1    0    0  501    0  0.00000000000E+00 -0.00000000000E+00 -0.16637535710E+04  0.16637535710E+04  0.00000000000E+00 0. -1.
         23    2    1    2    0    0  0.98628198585E+03  0.78794879901E+01 -0.42746036483E+03  0.10790849002E+04  0.94274155840E+02 0.  0.
    5000000    2    1    2    0    0 -0.98628198585E+03 -0.78794879901E+01 -0.54440233917E+03  0.12765595377E+04  0.60034665360E+03 0.  0.
         23    2    4    4    0    0 -0.69202268686E+03 -0.16739356053E+03 -0.11892884896E+03  0.72762080317E+03  0.91498409058E+02 0.  0.
         23    2    4    4    0    0 -0.29425929899E+03  0.15951407254E+03 -0.42547349021E+03  0.54893873454E+03  0.90954763619E+02 0.  0.
          4    1    3    3  502    0  0.69959130120E+03  0.76693273076E-01 -0.25609728979E+03  0.74499249421E+03  0.00000000000E+00 0. -1.
         -4    1    3    3    0  502  0.28669068465E+03  0.78027947170E+01 -0.17136307504E+03  0.33409240602E+03  0.00000000000E+00 0.  1.
         15    1    5    5    0    0 -0.49637814789E+03 -0.12712120286E+03 -0.44039328264E+02  0.51428949638E+03  0.17770000000E+01 0. -1.
        -15    1    5    5    0    0 -0.19564453896E+03 -0.40272357670E+02 -0.74889520695E+02  0.21333130679E+03  0.17770000000E+01 0.  1.
          3    1    6    6  503    0 -0.16237766406E+03  0.56098198880E+02 -0.15863231075E+03  0.23383268317E+03  0.00000000000E+00 0. -1.
         -3    1    6    6    0  503 -0.13188163494E+03  0.10341587366E+03 -0.26684117946E+03  0.31510605137E+03  0.00000000000E+00 0.  1.
<mgrwt>
<rscale>  0 0.10189658E+04</rscale>
<asrwt>0</asrwt>
<pdfrwt beam="1">  1        1 0.25596209E+00 0.10189658E+04</pdfrwt>
<pdfrwt beam="2">  1       -1 0.10644475E+00 0.10189658E+04</pdfrwt>
<totfact> 0.41802892E+00</totfact>
</mgrwt>
</event>
<event>
12    1  0.9321077E-008  0.5948506E+03  0.7818608E-02  0.9916147E-01
          1   -1    0    0  501    0  0.00000000000E+00  0.00000000000E+00  0.38339500741E+03  0.38339500741E+03  0.00000000000E+00 0. -1.
         -1   -1    0    0    0  501 -0.00000000000E+00 -0.00000000000E+00 -0.12503491638E+04  0.12503491638E+04  0.00000000000E+00 0.  1.
         23    2    1    2    0    0  0.50970859149E+03 -0.15205366927E+03 -0.15593159317E+03  0.56209503105E+03  0.93343428286E+02 0.  0.
    5000000    2    1    2    0    0 -0.50970859149E+03  0.15205366927E+03 -0.71102256316E+03  0.10716491401E+04  0.59996302186E+03 0.  0.
         23    2    4    4    0    0 -0.53911864841E+03  0.20123918200E+03 -0.31595443734E+03  0.66270743005E+03  0.90596942163E+02 0.  0.
         23    2    4    4    0    0  0.29410056920E+02 -0.49185512728E+02 -0.39506812582E+03  0.40894171006E+03  0.88714892094E+02 0.  0.
          4    1    3    3  502    0  0.12612329463E+03  0.97678748126E+00 -0.50531873586E+02  0.13587313866E+03  0.00000000000E+00 0. -1.
         -4    1    3    3    0  502  0.38358529686E+03 -0.15303045675E+03 -0.10539971959E+03  0.42622189239E+03  0.00000000000E+00 0.  1.
         15    1    5    5    0    0 -0.23847677799E+03  0.81738389924E+02 -0.88326894564E+02  0.26712756515E+03  0.17770000000E+01 0. -1.
        -15    1    5    5    0    0 -0.30064187042E+03  0.11950079207E+03 -0.22762754278E+03  0.39557986490E+03  0.17770000000E+01 0.  1.
          2    1    6    6  503    0  0.42644109530E+02 -0.42210274966E+02 -0.12704540710E+03  0.14050182510E+03  0.00000000000E+00 0. -1.
         -2    1    6    6    0  503 -0.13234052610E+02 -0.69752377621E+01 -0.26802271872E+03  0.26843988496E+03  0.00000000000E+00 0.  1.
<mgrwt>
<rscale>  0 0.59485061E+03</rscale>
<asrwt>0</asrwt>
<pdfrwt beam="1">  1        1 0.58983848E-01 0.59485061E+03</pdfrwt>
<pdfrwt beam="2">  1       -1 0.19236141E+00 0.59485061E+03</pdfrwt>
<totfact> 0.11358465E+01</totfact>
</mgrwt>
</event>
<event>
12    1  0.1093693E-007  0.7820309E+03  0.7818608E-02  0.9586397E-01
          2   -1    0    0  501    0  0.00000000000E+00  0.00000000000E+00  0.17525900754E+04  0.17525900754E+04  0.00000000000E+00 0.  1.
         -2   -1    0    0    0  501 -0.00000000000E+00 -0.00000000000E+00 -0.43764415014E+03  0.43764415014E+03  0.00000000000E+00 0. -1.
         23    2    1    2    0    0  0.49711235319E+03  0.58759281567E+03  0.61431034654E+03  0.98887637289E+03  0.90073693617E+02 0.  0.
    5000000    2    1    2    0    0 -0.49711235319E+03 -0.58759281567E+03  0.70063557874E+03  0.12013578527E+04  0.59998705591E+03 0.  0.
         23    2    4    4    0    0 -0.41880407147E+03 -0.50201449415E+03  0.78908720981E+03  0.10287409397E+04  0.90740804906E+02 0.  0.
         23    2    4    4    0    0 -0.78308281719E+02 -0.85578321521E+02 -0.88451631072E+02  0.17261691299E+03  0.92287981392E+02 0.  0.
          3    1    3    3  502    0  0.22019134390E+03  0.28902959889E+03  0.34211879492E+03  0.49906673582E+03  0.00000000000E+00 0. -1.
         -3    1    3    3    0  502  0.27692100929E+03  0.29856321678E+03  0.27219155163E+03  0.48980963707E+03  0.00000000000E+00 0.  1.
         15    1    5    5    0    0 -0.14243928385E+03 -0.19087835577E+03  0.35406767197E+03  0.42672071704E+03  0.17770000000E+01 0. -1.
        -15    1    5    5    0    0 -0.27636478761E+03 -0.31113613838E+03  0.43501953784E+03  0.60202022264E+03  0.17770000000E+01 0.  1.
          1    1    6    6  503    0 -0.43806974352E+02 -0.93952367017E+02 -0.36925267135E+02  0.11004350786E+03  0.00000000000E+00 0. -1.
         -1    1    6    6    0  503 -0.34501307367E+02  0.83740454959E+01 -0.51526363938E+02  0.62573405123E+02  0.00000000000E+00 0.  1.
<mgrwt>
<rscale>  0 0.78203094E+03</rscale>
<asrwt>0</asrwt>
<pdfrwt beam="1">  1        2 0.26962924E+00 0.78203094E+03</pdfrwt>
<pdfrwt beam="2">  1       -2 0.67329870E-01 0.78203094E+03</pdfrwt>
<totfact> 0.19006700E+01</totfact>
</mgrwt>
</event>
<event>
12    1  0.9321077E-008  0.1136015E+04  0.7818608E-02  0.9170783E-01
         -2   -1    0    0    0  501 -0.00000000000E+00  0.00000000000E+00  0.12627291059E+04  0.12627291059E+04  0.00000000000E+00 0.  1.
          2   -1    0    0  501    0  0.00000000000E+00 -0.00000000000E+00 -0.11132667161E+04  0.11132667161E+04  0.00000000000E+00 0. -1.
         23    2    1    2    0    0  0.47623799330E+03 -0.99693275195E+03 -0.10674408769E+02  0.11086315466E+04  0.90952871845E+02 0.  0.
    5000000    2    1    2    0    0 -0.47623799330E+03  0.99693275195E+03  0.16013679865E+03  0.12673642754E+04  0.59990905488E+03 0.  0.
         23    2    4    4    0    0 -0.45644070408E+03  0.56883796359E+03  0.31921709364E+03  0.80085383836E+03  0.86905537084E+02 0.  0.
         23    2    4    4    0    0 -0.19797289214E+02  0.42809478836E+03 -0.15908029499E+03  0.46651043705E+03  0.93104066178E+02 0.  0.
          2    1    3    3  502    0  0.12192360740E+03 -0.35175432823E+03 -0.14209822939E+02  0.37255656287E+03  0.00000000000E+00 0. -1.
         -2    1    3    3    0  502  0.35431438590E+03 -0.64517842372E+03  0.35354141707E+01  0.73607498371E+03  0.00000000000E+00 0.  1.
         15    1    5    5    0    0 -0.92553514281E+02  0.15582713747E+03  0.49566542229E+02  0.18790489513E+03  0.17770000000E+01 0.  1.
        -15    1    5    5    0    0 -0.36388718980E+03  0.41301082612E+03  0.26965055141E+03  0.61294894323E+03  0.17770000000E+01 0. -1.
          3    1    6    6  503    0  0.14626142987E+02  0.25919605789E+03 -0.55705517996E+02  0.26551765519E+03  0.00000000000E+00 0. -1.
         -3    1    6    6    0  503 -0.34423432201E+02  0.16889873048E+03 -0.10337477700E+03  0.20099278186E+03  0.00000000000E+00 0.  1.
<mgrwt>
<rscale>  0 0.11360154E+04</rscale>
<asrwt>0</asrwt>
<pdfrwt beam="1">  1        2 0.17127180E+00 0.11360154E+04</pdfrwt>
<pdfrwt beam="2">  1       -2 0.19426602E+00 0.11360154E+04</pdfrwt>
<totfact> 0.30338663E+00</totfact>
</mgrwt>
</event>
<event>
12    1  0.9321077E-008  0.6532412E+03  0.7818608E-02  0.9800716E-01
          2   -1    0    0  501    0  0.00000000000E+00  0.00000000000E+00  0.21620305435E+04  0.21620305435E+04  0.00000000000E+00 0. -1.
         -2   -1    0    0    0  501 -0.00000000000E+00 -0.00000000000E+00 -0.27639011148E+03  0.27639011148E+03  0.00000000000E+00 0.  1.
         23    2    1    2    0    0  0.46428117503E+03 -0.24498219377E+03  0.14163502432E+04  0.15133479826E+04  0.92740606698E+02 0.  0.
    5000000    2    1    2    0    0 -0.46428117503E+03  0.24498219377E+03  0.46929018880E+03  0.92507267239E+03  0.59996073468E+03 0.  0.
         23    2    4    4    0    0 -0.45927983276E+02  0.33043661383E+03  0.29606505031E+03  0.45571529078E+03  0.93403302018E+02 0.  0.
         23    2    4    4    0    0 -0.41835319176E+03 -0.85454420062E+02  0.17322513849E+03  0.46935738161E+03  0.89261145574E+02 0.  0.
          2    1    3    3  502    0  0.22101866111E+03 -0.94517363853E+02  0.76711331087E+03  0.80389403054E+03  0.00000000000E+00 0. -1.
         -2    1    3    3    0  502  0.24326251392E+03 -0.15046482992E+03  0.64923693235E+03  0.70945395203E+03  0.00000000000E+00 0.  1.
         15    1    5    5    0    0  0.24564147050E+02  0.95578201375E+02  0.60996714255E+02  0.11602735357E+03  0.17770000000E+01 0.  1.
        -15    1    5    5    0    0 -0.70492130326E+02  0.23485841246E+03  0.23506833605E+03  0.33968793721E+03  0.17770000000E+01 0. -1.
          2    1    6    6  503    0 -0.27558226169E+03 -0.98798730845E+02  0.12025197926E+03  0.31649219689E+03  0.00000000000E+00 0. -1.
         -2    1    6    6    0  503 -0.14277093007E+03  0.13344310783E+02  0.52973159227E+02  0.15286518473E+03  0.00000000000E+00 0.  1.
<mgrwt>
<rscale>  0 0.65324123E+03</rscale>
<asrwt>0</asrwt>
<pdfrwt beam="1">  1        2 0.33262007E+00 0.65324123E+03</pdfrwt>
<pdfrwt beam="2">  1       -2 0.42521557E-01 0.65324123E+03</pdfrwt>
<totfact> 0.29877396E+01</totfact>
</mgrwt>
</event>
<event>
12    1  0.9321077E-008  0.7831831E+03  0.7818608E-02  0.9584683E-01
         -3   -1    0    0    0  501 -0.00000000000E+00  0.00000000000E+00  0.23208747673E+04  0.23208747673E+04  0.00000000000E+00 0.  1.
          3   -1    0    0  501    0  0.00000000000E+00 -0.00000000000E+00 -0.31649999870E+03  0.31649999870E+03  0.00000000000E+00 0. -1.
         23    2    1    2    0    0  0.55662642140E+03 -0.40149416069E+03  0.42092908523E+03  0.81026743036E+03  0.91222145575E+02 0.  0.
    5000000    2    1    2    0    0 -0.55662642140E+03  0.40149416069E+03  0.15834456833E+04  0.18271073356E+04  0.59999204136E+03 0.  0.
         23    2    4    4    0    0 -0.26857121631E+03  0.49052184122E+03  0.78110999123E+03  0.96508015769E+03  0.92221024762E+02 0.  0.
         23    2    4    4    0    0 -0.28805520509E+03 -0.89027680532E+02  0.80233569210E+03  0.86202717792E+03  0.91905187986E+02 0.  0.
          1    1    3    3  502    0  0.31847535828E+03 -0.19271577779E+03  0.26723239328E+03  0.45823473991E+03  0.00000000000E+00 0. -1.
         -1    1    3    3    0  502  0.23815106312E+03 -0.20877838290E+03  0.15369669195E+03  0.35203269045E+03  0.00000000000E+00 0.  1.
         15    1    5    5    0    0 -0.10236853581E+03  0.27440499272E+03  0.37230359604E+03  0.47369878880E+03  0.17770000000E+01 0.  1.
        -15    1    5    5    0    0 -0.16620268050E+03  0.21611684850E+03  0.40880639520E+03  0.49138136889E+03  0.17770000000E+01 0. -1.
          1    1    6    6  503    0 -0.52403464134E+02  0.14688587886E+02  0.19307957034E+03  0.20060308609E+03  0.00000000000E+00 0. -1.
         -1    1    6    6    0  503 -0.23565174095E+03 -0.10371626842E+03  0.60925612176E+03  0.66142409183E+03  0.00000000000E+00 0.  1.
<mgrwt>
<rscale>  0 0.78318314E+03</rscale>
<asrwt>0</asrwt>
<pdfrwt beam="1">  1        3 0.48692309E-01 0.78318314E+03</pdfrwt>
<pdfrwt beam="2">  1       -3 0.35705765E+00 0.78318314E+03</pdfrwt>
<totfact> 0.20485521E-01</totfact>
</mgrwt>
</event>
<event>
12    1  0.9321077E-008  0.3331476E+03  0.7818608E-02  0.1069753E+00
          2   -1    0    0  501    0  0.00000000000E+00  0.00000000000E+00  0.13203648029E+04  0.13203648029E+04  0.00000000000E+00 0.  1.
         -2   -1    0    0    0  501 -0.00000000000E+00 -0.00000000000E+00 -0.18000543116E+03  0.18000543116E+03  0.00000000000E+00 0. -1.
         23    2    1    2    0    0 -0.26318883977E+03  0.12877210955E+03  0.38018842844E+03  0.48856929735E+03  0.91137783717E+02 0.  0.
    5000000    2    1    2    0    0  0.26318883977E+03 -0.12877210955E+03  0.76017094334E+03  0.10118009368E+04  0.60002554191E+03 0.  0.
         23    2    4    4    0    0  0.19377081510E+03 -0.13369497287E+03  0.96533911916E+01  0.25317274924E+03  0.92637888796E+02 0.  0.
         23    2    4    4    0    0  0.69418024669E+02  0.49228633253E+01  0.75051755215E+03  0.75862818752E+03  0.86006011866E+02 0.  0.
          3    1    3    3  502    0 -0.21943118944E+03  0.14060558679E+03  0.30970703037E+03  0.40476959198E+03  0.00000000000E+00 0. -1.
         -3    1    3    3    0  502 -0.43757650330E+02 -0.11833477242E+02  0.70481398070E+02  0.83799705369E+02  0.00000000000E+00 0.  1.
         15    1    5    5    0    0 -0.44535546971E+01 -0.27865780603E+02  0.92872790444E+00  0.28290566317E+02  0.17770000000E+01 0.  1.
        -15    1    5    5    0    0  0.19822436979E+03 -0.10582919227E+03  0.87246632871E+01  0.22488218292E+03  0.17770000000E+01 0. -1.
          1    1    6    6  503    0  0.86389919740E+02  0.14915065674E+02  0.52674581557E+03  0.53399141532E+03  0.00000000000E+00 0. -1.
         -1    1    6    6    0  503 -0.16971895071E+02 -0.99922023491E+01  0.22377173658E+03  0.22463677220E+03  0.00000000000E+00 0.  1.
<mgrwt>
<rscale>  0 0.33314760E+03</rscale>
<asrwt>0</asrwt>
<pdfrwt beam="1">  1        2 0.20313304E+00 0.33314760E+03</pdfrwt>
<pdfrwt beam="2">  1       -2 0.27693144E-01 0.33314760E+03</pdfrwt>
<totfact> 0.20204011E+02</totfact>
</mgrwt>
</event>
<event>
12    1  0.9321077E-008  0.8504591E+03  0.7818608E-02  0.9489721E-01
         -2   -1    0    0    0  501 -0.00000000000E+00  0.00000000000E+00  0.74645178116E+03  0.74645178116E+03  0.00000000000E+00 0.  1.
          2   -1    0    0  501    0  0.00000000000E+00 -0.00000000000E+00 -0.11763139054E+04  0.11763139054E+04  0.00000000000E+00 0. -1.
         23    2    1    2    0    0  0.82009748686E+03  0.14551223947E+03 -0.96824479340E+02  0.84346175905E+03  0.91208877839E+02 0.  0.
    5000000    2    1    2    0    0 -0.82009748686E+03 -0.14551223947E+03 -0.33303764487E+03  0.10793039275E+04  0.60020762672E+03 0.  0.
         23    2    4    4    0    0 -0.56134258027E+03 -0.76684834429E+01 -0.47446770178E+03  0.74070378039E+03  0.91423149065E+02 0.  0.
         23    2    4    4    0    0 -0.25875490658E+03 -0.13784375602E+03  0.14143005691E+03  0.33860014708E+03  0.93234091672E+02 0.  0.
          1    1    3    3  502    0  0.37408063750E+03  0.83724357693E+02 -0.21575280972E+01  0.38334155313E+03  0.00000000000E+00 0. -1.
         -1    1    3    3    0  502  0.44601684935E+03  0.61787881774E+02 -0.94666951243E+02  0.46012020592E+03  0.00000000000E+00 0.  1.
         15    1    5    5    0    0 -0.83191196142E+02 -0.57153305506E+01 -0.11704521519E+03  0.14372258085E+03  0.17770000000E+01 0.  1.
        -15    1    5    5    0    0 -0.47815138413E+03 -0.19531528923E+01 -0.35742248659E+03  0.59698119954E+03  0.17770000000E+01 0. -1.
          2    1    6    6  503    0 -0.19030817752E+03 -0.54629747036E+02  0.10932342841E+03  0.22617078435E+03  0.00000000000E+00 0. -1.
         -2    1    6    6    0  503 -0.68446729059E+02 -0.83214008988E+02  0.32106628504E+02  0.11242936273E+03  0.00000000000E+00 0.  1.
<mgrwt>
<rscale>  0 0.85045909E+03</rscale>
<asrwt>0</asrwt>
<pdfrwt beam="1">  1        2 0.18097137E+00 0.85045909E+03</pdfrwt>
<pdfrwt beam="2">  1       -2 0.11483874E+00 0.85045909E+03</pdfrwt>
<totfact> 0.11668908E+01</totfact>
</mgrwt>
</event>
<event>
12    1  0.9321077E-008  0.6286444E+03  0.7818608E-02  0.9847698E-01
          1   -1    0    0  501    0  0.00000000000E+00  0.00000000000E+00  0.88349751475E+03  0.88349751475E+03  0.00000000000E+00 0. -1.
         -1   -1    0    0    0  501 -0.00000000000E+00 -0.00000000000E+00 -0.49858515035E+03  0.49858515035E+03  0.00000000000E+00 0.  1.
         23    2    1    2    0    0 -0.44026867991E+03 -0.27351772755E+03  0.77834240083E+02  0.53175042483E+03  0.89732310734E+02 0.  0.
    5000000    2    1    2    0    0  0.44026867991E+03  0.27351772755E+03  0.30707812431E+03  0.85033224026E+03  0.60009956391E+03 0.  0.
         23    2    4    4    0    0 -0.81122519124E+02  0.19481947581E+03  0.19987402157E+03  0.30474186578E+03  0.91555933682E+02 0.  0.
         23    2    4    4    0    0  0.52139119903E+03  0.78698251739E+02  0.10720410274E+03  0.54559037449E+03  0.90188357546E+02 0.  0.
          1    1    3    3  502    0 -0.26310889522E+03 -0.16358321188E+03  0.90808402864E+02  0.32284969255E+03  0.00000000000E+00 0. -1.
         -1    1    3    3    0  502 -0.17715978469E+03 -0.10993451567E+03 -0.12974162781E+02  0.20890073228E+03  0.00000000000E+00 0.  1.
         15    1    5    5    0    0 -0.75991609976E+02  0.18839263754E+03  0.20959200696E+03  0.29188778285E+03  0.17770000000E+01 0. -1.
        -15    1    5    5    0    0 -0.51309091479E+01  0.64268382728E+01 -0.97179853889E+01  0.12854082927E+02  0.17770000000E+01 0.  1.
          2    1    6    6  503    0  0.18028122511E+03  0.21904937518E+02  0.80822789116E+02  0.19877995285E+03  0.00000000000E+00 0. -1.
         -2    1    6    6    0  503  0.34110997392E+03  0.56793314221E+02  0.26381313625E+02  0.34681042164E+03  0.00000000000E+00 0.  1.
<mgrwt>
<rscale>  0 0.62864439E+03</rscale>
<asrwt>0</asrwt>
<pdfrwt beam="1">  1        1 0.13592269E+00 0.62864439E+03</pdfrwt>
<pdfrwt beam="2">  1       -1 0.76705408E-01 0.62864439E+03</pdfrwt>
<totfact> 0.33304757E+01</totfact>
</mgrwt>
</event>
<event>
12    1  0.9321077E-008  0.9551492E+03  0.7818608E-02  0.9359152E-01
          2   -1    0    0  501    0  0.00000000000E+00  0.00000000000E+00  0.18660346997E+04  0.18660346997E+04  0.00000000000E+00 0.  1.
         -2   -1    0    0    0  501 -0.00000000000E+00 -0.00000000000E+00 -0.53571285441E+03  0.53571285441E+03  0.00000000000E+00 0. -1.
         23    2    1    2    0    0  0.51714954944E+03  0.72168341523E+03  0.83122225441E+03  0.12196935528E+04  0.91931051342E+02 0.  0.
    5000000    2    1    2    0    0 -0.51714954944E+03 -0.72168341523E+03  0.49909959089E+03  0.11820540013E+04  0.59990053518E+03 0.  0.
         23    2    4    4    0    0 -0.11976938058E+03 -0.57517538656E+03  0.12046742294E+03  0.60640452421E+03  0.89680639852E+02 0.  0.
         23    2    4    4    0    0 -0.39738016886E+03 -0.14650802866E+03  0.37863216795E+03  0.57564947711E+03  0.92921476642E+02 0.  0.
          4    1    3    3  502    0  0.24673771535E+03  0.27605445708E+03  0.31574172910E+03  0.48659881108E+03  0.00000000000E+00 0. -1.
         -4    1    3    3    0  502  0.27041183410E+03  0.44562895814E+03  0.51548052532E+03  0.73309474172E+03  0.00000000000E+00 0.  1.
         15    1    5    5    0    0 -0.63115191327E+02 -0.29605547321E+03  0.10769879533E+03  0.32130135207E+03  0.17770000000E+01 0.  1.
        -15    1    5    5    0    0 -0.56654189253E+02 -0.27911991335E+03  0.12768627614E+02  0.28510317215E+03  0.17770000000E+01 0. -1.
          3    1    6    6  503    0 -0.98729864113E+02 -0.75489533662E+02  0.82897429766E+02  0.14939290352E+03  0.00000000000E+00 0. -1.
         -3    1    6    6    0  503 -0.29865030475E+03 -0.71018495001E+02  0.29573473818E+03  0.42625657359E+03  0.00000000000E+00 0.  1.
<mgrwt>
<rscale>  0 0.95514925E+03</rscale>
<asrwt>0</asrwt>
<pdfrwt beam="1">  1        2 0.28708226E+00 0.95514925E+03</pdfrwt>
<pdfrwt beam="2">  1       -2 0.82417363E-01 0.95514925E+03</pdfrwt>
<totfact> 0.10303623E+01</totfact>
</mgrwt>
</event>
<event>
12    1  0.9321077E-008  0.7773593E+03  0.7818608E-02  0.9593379E-01
         -2   -1    0    0    0  501 -0.00000000000E+00  0.00000000000E+00  0.22414381625E+03  0.22414381625E+03  0.00000000000E+00 0.  1.
          2   -1    0    0  501    0  0.00000000000E+00 -0.00000000000E+00 -0.34378244095E+04  0.34378244095E+04  0.00000000000E+00 0. -1.
         23    2    1    2    0    0 -0.29235739012E+03  0.61424235408E+03 -0.65492173093E+03  0.94737051385E+03  0.76301400796E+02 0.  0.
    5000000    2    1    2    0    0  0.29235739012E+03 -0.61424235408E+03 -0.25587588623E+04  0.27145977119E+04  0.59918887573E+03 0.  0.
         23    2    4    4    0    0 -0.92768702708E+02  0.18833626170E+02 -0.69657968580E+03  0.70865736945E+03  0.89505703355E+02 0.  0.
         23    2    4    4    0    0  0.38512609283E+03 -0.63307598025E+03 -0.18621791765E+04  0.20059403424E+04  0.83534829916E+02 0.  0.
          3    1    3    3  502    0 -0.13402877528E+03  0.23519504327E+03 -0.30443982462E+03  0.40738682821E+03  0.00000000000E+00 0. -1.
         -3    1    3    3    0  502 -0.15832861484E+03  0.37904731081E+03 -0.35048190631E+03  0.53998368564E+03  0.00000000000E+00 0.  1.
         15    1    5    5    0    0 -0.10568259127E+03  0.30523276645E+02 -0.64138161781E+03  0.65074881322E+03  0.17770000000E+01 0.  1.
        -15    1    5    5    0    0  0.12913888561E+02 -0.11689650475E+02 -0.55198067990E+02  0.57908556232E+02  0.17770000000E+01 0. -1.
          2    1    6    6  503    0  0.15986970542E+02 -0.42606831790E+01 -0.42673792859E+02  0.45768867642E+02  0.00000000000E+00 0. -1.
         -2    1    6    6    0  503  0.36913912229E+03 -0.62881529707E+03 -0.18195053837E+04  0.19601714748E+04  0.00000000000E+00 0.  1.
<mgrwt>
<rscale>  0 0.77735931E+03</rscale>
<asrwt>0</asrwt>
<pdfrwt beam="1">  1        2 0.52889599E+00 0.77735931E+03</pdfrwt>
<pdfrwt beam="2">  1       -2 0.34483669E-01 0.77735931E+03</pdfrwt>
<totfact> 0.75980224E+00</totfact>
</mgrwt>
</event>
<event>
12    1  0.9321077E-008  0.1002038E+04  0.7818608E-02  0.9306312E-01
         -2   -1    0    0    0  501 -0.00000000000E+00  0.00000000000E+00  0.90249729326E+03  0.90249729326E+03  0.00000000000E+00 0.  1.
          2   -1    0    0  501    0  0.00000000000E+00 -0.00000000000E+00 -0.14531859229E+04  0.14531859229E+04  0.00000000000E+00 0. -1.
         23    2    1    2    0    0 -0.92586823233E+03 -0.99443179548E+02 -0.78770719201E+03  0.12229186049E+04  0.89030131303E+02 0.  0.
    5000000    2    1    2    0    0  0.92586823233E+03  0.99443179548E+02  0.23701856241E+03  0.11327646112E+04  0.59988076811E+03 0.  0.
         23    2    4    4    0    0 -0.54081623321E+02 -0.13668262527E+02 -0.35854223718E+02  0.10523360471E+03  0.81712562192E+02 0.  0.
         23    2    4    4    0    0  0.97994985565E+03  0.11311144207E+03  0.27287278613E+03  0.10275310065E+04  0.90909262704E+02 0.  0.
          1    1    3    3  502    0 -0.61451060686E+03 -0.83147153616E+02 -0.57339295847E+03  0.84458049937E+03  0.00000000000E+00 0. -1.
         -1    1    3    3    0  502 -0.31135762546E+03 -0.16296025932E+02 -0.21431423354E+03  0.37833810553E+03  0.00000000000E+00 0.  1.
         15    1    5    5    0    0 -0.59225446489E+02 -0.31373258881E+02 -0.25126752873E+01  0.67092519335E+02  0.17770000000E+01 0.  1.
        -15    1    5    5    0    0  0.51438231676E+01  0.17704996355E+02 -0.33341548430E+02  0.38141085373E+02  0.17770000000E+01 0. -1.
          3    1    6    6  503    0  0.34522987888E+03  0.48356389977E+02  0.52508829273E+02  0.35253253307E+03  0.00000000000E+00 0. -1.
         -3    1    6    6    0  503  0.63471997677E+03  0.64755052098E+02  0.22036395685E+03  0.67499847345E+03  0.00000000000E+00 0.  1.
<mgrwt>
<rscale>  0 0.10020384E+04</rscale>
<asrwt>0</asrwt>
<pdfrwt beam="1">  1        2 0.22356706E+00 0.10020384E+04</pdfrwt>
<pdfrwt beam="2">  1       -2 0.13884574E+00 0.10020384E+04</pdfrwt>
<totfact> 0.49147512E+00</totfact>
</mgrwt>
</event>
<event>
12    1  0.9321077E-008  0.6599108E+03  0.7818608E-02  0.9788358E-01
         -2   -1    0    0    0  501 -0.00000000000E+00  0.00000000000E+00  0.88282413213E+03  0.88282413213E+03  0.00000000000E+00 0. -1.
          2   -1    0    0  501    0  0.00000000000E+00 -0.00000000000E+00 -0.12951255397E+04  0.12951255397E+04  0.00000000000E+00 0.  1.
         23    2    1    2    0    0 -0.55124048732E+03 -0.33563336605E+03 -0.94531028762E+03  0.11481311036E+04  0.89875802075E+02 0.  0.
    5000000    2    1    2    0    0  0.55124048732E+03  0.33563336605E+03  0.53300888007E+03  0.10298185683E+04  0.59992665054E+03 0.  0.
         23    2    4    4    0    0  0.38083578238E+03  0.29753653021E+03  0.32667548586E+02  0.49305669800E+03  0.92053564628E+02 0.  0.
         23    2    4    4    0    0  0.17040470494E+03  0.38096835844E+02  0.50034133148E+03  0.53676187026E+03  0.85338883331E+02 0.  0.
          3    1    3    3  502    0 -0.27415855602E+03 -0.17441260404E+03 -0.55416305199E+03  0.64240124414E+03  0.00000000000E+00 0. -1.
         -3    1    3    3    0  502 -0.27708193130E+03 -0.16122076201E+03 -0.39114723563E+03  0.50572985941E+03  0.00000000000E+00 0.  1.
         15    1    5    5    0    0  0.16718060331E+03  0.17139162480E+03  0.49014963694E+02  0.24439735589E+03  0.17770000000E+01 0.  1.
        -15    1    5    5    0    0  0.21365517908E+03  0.12614490541E+03 -0.16347415108E+02  0.24865934211E+03  0.17770000000E+01 0. -1.
          2    1    6    6  503    0  0.76210562489E+02 -0.16376280728E+02  0.13867627977E+03  0.15908281798E+03  0.00000000000E+00 0. -1.
         -2    1    6    6    0  503  0.94194142450E+02  0.54473116572E+02  0.36166505172E+03  0.37767905229E+03  0.00000000000E+00 0.  1.
<mgrwt>
<rscale>  0 0.65991080E+03</rscale>
<asrwt>0</asrwt>
<pdfrwt beam="1">  1        2 0.19925008E+00 0.65991080E+03</pdfrwt>
<pdfrwt beam="2">  1       -2 0.13581910E+00 0.65991080E+03</pdfrwt>
<totfact> 0.66944891E+00</totfact>
</mgrwt>
</event>
<event>
12    1  0.9321077E-008  0.9410178E+03  0.7818608E-02  0.9375711E-01
          2   -1    0    0  501    0  0.00000000000E+00  0.00000000000E+00  0.12959893310E+04  0.12959893310E+04  0.00000000000E+00 0. -1.
         -2   -1    0    0    0  501 -0.00000000000E+00 -0.00000000000E+00 -0.15625751631E+04  0.15625751631E+04  0.00000000000E+00 0.  1.
         23    2    1    2    0    0  0.82655074032E+03  0.44395307774E+03  0.85876715222E+03  0.12752920722E+04  0.92781389442E+02 0.  0.
    5000000    2    1    2    0    0 -0.82655074032E+03 -0.44395307774E+03 -0.11253529843E+04  0.15832724218E+04  0.60004313235E+03 0.  0.
         23    2    4    4    0    0 -0.31445986556E+03 -0.17387820924E+03 -0.86691351110E+03  0.94286708929E+03  0.91327288633E+02 0.  0.
         23    2    4    4    0    0 -0.51209087476E+03 -0.27007486851E+03 -0.25843947323E+03  0.64040533249E+03  0.90280285474E+02 0.  0.
          3    1    3    3  502    0  0.64528366184E+03  0.37409180923E+03  0.64103236411E+03  0.98349284583E+03  0.00000000000E+00 0. -1.
         -3    1    3    3    0  502  0.18126707849E+03  0.69861268519E+02  0.21773478810E+03  0.29179922641E+03  0.00000000000E+00 0.  1.
         15    1    5    5    0    0 -0.15329282288E+03 -0.58256459690E+02 -0.29485963839E+03  0.33739867920E+03  0.17770000000E+01 0. -1.
        -15    1    5    5    0    0 -0.16116704268E+03 -0.11562174954E+03 -0.57205387271E+03  0.60546841009E+03  0.17770000000E+01 0.  1.
          1    1    6    6  503    0 -0.37995010085E+03 -0.18728579444E+03 -0.22961242364E+03  0.48182975523E+03  0.00000000000E+00 0. -1.
         -1    1    6    6    0  503 -0.13214077391E+03 -0.82789074075E+02 -0.28827049586E+02  0.15857557726E+03  0.00000000000E+00 0.  1.
<mgrwt>
<rscale>  0 0.94101777E+03</rscale>
<asrwt>0</asrwt>
<pdfrwt beam="1">  1        2 0.19938297E+00 0.94101777E+03</pdfrwt>
<pdfrwt beam="2">  1       -2 0.24039618E+00 0.94101777E+03</pdfrwt>
<totfact> 0.12296634E+00</totfact>
</mgrwt>
</event>
<event>
12    1  0.9321077E-008  0.5196445E+03  0.7818608E-02  0.1008775E+00
         -2   -1    0    0    0  501 -0.00000000000E+00  0.00000000000E+00  0.27084231349E+03  0.27084231349E+03  0.00000000000E+00 0.  1.
          2   -1    0    0  501    0  0.00000000000E+00 -0.00000000000E+00 -0.13118259002E+04  0.13118259002E+04  0.00000000000E+00 0. -1.
         23    2    1    2    0    0  0.12280547246E+03  0.41630339486E+03 -0.30257596488E+03  0.53650969931E+03  0.88886119782E+02 0.  0.
    5000000    2    1    2    0    0 -0.12280547246E+03 -0.41630339486E+03 -0.73840762184E+03  0.10461585144E+04  0.60067638593E+03 0.  0.
         23    2    4    4    0    0  0.47463151192E+02 -0.40622807878E+03 -0.74345449476E+03  0.85335446227E+03  0.90638015123E+02 0.  0.
         23    2    4    4    0    0 -0.17026862365E+03 -0.10075316080E+02  0.50468729245E+01  0.19280405212E+03  0.89749737571E+02 0.  0.
          3    1    3    3  502    0 -0.74739495992E+01  0.92137686736E+02 -0.80147783022E+02  0.12234737579E+03  0.00000000000E+00 0. -1.
         -3    1    3    3    0  502  0.13027942206E+03  0.32416570812E+03 -0.22242818186E+03  0.41416232352E+03  0.00000000000E+00 0.  1.
         15    1    5    5    0    0  0.61494870006E+02 -0.17070395508E+03 -0.28760258499E+03  0.34005861839E+03  0.17770000000E+01 0. -1.
        -15    1    5    5    0    0 -0.14031718813E+02 -0.23552412370E+03 -0.45585190977E+03  0.51329584388E+03  0.17770000000E+01 0.  1.
          3    1    6    6  503    0 -0.92462967608E+02 -0.34259667840E+02  0.36952124281E+02  0.10530234902E+03  0.00000000000E+00 0. -1.
         -3    1    6    6    0  503 -0.77805656046E+02  0.24184351759E+02 -0.31905251356E+02  0.87501703108E+02  0.00000000000E+00 0.  1.
<mgrwt>
<rscale>  0 0.51964451E+03</rscale>
<asrwt>0</asrwt>
<pdfrwt beam="1">  1        2 0.20181937E+00 0.51964451E+03</pdfrwt>
<pdfrwt beam="2">  1       -2 0.41668049E-01 0.51964451E+03</pdfrwt>
<totfact> 0.92450325E+01</totfact>
</mgrwt>
</event>
<event>
12    1  0.9321077E-008  0.4945158E+03  0.7818608E-02  0.1015220E+00
         -3   -1    0    0    0  501 -0.00000000000E+00  0.00000000000E+00  0.16495083805E+04  0.16495083805E+04  0.00000000000E+00 0.  1.
          3   -1    0    0  501    0  0.00000000000E+00 -0.00000000000E+00 -0.29195638778E+03  0.29195638778E+03  0.00000000000E+00 0. -1.
         23    2    1    2    0    0  0.28552026149E+03  0.18620149838E+03  0.11757230434E+04  0.12278235045E+04  0.95042441302E+02 0.  0.
    5000000    2    1    2    0    0 -0.28552026149E+03 -0.18620149838E+03  0.18182894930E+03  0.71364126379E+03  0.60002439021E+03 0.  0.
         23    2    4    4    0    0 -0.72850333033E+02  0.18939406320E+03  0.15502276719E+03  0.27184283276E+03  0.93215798953E+02 0.  0.
         23    2    4    4    0    0 -0.21266992846E+03 -0.37559556158E+03  0.26806182106E+02  0.44179843103E+03  0.90370116252E+02 0.  0.
          2    1    3    3  502    0  0.48902745360E+02 -0.56666937936E+01  0.16043833932E+03  0.16782148446E+03  0.00000000000E+00 0. -1.
         -2    1    3    3    0  502  0.23661751613E+03  0.19186819217E+03  0.10152847041E+04  0.10600020200E+04  0.00000000000E+00 0.  1.
         15    1    5    5    0    0 -0.43470389882E+02  0.11824147827E+03  0.37704319099E+02  0.13151233930E+03  0.17770000000E+01 0.  1.
        -15    1    5    5    0    0 -0.29379943151E+02  0.71152584929E+02  0.11731844810E+03  0.14033049346E+03  0.17770000000E+01 0. -1.
          1    1    6    6  503    0 -0.12823974747E+03 -0.20448810871E+03  0.58547975671E+02  0.24837206946E+03  0.00000000000E+00 0. -1.
         -1    1    6    6    0  503 -0.84430180996E+02 -0.17110745287E+03 -0.31741793565E+02  0.19342636157E+03  0.00000000000E+00 0.  1.
<mgrwt>
<rscale>  0 0.49451582E+03</rscale>
<asrwt>0</asrwt>
<pdfrwt beam="1">  1        3 0.44916369E-01 0.49451582E+03</pdfrwt>
<pdfrwt beam="2">  1       -3 0.25377051E+00 0.49451582E+03</pdfrwt>
<totfact> 0.92293425E-01</totfact>
</mgrwt>
</event>
<event>
12    1  0.9321077E-008  0.7173896E+03  0.7818608E-02  0.9687947E-01
         -1   -1    0    0    0  501 -0.00000000000E+00  0.00000000000E+00  0.36459185548E+03  0.36459185548E+03  0.00000000000E+00 0.  1.
          1   -1    0    0  501    0  0.00000000000E+00 -0.00000000000E+00 -0.18396343177E+04  0.18396343177E+04  0.00000000000E+00 0. -1.
         23    2    1    2    0    0 -0.11967949193E+03 -0.63790306486E+03 -0.26782999911E+03  0.70804823799E+03  0.91410600870E+02 0.  0.
    5000000    2    1    2    0    0  0.11967949193E+03  0.63790306486E+03 -0.12072124631E+04  0.14961779352E+04  0.59995248289E+03 0.  0.
         23    2    4    4    0    0 -0.13081824730E+03  0.40276573042E+03 -0.31422803336E+03  0.53513672369E+03  0.91095601814E+02 0.  0.
         23    2    4    4    0    0  0.25049773923E+03  0.23513733444E+03 -0.89298442974E+03  0.96104121150E+03  0.90223805194E+02 0.  0.
          4    1    3    3  502    0 -0.97049376775E+02 -0.31253477759E+03 -0.16196639744E+03  0.36514337271E+03  0.00000000000E+00 0.  1.
         -4    1    3    3    0  502 -0.22630115155E+02 -0.32536828727E+03 -0.10586360167E+03  0.34290486528E+03  0.00000000000E+00 0. -1.
         15    1    5    5    0    0 -0.27307156319E+02  0.20001516938E+03 -0.11331637890E+03  0.23150703710E+03  0.17770000000E+01 0. -1.
        -15    1    5    5    0    0 -0.10351109098E+03  0.20275056104E+03 -0.20091165446E+03  0.30362968660E+03  0.17770000000E+01 0.  1.
          4    1    6    6  503    0  0.55920886193E+02  0.10118932846E+03 -0.23414088424E+03  0.26112904737E+03  0.00000000000E+00 0. -1.
         -4    1    6    6    0  503  0.19457685303E+03  0.13394800598E+03 -0.65884354550E+03  0.69991216413E+03  0.00000000000E+00 0.  1.
<mgrwt>
<rscale>  0 0.71738961E+03</rscale>
<asrwt>0</asrwt>
<pdfrwt beam="1">  1        1 0.28302066E+00 0.71738961E+03</pdfrwt>
<pdfrwt beam="2">  1       -1 0.56091055E-01 0.71738961E+03</pdfrwt>
<totfact> 0.12891946E+01</totfact>
</mgrwt>
</event>
<event>
12    1  0.9321077E-008  0.4617302E+03  0.7818608E-02  0.1024281E+00
         -2   -1    0    0    0  501 -0.00000000000E+00  0.00000000000E+00  0.10761628747E+04  0.10761628747E+04  0.00000000000E+00 0.  1.
          2   -1    0    0  501    0  0.00000000000E+00 -0.00000000000E+00 -0.21495428973E+03  0.21495428973E+03  0.00000000000E+00 0. -1.
         23    2    1    2    0    0  0.14295265358E+02  0.27849853170E+03  0.20081516543E+03  0.35621673023E+03  0.93796809457E+02 0.  0.
    5000000    2    1    2    0    0 -0.14295265358E+02 -0.27849853170E+03  0.66039341956E+03  0.93490043422E+03  0.60012795848E+03 0.  0.
         23    2    4    4    0    0 -0.28632572869E+03 -0.10670403855E+03  0.40500636808E+03  0.51495120391E+03  0.88183952444E+02 0.  0.
         23    2    4    4    0    0  0.27203046333E+03 -0.17179449315E+03  0.25538705148E+03  0.41994923031E+03  0.87297703991E+02 0.  0.
          4    1    3    3  502    0 -0.19601979528E+02  0.20567860463E+03  0.10686656112E+03  0.23261209747E+03  0.00000000000E+00 0. -1.
         -4    1    3    3    0  502  0.33897244886E+02  0.72819927062E+02  0.93948604310E+02  0.12360463276E+03  0.00000000000E+00 0.  1.
         15    1    5    5    0    0 -0.20650732563E+03 -0.94763101267E+02  0.23572115705E+03  0.32740333308E+03  0.17770000000E+01 0. -1.
        -15    1    5    5    0    0 -0.79818403058E+02 -0.11940937281E+02  0.16928521103E+03  0.18754787083E+03  0.17770000000E+01 0.  1.
          1    1    6    6  503    0  0.14875582652E+03 -0.13246172129E+03  0.11937042657E+03  0.23221477617E+03  0.00000000000E+00 0. -1.
         -1    1    6    6    0  503  0.12327463681E+03 -0.39332771861E+02  0.13601662491E+03  0.18773445415E+03  0.00000000000E+00 0.  1.
<mgrwt>
<rscale>  0 0.46173024E+03</rscale>
<asrwt>0</asrwt>
<pdfrwt beam="1">  1        2 0.33069891E-01 0.46173024E+03</pdfrwt>
<pdfrwt beam="2">  1       -2 0.16556352E+00 0.46173024E+03</pdfrwt>
<totfact> 0.37857848E+01</totfact>
</mgrwt>
</event>
<event>
12    1  0.9321077E-008  0.7027761E+03  0.7818608E-02  0.9712496E-01
          1   -1    0    0  501    0  0.00000000000E+00  0.00000000000E+00  0.30122110657E+03  0.30122110657E+03  0.00000000000E+00 0. -1.
         -1   -1    0    0    0  501 -0.00000000000E+00 -0.00000000000E+00 -0.18123851635E+04  0.18123851635E+04  0.00000000000E+00 0.  1.
         23    2    1    2    0    0 -0.58601999064E+03 -0.75321078281E+02 -0.40237605173E+03  0.72141789104E+03  0.97183292037E+02 0.  0.
    5000000    2    1    2    0    0  0.58601999064E+03  0.75321078281E+02 -0.11087880052E+04  0.13921883791E+04  0.59973739919E+03 0.  0.
         23    2    4    4    0    0  0.38222263553E+03  0.31507309102E+03 -0.56783529107E+03  0.75909254815E+03  0.91757196270E+02 0.  0.
         23    2    4    4    0    0  0.20379735511E+03 -0.23975201274E+03 -0.54095271417E+03  0.63309583093E+03  0.95739765002E+02 0.  0.
          2    1    3    3  502    0 -0.24414478143E+03 -0.17901068907E+01 -0.12052638574E+03  0.27228016535E+03  0.00000000000E+00 0. -1.
         -2    1    3    3    0  502 -0.34187520921E+03 -0.73530971391E+02 -0.28184966599E+03  0.44913772569E+03  0.00000000000E+00 0.  1.
         15    1    5    5    0    0  0.13313506176E+03  0.96742862031E+02 -0.25487650654E+03  0.30339630409E+03  0.17770000000E+01 0. -1.
        -15    1    5    5    0    0  0.24908757377E+03  0.21833022899E+03 -0.31295878453E+03  0.45569624405E+03  0.17770000000E+01 0.  1.
          3    1    6    6  503    0  0.14618711365E+02 -0.30366363518E+02 -0.13198626616E+03  0.13622113349E+03  0.00000000000E+00 0. -1.
         -3    1    6    6    0  503  0.18917864374E+03 -0.20938564922E+03 -0.40896644801E+03  0.49687469744E+03  0.00000000000E+00 0.  1.
<mgrwt>
<rscale>  0 0.70277610E+03</rscale>
<asrwt>0</asrwt>
<pdfrwt beam="1">  1        1 0.46341710E-01 0.70277610E+03</pdfrwt>
<pdfrwt beam="2">  1       -1 0.27882848E+00 0.70277610E+03</pdfrwt>
<totfact> 0.41522940E+00</totfact>
</mgrwt>
</event>
<event>
12    1  0.9321077E-008  0.6708038E+03  0.7818608E-02  0.9768507E-01
          2   -1    0    0  501    0  0.00000000000E+00  0.00000000000E+00  0.22620308516E+04  0.22620308516E+04  0.00000000000E+00 0. -1.
         -2   -1    0    0    0  501 -0.00000000000E+00 -0.00000000000E+00 -0.20703616427E+03  0.20703616427E+03  0.00000000000E+00 0.  1.
         23    2    1    2    0    0  0.14300188741E+03  0.51905068878E+03  0.65380009972E+03  0.85191636203E+03  0.91889935074E+02 0.  0.
    5000000    2    1    2    0    0 -0.14300188741E+03 -0.51905068878E+03  0.14011945876E+04  0.16171506539E+04  0.60163677376E+03 0.  0.
         23    2    4    4    0    0 -0.18919963797E+03  0.60938007307E+02  0.37765930273E+03  0.43626769977E+03  0.90515264908E+02 0.  0.
         23    2    4    4    0    0  0.46197750552E+02 -0.57998869609E+03  0.10235352849E+04  0.11808829541E+04  0.91317862885E+02 0.  0.
          1    1    3    3  502    0  0.23598505617E+02  0.25591963101E+03  0.31969373942E+03  0.41018999748E+03  0.00000000000E+00 0. -1.
         -1    1    3    3    0  502  0.11940338180E+03  0.26313105777E+03  0.33410636030E+03  0.44172636455E+03  0.00000000000E+00 0.  1.
         15    1    5    5    0    0 -0.20872572120E+02 -0.13533819309E+02  0.13814513598E+02  0.28510121833E+02  0.17770000000E+01 0. -1.
        -15    1    5    5    0    0 -0.16832706585E+03  0.74471826615E+02  0.36384478913E+03  0.40775757793E+03  0.17770000000E+01 0.  1.
          3    1    6    6  503    0 -0.16018985763E+01 -0.41130314346E+03  0.76393255856E+03  0.86762076734E+03  0.00000000000E+00 0. -1.
         -3    1    6    6    0  503  0.47799649128E+02 -0.16868555263E+03  0.25960272634E+03  0.31326218675E+03  0.00000000000E+00 0.  1.
<mgrwt>
<rscale>  0 0.67080380E+03</rscale>
<asrwt>0</asrwt>
<pdfrwt beam="1">  1        2 0.34800473E+00 0.67080380E+03</pdfrwt>
<pdfrwt beam="2">  1       -2 0.31851719E-01 0.67080380E+03</pdfrwt>
<totfact> 0.45700805E+01</totfact>
</mgrwt>
</event>
<event>
12    1  0.9321077E-008  0.5054002E+03  0.7818608E-02  0.1012379E+00
         -2   -1    0    0    0  501 -0.00000000000E+00  0.00000000000E+00  0.19036952756E+03  0.19036952756E+03  0.00000000000E+00 0. -1.
          2   -1    0    0  501    0  0.00000000000E+00 -0.00000000000E+00 -0.21606583478E+04  0.21606583478E+04  0.00000000000E+00 0.  1.
         23    2    1    2    0    0  0.16405478258E+03  0.38183389209E+03 -0.12705459239E+04  0.13398727445E+04  0.90889678959E+02 0.  0.
    5000000    2    1    2    0    0 -0.16405478258E+03 -0.38183389209E+03 -0.69974289629E+03  0.10111551309E+04  0.60006956673E+03 0.  0.
         23    2    4    4    0    0  0.14331453441E+03 -0.10405922824E+03 -0.50634419467E+03  0.54442228218E+03  0.92972034032E+02 0.  0.
         23    2    4    4    0    0 -0.30736931698E+03 -0.27777466385E+03 -0.19339870162E+03  0.46673284867E+03  0.93818086417E+02 0.  0.
          3    1    3    3  502    0  0.46171963990E+02  0.60425029117E+02 -0.33866003721E+03  0.34709315061E+03  0.00000000000E+00 0. -1.
         -3    1    3    3    0  502  0.11788281859E+03  0.32140886297E+03 -0.93188588672E+03  0.99277959386E+03  0.00000000000E+00 0.  1.
         15    1    5    5    0    0  0.58972807823E+02 -0.53970150425E+02 -0.35620596058E+03  0.36507042236E+03  0.17770000000E+01 0.  1.
        -15    1    5    5    0    0  0.84341726583E+02 -0.50089077811E+02 -0.15013823409E+03  0.17935185983E+03  0.17770000000E+01 0. -1.
          1    1    6    6  503    0 -0.12030321854E+02 -0.92397254183E+01  0.10552171418E+02  0.18478351965E+02  0.00000000000E+00 0. -1.
         -1    1    6    6    0  503 -0.29533899513E+03 -0.26853493843E+03 -0.20395087304E+03  0.44825449670E+03  0.00000000000E+00 0.  1.
<mgrwt>
<rscale>  0 0.50540023E+03</rscale>
<asrwt>0</asrwt>
<pdfrwt beam="1">  1        2 0.33240898E+00 0.50540023E+03</pdfrwt>
<pdfrwt beam="2">  1       -2 0.29287620E-01 0.50540023E+03</pdfrwt>
<totfact> 0.62307912E+01</totfact>
</mgrwt>
</event>
<event>
12    1  0.9321077E-008  0.6913062E+03  0.7818608E-02  0.9732216E-01
         -1   -1    0    0    0  501 -0.00000000000E+00  0.00000000000E+00  0.28273357646E+03  0.28273357646E+03  0.00000000000E+00 0.  1.
          1   -1    0    0  501    0  0.00000000000E+00 -0.00000000000E+00 -0.18492398264E+04  0.18492398264E+04  0.00000000000E+00 0. -1.
         23    2    1    2    0    0 -0.31619141045E+02  0.57552786595E+03 -0.86648037860E+03  0.10447136181E+04  0.91685347042E+02 0.  0.
    5000000    2    1    2    0    0  0.31619141045E+02 -0.57552786595E+03 -0.70002587130E+03  0.10872597847E+04  0.59988792648E+03 0.  0.
         23    2    4    4    0    0  0.27759804907E+03 -0.36080087512E+03 -0.53831650332E+03  0.71137507427E+03  0.95036257345E+02 0.  0.
         23    2    4    4    0    0 -0.24597890802E+03 -0.21472699082E+03 -0.16170936799E+03  0.37588471042E+03  0.92336840168E+02 0.  0.
          1    1    3    3  502    0  0.20018102125E+02  0.40407491432E+03 -0.60368524819E+03  0.72671393249E+03  0.00000000000E+00 0. -1.
         -1    1    3    3    0  502 -0.51637243170E+02  0.17145295162E+03 -0.26279513041E+03  0.31799968565E+03  0.00000000000E+00 0.  1.
         15    1    5    5    0    0  0.23547970350E+03 -0.24186911825E+03 -0.41478969186E+03  0.53479435985E+03  0.17770000000E+01 0. -1.
        -15    1    5    5    0    0  0.42118345562E+02 -0.11893175688E+03 -0.12352681145E+03  0.17658071441E+03  0.17770000000E+01 0.  1.
          3    1    6    6  503    0 -0.63299136367E+02 -0.10358854930E+03 -0.31090772709E+02  0.12531561897E+03  0.00000000000E+00 0. -1.
         -3    1    6    6    0  503 -0.18267977165E+03 -0.11113844153E+03 -0.13061859528E+03  0.25056909145E+03  0.00000000000E+00 0.  1.
<mgrwt>
<rscale>  0 0.69130622E+03</rscale>
<asrwt>0</asrwt>
<pdfrwt beam="1">  1        1 0.28449843E+00 0.69130622E+03</pdfrwt>
<pdfrwt beam="2">  1       -1 0.43497473E-01 0.69130622E+03</pdfrwt>
<totfact> 0.20615778E+01</totfact>
</mgrwt>
</event>
<event>
12    1  0.9321077E-008  0.5341874E+03  0.7818608E-02  0.1005222E+00
         -2   -1    0    0    0  501 -0.00000000000E+00  0.00000000000E+00  0.87686576164E+03  0.87686576164E+03  0.00000000000E+00 0. -1.
          2   -1    0    0  501    0  0.00000000000E+00 -0.00000000000E+00 -0.45297287469E+03  0.45297287469E+03  0.00000000000E+00 0.  1.
         23    2    1    2    0    0 -0.43860610186E+03  0.18858963161E+03  0.23299489449E+03  0.53967259046E+03  0.94965900671E+02 0.  0.
    5000000    2    1    2    0    0  0.43860610186E+03 -0.18858963161E+03  0.19089799247E+03  0.79016604587E+03  0.59998247872E+03 0.  0.
         23    2    4    4    0    0  0.48087433952E+02  0.73543693825E+02  0.27676535713E+03  0.30352846302E+03  0.88370745986E+02 0.  0.
         23    2    4    4    0    0  0.39051866791E+03 -0.26213332544E+03 -0.85867364668E+02  0.48663758285E+03  0.90687498790E+02 0.  0.
          3    1    3    3  502    0 -0.26152654425E+03  0.15885301754E+03  0.16523093236E+03  0.34775231924E+03  0.00000000000E+00 0. -1.
         -3    1    3    3    0  502 -0.17707955761E+03  0.29736614074E+02  0.67763962133E+02  0.19192027122E+03  0.00000000000E+00 0.  1.
         15    1    5    5    0    0 -0.12006575161E+02  0.43496172906E+02  0.18088934477E+03  0.18644084232E+03  0.17770000000E+01 0.  1.
        -15    1    5    5    0    0  0.60094009113E+02  0.30047520919E+02  0.95876012364E+02  0.11708762070E+03  0.17770000000E+01 0. -1.
          1    1    6    6  503    0  0.11180922159E+03 -0.69372406971E+02  0.16564607241E+02  0.13262058322E+03  0.00000000000E+00 0. -1.
         -1    1    6    6    0  503  0.27870944633E+03 -0.19276091847E+03 -0.10243197191E+03  0.35401699963E+03  0.00000000000E+00 0.  1.
<mgrwt>
<rscale>  0 0.53418743E+03</rscale>
<asrwt>0</asrwt>
<pdfrwt beam="1">  1        2 0.69688135E-01 0.53418743E+03</pdfrwt>
<pdfrwt beam="2">  1       -2 0.13490242E+00 0.53418743E+03</pdfrwt>
<totfact> 0.28168511E+01</totfact>
</mgrwt>
</event>
<event>
12    1  0.9321077E-008  0.5648508E+03  0.7818608E-02  0.9981138E-01
         -2   -1    0    0    0  501 -0.00000000000E+00  0.00000000000E+00  0.72918521316E+03  0.72918521316E+03  0.00000000000E+00 0.  1.
          2   -1    0    0  501    0  0.00000000000E+00 -0.00000000000E+00 -0.59350316706E+03  0.59350316706E+03  0.00000000000E+00 0. -1.
         23    2    1    2    0    0  0.33217234566E+03 -0.38524748009E+03 -0.33134724879E+02  0.51839155972E+03  0.94222136808E+02 0.  0.
    5000000    2    1    2    0    0 -0.33217234566E+03  0.38524748009E+03  0.16881677099E+03  0.80429682050E+03  0.59970007934E+03 0.  0.
         23    2    4    4    0    0  0.36312841115E+02  0.14750133493E+03 -0.16729385313E+03  0.24399184170E+03  0.92029991227E+02 0.  0.
         23    2    4    4    0    0 -0.36848518677E+03  0.23774614516E+03  0.33611062412E+03  0.56030497879E+03  0.93095409166E+02 0.  0.
          1    1    3    3  502    0  0.23954758504E+03 -0.31902347687E+03  0.29125208978E+01  0.39895802670E+03  0.00000000000E+00 0. -1.
         -1    1    3    3    0  502  0.92624760615E+02 -0.66224003222E+02 -0.36047245777E+02  0.11943353302E+03  0.00000000000E+00 0.  1.
         15    1    5    5    0    0  0.39676264760E+01 -0.11386722479E+02 -0.18435800775E+01  0.12327044462E+02  0.17770000000E+01 0. -1.
        -15    1    5    5    0    0  0.32345214639E+02  0.15888805741E+03 -0.16545027306E+03  0.23166479724E+03  0.17770000000E+01 0.  1.
          2    1    6    6  503    0 -0.40151427272E+02  0.50690685764E+02  0.84153823295E+02  0.10612986719E+03  0.00000000000E+00 0. -1.
         -2    1    6    6    0  503 -0.32833375950E+03  0.18705545939E+03  0.25195680083E+03  0.45417511160E+03  0.00000000000E+00 0.  1.
<mgrwt>
<rscale>  0 0.56485078E+03</rscale>
<asrwt>0</asrwt>
<pdfrwt beam="1">  1        2 0.91308180E-01 0.56485078E+03</pdfrwt>
<pdfrwt beam="2">  1       -2 0.11218234E+00 0.56485078E+03</pdfrwt>
<totfact> 0.32423570E+01</totfact>
</mgrwt>
</event>
<event>
12    1  0.9321077E-008  0.5030912E+03  0.7818608E-02  0.1012975E+00
         -1   -1    0    0    0  501 -0.00000000000E+00  0.00000000000E+00  0.10680222862E+03  0.10680222862E+03  0.00000000000E+00 0.  1.
          1   -1    0    0  501    0  0.00000000000E+00 -0.00000000000E+00 -0.25157663697E+04  0.25157663697E+04  0.00000000000E+00 0. -1.
         23    2    1    2    0    0 -0.15389292945E+03  0.29455603346E+03 -0.94554308855E+03  0.10062422988E+04  0.89585384175E+02 0.  0.
    5000000    2    1    2    0    0  0.15389292945E+03 -0.29455603346E+03 -0.14634210526E+04  0.16163262995E+04  0.60038590828E+03 0.  0.
         23    2    4    4    0    0 -0.21468769550E+03 -0.54754351483E+02 -0.54750038005E+03  0.59627754732E+03  0.81862089434E+02 0.  0.
         23    2    4    4    0    0  0.36858062494E+03 -0.23980168198E+03 -0.91592067253E+03  0.10200487522E+04  0.90731773692E+02 0.  0.
          4    1    3    3  502    0 -0.93577314311E+02  0.16402890059E+03 -0.40437311849E+03  0.44629565642E+03  0.00000000000E+00 0. -1.
         -4    1    3    3    0  502 -0.60315615135E+02  0.13052713287E+03 -0.54116997006E+03  0.55994664240E+03  0.00000000000E+00 0.  1.
         15    1    5    5    0    0 -0.11503064238E+03 -0.50677651186E+02 -0.39077312911E+03  0.41049612565E+03  0.17770000000E+01 0.  1.
        -15    1    5    5    0    0 -0.99657053116E+02 -0.40767002971E+01 -0.15672725094E+03  0.18578142167E+03  0.17770000000E+01 0. -1.
          2    1    6    6  503    0  0.21605659497E+03 -0.89235050004E+02 -0.51008743387E+03  0.56109939990E+03  0.00000000000E+00 0. -1.
         -2    1    6    6    0  503  0.15252402998E+03 -0.15056663198E+03 -0.40583323866E+03  0.45894935231E+03  0.00000000000E+00 0.  1.
<mgrwt>
<rscale>  0 0.50309124E+03</rscale>
<asrwt>0</asrwt>
<pdfrwt beam="1">  1        1 0.38704100E+00 0.50309124E+03</pdfrwt>
<pdfrwt beam="2">  1       -1 0.16431111E-01 0.50309124E+03</pdfrwt>
<totfact> 0.40641892E+01</totfact>
</mgrwt>
</event>
<event>
12    1  0.9321077E-008  0.2340771E+04  0.7818608E-02  0.8462017E-01
         -2   -1    0    0    0  501 -0.00000000000E+00  0.00000000000E+00  0.32163758702E+04  0.32163758702E+04  0.00000000000E+00 0.  1.
          2   -1    0    0  501    0  0.00000000000E+00 -0.00000000000E+00 -0.23673796572E+04  0.23673796572E+04  0.00000000000E+00 0. -1.
         23    2    1    2    0    0 -0.11317938554E+04  0.20343033092E+04 -0.10157110590E+04  0.25413042310E+04  0.84917335512E+02 0.  0.
    5000000    2    1    2    0    0  0.11317938554E+04 -0.20343033092E+04  0.18647072721E+04  0.30424512964E+04  0.60002449572E+03 0.  0.
         23    2    4    4    0    0  0.79645804947E+02 -0.13994899567E+03  0.41150547621E+01  0.18483886375E+03  0.90660334450E+02 0.  0.
         23    2    4    4    0    0  0.10521480505E+04 -0.18943543135E+04  0.18605922173E+04  0.28576124326E+04  0.92475028101E+02 0.  0.
          2    1    3    3  502    0 -0.56228171610E+03  0.10795239490E+04 -0.50243479738E+03  0.13168042415E+04  0.00000000000E+00 0.  1.
         -2    1    3    3    0  502 -0.56951213931E+03  0.95477936018E+03 -0.51327626163E+03  0.12244999895E+04  0.00000000000E+00 0. -1.
         15    1    5    5    0    0 -0.18254571283E+02 -0.75548551947E+01  0.36521028680E+01  0.20169303263E+02  0.17770000000E+01 0. -1.
        -15    1    5    5    0    0  0.97900376231E+02 -0.13239414047E+03  0.46295189415E+00  0.16466956049E+03  0.17770000000E+01 0.  1.
          2    1    6    6  503    0  0.22237157192E+03 -0.46328643538E+03  0.47397499357E+03  0.69909636798E+03  0.00000000000E+00 0. -1.
         -2    1    6    6    0  503  0.82977647854E+03 -0.14310678782E+04  0.13866172237E+04  0.21585160647E+04  0.00000000000E+00 0.  1.
<mgrwt>
<rscale>  0 0.23407708E+04</rscale>
<asrwt>0</asrwt>
<pdfrwt beam="1">  1        2 0.36421225E+00 0.23407708E+04</pdfrwt>
<pdfrwt beam="2">  1       -2 0.49482706E+00 0.23407708E+04</pdfrwt>
<totfact> 0.62238940E-03</totfact>
</mgrwt>
</event>
<event>
12    1  0.9321077E-008  0.3903267E+03  0.7818608E-02  0.1047182E+00
         -2   -1    0    0    0  501 -0.00000000000E+00  0.00000000000E+00  0.24815864554E+03  0.24815864554E+03  0.00000000000E+00 0.  1.
          2   -1    0    0  501    0  0.00000000000E+00 -0.00000000000E+00 -0.10942267495E+04  0.10942267495E+04  0.00000000000E+00 0. -1.
         23    2    1    2    0    0 -0.17399139424E+03 -0.73652358336E+02  0.78750885341E+02  0.22404520353E+03  0.91087189687E+02 0.  0.
    5000000    2    1    2    0    0  0.17399139424E+03  0.73652358336E+02 -0.92481898930E+03  0.11183401915E+04  0.59974740168E+03 0.  0.
         23    2    4    4    0    0  0.30737238944E+03 -0.99886439432E+02 -0.30108036023E+03  0.45092786953E+03  0.90727468993E+02 0.  0.
         23    2    4    4    0    0 -0.13338099520E+03  0.17353879777E+03 -0.62373862907E+03  0.66741232198E+03  0.92103886605E+02 0.  0.
          4    1    3    3  502    0 -0.11125435734E+03  0.21712981571E+01  0.44463881779E+02  0.11983022718E+03  0.00000000000E+00 0.  1.
         -4    1    3    3    0  502 -0.62737036903E+02 -0.75823656493E+02  0.34287003562E+02  0.10421497635E+03  0.00000000000E+00 0. -1.
         15    1    5    5    0    0  0.12975150502E+03 -0.86703861778E+02 -0.11941278507E+03  0.19650848244E+03  0.17770000000E+01 0. -1.
        -15    1    5    5    0    0  0.17762088442E+03 -0.13182577654E+02 -0.18166757516E+03  0.25441938709E+03  0.17770000000E+01 0.  1.
          1    1    6    6  503    0 -0.67422002452E+02  0.21038078933E+02 -0.20992088876E+03  0.22148387462E+03  0.00000000000E+00 0. -1.
         -1    1    6    6    0  503 -0.65958992748E+02  0.15250071883E+03 -0.41381774032E+03  0.44592844737E+03  0.00000000000E+00 0.  1.
<mgrwt>
<rscale>  0 0.39032674E+03</rscale>
<asrwt>0</asrwt>
<pdfrwt beam="1">  1        2 0.16834258E+00 0.39032674E+03</pdfrwt>
<pdfrwt beam="2">  1       -2 0.38178253E-01 0.39032674E+03</pdfrwt>
<totfact> 0.14896602E+02</totfact>
</mgrwt>
</event>
<event>
12    1  0.9321077E-008  0.9033655E+03  0.7818608E-02  0.9421384E-01
         -1   -1    0    0    0  501 -0.00000000000E+00  0.00000000000E+00  0.66415635918E+03  0.66415635918E+03  0.00000000000E+00 0.  1.
          1   -1    0    0  501    0  0.00000000000E+00 -0.00000000000E+00 -0.14579346361E+04  0.14579346361E+04  0.00000000000E+00 0. -1.
         23    2    1    2    0    0 -0.88985925360E+03  0.10520308318E+02 -0.36491618331E+03  0.96644752037E+03  0.94322959439E+02 0.  0.
    5000000    2    1    2    0    0  0.88985925360E+03 -0.10520308318E+02 -0.42886209364E+03  0.11556434749E+04  0.59969073507E+03 0.  0.
         23    2    4    4    0    0  0.19376362912E+03  0.11987857006E+02 -0.39877539879E+03  0.45256157086E+03  0.90011688445E+02 0.  0.
         23    2    4    4    0    0  0.69609562448E+03 -0.22508165324E+02 -0.30086694846E+02  0.70308190408E+03  0.91450635399E+02 0.  0.
          3    1    3    3  502    0 -0.15605115393E+03 -0.31334739550E+02 -0.50118506788E+02  0.16687028875E+03  0.00000000000E+00 0. -1.
         -3    1    3    3    0  502 -0.73380809967E+03  0.41855047868E+02 -0.31479767653E+03  0.79957723162E+03  0.00000000000E+00 0.  1.
         15    1    5    5    0    0  0.15073876251E+02  0.30186310411E+02 -0.51725256040E+02  0.61782642569E+02  0.17770000000E+01 0. -1.
        -15    1    5    5    0    0  0.17868975287E+03 -0.18198453405E+02 -0.34705014275E+03  0.39077892829E+03  0.17770000000E+01 0.  1.
          3    1    6    6  503    0  0.45930442349E+03  0.14255743477E+02 -0.51977690709E+02  0.46245590059E+03  0.00000000000E+00 0. -1.
         -3    1    6    6    0  503  0.23679120099E+03 -0.36763908801E+02  0.21890995863E+02  0.24062600349E+03  0.00000000000E+00 0.  1.
<mgrwt>
<rscale>  0 0.90336546E+03</rscale>
<asrwt>0</asrwt>
<pdfrwt beam="1">  1        1 0.22429764E+00 0.90336546E+03</pdfrwt>
<pdfrwt beam="2">  1       -1 0.10217790E+00 0.90336546E+03</pdfrwt>
<totfact> 0.64565041E+00</totfact>
</mgrwt>
</event>
<event>
12    1  0.9321077E-008  0.2130566E+04  0.7818608E-02  0.8547897E-01
         -1   -1    0    0    0  501 -0.00000000000E+00  0.00000000000E+00  0.18048908920E+04  0.18048908920E+04  0.00000000000E+00 0.  1.
          1   -1    0    0  501    0  0.00000000000E+00 -0.00000000000E+00 -0.26497747572E+04  0.26497747572E+04  0.00000000000E+00 0. -1.
         23    2    1    2    0    0 -0.19310107531E+04 -0.87897649364E+03 -0.94411576522E+02  0.21255739310E+04  0.88027187133E+02 0.  0.
    5000000    2    1    2    0    0  0.19310107531E+04  0.87897649364E+03 -0.75047228862E+03  0.23290917182E+04  0.60004780726E+03 0.  0.
         23    2    4    4    0    0  0.16874245076E+04  0.78027257444E+03 -0.44020872893E+03  0.19126380765E+04  0.90409775916E+02 0.  0.
         23    2    4    4    0    0  0.24358624551E+03  0.98703919206E+02 -0.31026355968E+03  0.41645364169E+03  0.89963528962E+02 0.  0.
          2    1    3    3  502    0 -0.13076823043E+04 -0.55192129767E+03 -0.75859418630E+02  0.14214094341E+04  0.00000000000E+00 0. -1.
         -2    1    3    3    0  502 -0.62332844876E+03 -0.32705519598E+03 -0.18552157893E+02  0.70416449698E+03  0.00000000000E+00 0.  1.
         15    1    5    5    0    0  0.12224474900E+04  0.53544188200E+03 -0.28453127491E+03  0.13645647947E+04  0.17770000000E+01 0. -1.
        -15    1    5    5    0    0  0.46497701752E+03  0.24483069243E+03 -0.15567745402E+03  0.54807328178E+03  0.17770000000E+01 0.  1.
          3    1    6    6  503    0  0.12874213658E+03  0.38379959299E+01 -0.14726861529E+03  0.19564588673E+03  0.00000000000E+00 0. -1.
         -3    1    6    6    0  503  0.11484410893E+03  0.94865923276E+02 -0.16299494439E+03  0.22080775496E+03  0.00000000000E+00 0.  1.
<mgrwt>
<rscale>  0 0.21305656E+04</rscale>
<asrwt>0</asrwt>
<pdfrwt beam="1">  1        1 0.40765765E+00 0.21305656E+04</pdfrwt>
<pdfrwt beam="2">  1       -1 0.27767552E+00 0.21305656E+04</pdfrwt>
<totfact> 0.43022142E-02</totfact>
</mgrwt>
</event>
<event>
12    1  0.9321077E-008  0.1243541E+04  0.7818608E-02  0.9075577E-01
         -1   -1    0    0    0  501 -0.00000000000E+00  0.00000000000E+00  0.36210370501E+03  0.36210370501E+03  0.00000000000E+00 0.  1.
          1   -1    0    0  501    0  0.00000000000E+00 -0.00000000000E+00 -0.46863490387E+04  0.46863490387E+04  0.00000000000E+00 0. -1.
         23    2    1    2    0    0 -0.37950662772E+03  0.11706316889E+04 -0.21572537094E+04  0.24851934678E+04  0.89661441266E+02 0.  0.
    5000000    2    1    2    0    0  0.37950662772E+03 -0.11706316889E+04 -0.21669916243E+04  0.25632592760E+04  0.60003465284E+03 0.  0.
         23    2    4    4    0    0  0.21484334379E+03 -0.91035549238E+03 -0.10842691534E+04  0.14348133369E+04  0.90249264910E+02 0.  0.
         23    2    4    4    0    0  0.16466328393E+03 -0.26027619647E+03 -0.10827224709E+04  0.11284459391E+04  0.79022736554E+02 0.  0.
          4    1    3    3  502    0 -0.14312910070E+03  0.32645136700E+03 -0.58426818340E+03  0.68441635327E+03  0.00000000000E+00 0. -1.
         -4    1    3    3    0  502 -0.23637752702E+03  0.84418032185E+03 -0.15729855260E+04  0.18007771145E+04  0.00000000000E+00 0.  1.
         15    1    5    5    0    0  0.15401774102E+03 -0.57327719516E+03 -0.74665449065E+03  0.95386806906E+03  0.17770000000E+01 0.  1.
        -15    1    5    5    0    0  0.60825602770E+02 -0.33707829722E+03 -0.33761466273E+03  0.48094526781E+03  0.17770000000E+01 0. -1.
          3    1    6    6  503    0  0.10360488423E+03 -0.22406292860E+03 -0.82778140979E+03  0.86380566703E+03  0.00000000000E+00 0. -1.
         -3    1    6    6    0  503  0.61058399700E+02 -0.36213267877E+02 -0.25494106113E+03  0.26464027206E+03  0.00000000000E+00 0.  1.
<mgrwt>
<rscale>  0 0.12435407E+04</rscale>
<asrwt>0</asrwt>
<pdfrwt beam="1">  1        1 0.72097678E+00 0.12435407E+04</pdfrwt>
<pdfrwt beam="2">  1       -1 0.55708262E-01 0.12435407E+04</pdfrwt>
<totfact> 0.68582720E-02</totfact>
</mgrwt>
</event>
<event>
12    1  0.9321077E-008  0.4103817E+03  0.7818608E-02  0.1040243E+00
          2   -1    0    0  501    0  0.00000000000E+00  0.00000000000E+00  0.28312872769E+04  0.28312872769E+04  0.00000000000E+00 0. -1.
         -2   -1    0    0    0  501 -0.00000000000E+00 -0.00000000000E+00 -0.97372853507E+02  0.97372853507E+02  0.00000000000E+00 0.  1.
         23    2    1    2    0    0 -0.23931262621E+03 -0.14133748665E+03  0.36033480650E+03  0.46470956157E+03  0.94164673013E+02 0.  0.
    5000000    2    1    2    0    0  0.23931262621E+03  0.14133748665E+03  0.23735796169E+04  0.24639505688E+04  0.59993782155E+03 0.  0.
         23    2    4    4    0    0 -0.79253887907E+02 -0.77374070366E+02  0.16227601665E+03  0.21729433093E+03  0.92819152995E+02 0.  0.
         23    2    4    4    0    0  0.31856651412E+03  0.21871155702E+03  0.22113036002E+04  0.22466562379E+04  0.91001482132E+02 0.  0.
          2    1    3    3  502    0 -0.22720993602E+03 -0.11389582990E+03  0.35088695381E+03  0.43326466444E+03  0.00000000000E+00 0. -1.
         -2    1    3    3    0  502 -0.12102690193E+02 -0.27441656756E+02  0.94478526852E+01  0.31444897134E+02  0.00000000000E+00 0.  1.
         15    1    5    5    0    0 -0.42040403939E+02  0.11939030729E+02  0.75799073376E+02  0.87513389100E+02  0.17770000000E+01 0.  1.
        -15    1    5    5    0    0 -0.37213483969E+02 -0.89313101095E+02  0.86476943272E+02  0.12978094183E+03  0.17770000000E+01 0. -1.
          3    1    6    6  503    0  0.12820136893E+03  0.14076921572E+03  0.11381416589E+04  0.11539575377E+04  0.00000000000E+00 0. -1.
         -3    1    6    6    0  503  0.19036514519E+03  0.77942341297E+02  0.10731619413E+04  0.10926987002E+04  0.00000000000E+00 0.  1.
<mgrwt>
<rscale>  0 0.41038174E+03</rscale>
<asrwt>0</asrwt>
<pdfrwt beam="1">  1        2 0.43558260E+00 0.41038174E+03</pdfrwt>
<pdfrwt beam="2">  1       -2 0.14980441E-01 0.41038174E+03</pdfrwt>
<totfact> 0.86485432E+01</totfact>
</mgrwt>
</event>
<event>
12    1  0.9321077E-008  0.1428568E+04  0.7818608E-02  0.8933395E-01
         -2   -1    0    0    0  501 -0.00000000000E+00  0.00000000000E+00  0.61550516740E+03  0.61550516740E+03  0.00000000000E+00 0.  1.
          2   -1    0    0  501    0  0.00000000000E+00 -0.00000000000E+00 -0.37113813622E+04  0.37113813622E+04  0.00000000000E+00 0. -1.
         23    2    1    2    0    0 -0.13218118007E+04  0.50021924005E+03 -0.19547676359E+04  0.24138532058E+04  0.90360743912E+02 0.  0.
    5000000    2    1    2    0    0  0.13218118007E+04 -0.50021924005E+03 -0.11411085589E+04  0.19130333238E+04  0.60013501021E+03 0.  0.
         23    2    4    4    0    0  0.49023485050E+03 -0.47646160759E+02 -0.71088648845E+03  0.86960283381E+03  0.90824687336E+02 0.  0.
         23    2    4    4    0    0  0.83157695016E+03 -0.45257307930E+03 -0.43022207041E+03  0.10434304900E+04  0.85519246287E+02 0.  0.
          2    1    3    3  502    0 -0.70945760375E+03  0.27119619928E+03 -0.11268872817E+04  0.13589526908E+04  0.00000000000E+00 0. -1.
         -2    1    3    3    0  502 -0.61235419692E+03  0.22902304077E+03 -0.82788035421E+03  0.10549005150E+04  0.00000000000E+00 0.  1.
         15    1    5    5    0    0  0.15915915792E+03 -0.47083364417E+02 -0.28950840818E+03  0.33371658169E+03  0.17770000000E+01 0. -1.
        -15    1    5    5    0    0  0.33107569258E+03 -0.56279634115E+00 -0.42137808027E+03  0.53588625212E+03  0.17770000000E+01 0.  1.
          2    1    6    6  503    0  0.92282614376E+02 -0.51691051018E+02 -0.19695927787E+02  0.10759170620E+03  0.00000000000E+00 0. -1.
         -2    1    6    6    0  503  0.73929433579E+03 -0.40088202828E+03 -0.41052614262E+03  0.93583878382E+03  0.00000000000E+00 0.  1.
<mgrwt>
<rscale>  0 0.14285678E+04</rscale>
<asrwt>0</asrwt>
<pdfrwt beam="1">  1        2 0.57098175E+00 0.14285678E+04</pdfrwt>
<pdfrwt beam="2">  1       -2 0.94693102E-01 0.14285678E+04</pdfrwt>
<totfact> 0.52408321E-01</totfact>
</mgrwt>
</event>
<event>
12    1  0.9321077E-008  0.1550259E+04  0.7818608E-02  0.8851702E-01
          2   -1    0    0  501    0  0.00000000000E+00  0.00000000000E+00  0.13588438674E+04  0.13588438674E+04  0.00000000000E+00 0. -1.
         -2   -1    0    0    0  501 -0.00000000000E+00 -0.00000000000E+00 -0.18991023564E+04  0.18991023564E+04  0.00000000000E+00 0.  1.
         23    2    1    2    0    0  0.47372574533E+03 -0.14747063118E+04 -0.24486697894E+03  0.15706767632E+04  0.88830565584E+02 0.  0.
    5000000    2    1    2    0    0 -0.47372574533E+03  0.14747063118E+04 -0.29539151005E+03  0.16872694607E+04  0.60037263512E+03 0.  0.
         23    2    4    4    0    0 -0.19378962027E+03  0.69191008297E+03 -0.42648335813E+03  0.84067411666E+03  0.92471270261E+02 0.  0.
         23    2    4    4    0    0 -0.27993612505E+03  0.78279622878E+03  0.13109184807E+03  0.84659534401E+03  0.91675699963E+02 0.  0.
          3    1    3    3  502    0  0.41995227980E+03 -0.12545786180E+04 -0.23613979813E+03  0.13439082671E+04  0.00000000000E+00 0.  1.
         -3    1    3    3    0  502  0.53773465526E+02 -0.22012769373E+03 -0.87271808100E+01  0.22676849610E+03  0.00000000000E+00 0. -1.
         15    1    5    5    0    0 -0.12773587330E+03  0.40773330269E+03 -0.30327649332E+03  0.52396821333E+03  0.17770000000E+01 0.  1.
        -15    1    5    5    0    0 -0.66053746973E+02  0.28417678029E+03 -0.12320686480E+03  0.31670590333E+03  0.17770000000E+01 0. -1.
          1    1    6    6  503    0 -0.16199296775E+03  0.49596837638E+03  0.39613375615E+02  0.52325478641E+03  0.00000000000E+00 0. -1.
         -1    1    6    6    0  503 -0.11794315731E+03  0.28682785240E+03  0.91478472459E+02  0.32334055760E+03  0.00000000000E+00 0.  1.
<mgrwt>
<rscale>  0 0.15502594E+04</rscale>
<asrwt>0</asrwt>
<pdfrwt beam="1">  1        2 0.20905290E+00 0.15502594E+04</pdfrwt>
<pdfrwt beam="2">  1       -2 0.29216960E+00 0.15502594E+04</pdfrwt>
<totfact> 0.50843812E-01</totfact>
</mgrwt>
</event>
<event>
12    1  0.9321077E-008  0.4339813E+03  0.7818608E-02  0.1032610E+00
         -1   -1    0    0    0  501 -0.00000000000E+00  0.00000000000E+00  0.22399840157E+03  0.22399840157E+03  0.00000000000E+00 0.  1.
          1   -1    0    0  501    0  0.00000000000E+00 -0.00000000000E+00 -0.43170713100E+04  0.43170713100E+04  0.00000000000E+00 0. -1.
         23    2    1    2    0    0 -0.56177336474E+02  0.42251514773E+03 -0.36627188150E+04  0.36885554393E+04  0.90868959069E+02 0.  0.
    5000000    2    1    2    0    0  0.56177336474E+02 -0.42251514773E+03 -0.43035409344E+03  0.85251427230E+03  0.59991749061E+03 0.  0.
         23    2    4    4    0    0 -0.86628782437E+01 -0.17359133466E+03  0.12692084861E+03  0.23253674042E+03  0.88064958423E+02 0.  0.
         23    2    4    4    0    0  0.64840214718E+02 -0.24892381307E+03 -0.55727494205E+03  0.61997753188E+03  0.87461196206E+02 0.  0.
          4    1    3    3  502    0 -0.57957691504E+02  0.17423406112E+03 -0.13184833552E+04  0.13312080829E+04  0.00000000000E+00 0.  1.
         -4    1    3    3    0  502  0.17803550293E+01  0.24828108661E+03 -0.23442354598E+04  0.23573473563E+04  0.00000000000E+00 0. -1.
         15    1    5    5    0    0  0.70683758003E+01 -0.11982022538E+03  0.35291150872E+02  0.12512182625E+03  0.17770000000E+01 0.  1.
        -15    1    5    5    0    0 -0.15731254044E+02 -0.53771109281E+02  0.91629697742E+02  0.10741491416E+03  0.17770000000E+01 0. -1.
          2    1    6    6  503    0  0.39324741525E+02 -0.20835568812E+03 -0.36785631264E+03  0.42459014922E+03  0.00000000000E+00 0. -1.
         -2    1    6    6    0  503  0.25515473193E+02 -0.40568124949E+02 -0.18941862941E+03  0.19538738266E+03  0.00000000000E+00 0.  1.
<mgrwt>
<rscale>  0 0.43398125E+03</rscale>
<asrwt>0</asrwt>
<pdfrwt beam="1">  1        1 0.66416485E+00 0.43398125E+03</pdfrwt>
<pdfrwt beam="2">  1       -1 0.34461291E-01 0.43398125E+03</pdfrwt>
<totfact> 0.48801437E-01</totfact>
</mgrwt>
</event>
<event>
12    1  0.9321077E-008  0.1074220E+04  0.7818608E-02  0.9230690E-01
         -4   -1    0    0    0  501 -0.00000000000E+00  0.00000000000E+00  0.14923284543E+04  0.14923284543E+04  0.00000000000E+00 0.  1.
          4   -1    0    0  501    0  0.00000000000E+00 -0.00000000000E+00 -0.91037438135E+03  0.91037438135E+03  0.00000000000E+00 0. -1.
         23    2    1    2    0    0 -0.93462286431E+03  0.34714460391E+03 -0.17125049832E+03  0.10162634923E+04  0.97136389051E+02 0.  0.
    5000000    2    1    2    0    0  0.93462286431E+03 -0.34714460391E+03  0.75320457126E+03  0.13864393433E+04  0.60072260825E+03 0.  0.
         23    2    4    4    0    0  0.13155791640E+03  0.13566642227E+03  0.22157952629E+03  0.30530472757E+03  0.91654932792E+02 0.  0.
         23    2    4    4    0    0  0.80306494791E+03 -0.48281102618E+03  0.53162504497E+03  0.10811346158E+04  0.90592888297E+02 0.  0.
          2    1    3    3  502    0 -0.26965840469E+03  0.14101282047E+03 -0.75495706990E+02  0.31352810485E+03  0.00000000000E+00 0. -1.
         -2    1    3    3    0  502 -0.66496445962E+03  0.20613178344E+03 -0.95754791334E+02  0.70273538745E+03  0.00000000000E+00 0.  1.
         15    1    5    5    0    0  0.10564743822E+03  0.43699714207E+02  0.12595755934E+03  0.17011616827E+03  0.17770000000E+01 0.  1.
        -15    1    5    5    0    0  0.25910478178E+02  0.91966708062E+02  0.95621966950E+02  0.13518855929E+03  0.17770000000E+01 0. -1.
          3    1    6    6  503    0  0.61773245950E+03 -0.39253460495E+03  0.37595976462E+03  0.82281380167E+03  0.00000000000E+00 0. -1.
         -3    1    6    6    0  503  0.18533248841E+03 -0.90276421234E+02  0.15566528036E+03  0.25832081410E+03  0.00000000000E+00 0.  1.
<mgrwt>
<rscale>  0 0.10742199E+04</rscale>
<asrwt>0</asrwt>
<pdfrwt beam="1">  1        4 0.14005760E+00 0.10742199E+04</pdfrwt>
<pdfrwt beam="2">  1       -4 0.22958899E+00 0.10742199E+04</pdfrwt>
<totfact> 0.57935827E-02</totfact>
</mgrwt>
</event>
<event>
12    1  0.9321077E-008  0.5550079E+03  0.7818608E-02  0.1000341E+00
         -2   -1    0    0    0  501 -0.00000000000E+00  0.00000000000E+00  0.37123406609E+03  0.37123406609E+03  0.00000000000E+00 0. -1.
          2   -1    0    0  501    0  0.00000000000E+00 -0.00000000000E+00 -0.10786449944E+04  0.10786449944E+04  0.00000000000E+00 0.  1.
         23    2    1    2    0    0  0.40223889104E+03  0.27091984042E+03 -0.25707678293E+03  0.55658127686E+03  0.92198481750E+02 0.  0.
    5000000    2    1    2    0    0 -0.40223889104E+03 -0.27091984042E+03 -0.45033414535E+03  0.89329778359E+03  0.59998866848E+03 0.  0.
         23    2    4    4    0    0 -0.42870586736E+03 -0.29009125010E+03 -0.54486592171E+03  0.75717583449E+03  0.92166792307E+02 0.  0.
         23    2    4    4    0    0  0.26466976318E+02  0.19171409679E+02  0.94531776355E+02  0.13612194910E+03  0.92330301106E+02 0.  0.
          1    1    3    3  502    0  0.26788271539E+03  0.21501113631E+03 -0.21444229618E+03  0.40494004042E+03  0.00000000000E+00 0. -1.
         -1    1    3    3    0  502  0.13435617565E+03  0.55908704105E+02 -0.42634486746E+02  0.15164123644E+03  0.00000000000E+00 0.  1.
         15    1    5    5    0    0 -0.23331558257E+03 -0.20401217014E+03 -0.35707913603E+03  0.47282744606E+03  0.17770000000E+01 0.  1.
        -15    1    5    5    0    0 -0.19539028478E+03 -0.86079079962E+02 -0.18778678568E+03  0.28434838843E+03  0.17770000000E+01 0. -1.
          3    1    6    6  503    0  0.60934603128E+02  0.15508032383E+02  0.66744417940E+02  0.91697013326E+02  0.00000000000E+00 0. -1.
         -3    1    6    6    0  503 -0.34467626810E+02  0.36633772964E+01  0.27787358414E+02  0.44424935777E+02  0.00000000000E+00 0.  1.
<mgrwt>
<rscale>  0 0.55500787E+03</rscale>
<asrwt>0</asrwt>
<pdfrwt beam="1">  1        2 0.16594538E+00 0.55500787E+03</pdfrwt>
<pdfrwt beam="2">  1       -2 0.57112934E-01 0.55500787E+03</pdfrwt>
<totfact> 0.66813567E+01</totfact>
</mgrwt>
</event>
<event>
12    1  0.9321077E-008  0.7072291E+03  0.7818608E-02  0.9704949E-01
          2   -1    0    0  501    0  0.00000000000E+00  0.00000000000E+00  0.49475218946E+03  0.49475218946E+03  0.00000000000E+00 0. -1.
         -2   -1    0    0    0  501 -0.00000000000E+00 -0.00000000000E+00 -0.15073404602E+04  0.15073404602E+04  0.00000000000E+00 0.  1.
         23    2    1    2    0    0  0.16377279614E+03 -0.67921132454E+03 -0.10922788714E+03  0.71199232238E+03  0.82781541818E+02 0.  0.
    5000000    2    1    2    0    0 -0.16377279614E+03  0.67921132454E+03 -0.90336038360E+03  0.12901003273E+04  0.60012442015E+03 0.  0.
         23    2    4    4    0    0 -0.10747644542E+03  0.45913474026E+03 -0.15793788994E+03  0.50558660370E+03  0.91200552267E+02 0.  0.
         23    2    4    4    0    0 -0.56296350718E+02  0.22007658428E+03 -0.74542249367E+03  0.78451372358E+03  0.90576522160E+02 0.  0.
          1    1    3    3  502    0  0.12218809517E+03 -0.35048866330E+03 -0.77062970277E+02  0.37909225143E+03  0.00000000000E+00 0. -1.
         -1    1    3    3    0  502  0.41584700970E+02 -0.32872266124E+03 -0.32164916864E+02  0.33290007096E+03  0.00000000000E+00 0.  1.
         15    1    5    5    0    0 -0.26280985433E+02  0.71415419749E+02  0.70990517775E+01  0.76448719010E+02  0.17770000000E+01 0.  1.
        -15    1    5    5    0    0 -0.81195459988E+02  0.38771932051E+03 -0.16503694171E+03  0.42913788469E+03  0.17770000000E+01 0. -1.
          1    1    6    6  503    0 -0.75614152091E+02  0.17328373114E+03 -0.51529857413E+03  0.54888739462E+03  0.00000000000E+00 0. -1.
         -1    1    6    6    0  503  0.19317801373E+02  0.46792853141E+02 -0.23012391954E+03  0.23562632896E+03  0.00000000000E+00 0.  1.
<mgrwt>
<rscale>  0 0.70722908E+03</rscale>
<asrwt>0</asrwt>
<pdfrwt beam="1">  1        2 0.76115721E-01 0.70722908E+03</pdfrwt>
<pdfrwt beam="2">  1       -2 0.23189853E+00 0.70722908E+03</pdfrwt>
<totfact> 0.53461557E+00</totfact>
</mgrwt>
</event>
<event>
12    1  0.9321077E-008  0.1085889E+04  0.7818608E-02  0.9219056E-01
         -2   -1    0    0    0  501 -0.00000000000E+00  0.00000000000E+00  0.83393025641E+03  0.83393025641E+03  0.00000000000E+00 0. -1.
          2   -1    0    0  501    0  0.00000000000E+00 -0.00000000000E+00 -0.14398724279E+04  0.14398724279E+04  0.00000000000E+00 0.  1.
         23    2    1    2    0    0  0.93478795837E+03 -0.38450184029E+03 -0.31910744181E+03  0.10638608021E+04  0.91104635179E+02 0.  0.
    5000000    2    1    2    0    0 -0.93478795837E+03  0.38450184029E+03 -0.28683472965E+03  0.12099418822E+04  0.60001250303E+03 0.  0.
         23    2    4    4    0    0 -0.53433320903E+03  0.50596146594E+03 -0.23832484061E+03  0.77886302701E+03  0.91213496292E+02 0.  0.
         23    2    4    4    0    0 -0.40045474934E+03 -0.12145962565E+03 -0.48509889045E+02  0.43107885516E+03  0.91429333921E+02 0.  0.
          2    1    3    3  502    0  0.59051387934E+03 -0.26601206711E+03 -0.16400507147E+03  0.66810682155E+03  0.00000000000E+00 0. -1.
         -2    1    3    3    0  502  0.34427407904E+03 -0.11848977318E+03 -0.15510237035E+03  0.39575398056E+03  0.00000000000E+00 0.  1.
         15    1    5    5    0    0 -0.30962571078E+02  0.66148858878E+02 -0.23408863462E+02  0.76716914407E+02  0.17770000000E+01 0.  1.
        -15    1    5    5    0    0 -0.50337063795E+03  0.43981260706E+03 -0.21491597714E+03  0.70214611260E+03  0.17770000000E+01 0. -1.
          1    1    6    6  503    0 -0.22014572357E+03 -0.69994084000E+02  0.19002308853E+02  0.23178524358E+03  0.00000000000E+00 0. -1.
         -1    1    6    6    0  503 -0.18030902577E+03 -0.51465541646E+02 -0.67512197898E+02  0.19929361158E+03  0.00000000000E+00 0.  1.
<mgrwt>
<rscale>  0 0.10858890E+04</rscale>
<asrwt>0</asrwt>
<pdfrwt beam="1">  1        2 0.22151884E+00 0.10858890E+04</pdfrwt>
<pdfrwt beam="2">  1       -2 0.12829696E+00 0.10858890E+04</pdfrwt>
<totfact> 0.60702971E+00</totfact>
</mgrwt>
</event>
<event>
12    1  0.9321077E-008  0.6655384E+03  0.7818608E-02  0.9778052E-01
          2   -1    0    0  501    0  0.00000000000E+00  0.00000000000E+00  0.88902483835E+03  0.88902483835E+03  0.00000000000E+00 0. -1.
         -2   -1    0    0    0  501 -0.00000000000E+00 -0.00000000000E+00 -0.63560020975E+03  0.63560020975E+03  0.00000000000E+00 0.  1.
         23    2    1    2    0    0  0.59485978691E+03  0.11927934671E+03  0.27363685654E+03  0.67201352962E+03  0.92947975199E+02 0.  0.
    5000000    2    1    2    0    0 -0.59485978691E+03 -0.11927934671E+03 -0.20212227946E+02  0.85261151848E+03  0.59870872605E+03 0.  0.
         23    2    4    4    0    0 -0.62319978241E+03 -0.40516838705E+02  0.14349579636E+03  0.64737531261E+03  0.92109547704E+02 0.  0.
         23    2    4    4    0    0  0.28339995504E+02 -0.78762508008E+02 -0.16370802431E+03  0.20523620588E+03  0.91186045901E+02 0.  0.
          2    1    3    3  502    0  0.19365679442E+03  0.63608713826E+02  0.13234114679E+03  0.24302921971E+03  0.00000000000E+00 0. -1.
         -2    1    3    3    0  502  0.40120299250E+03  0.55670632887E+02  0.14129570975E+03  0.42898430991E+03  0.00000000000E+00 0.  1.
         15    1    5    5    0    0 -0.52405161285E+03 -0.36697668206E+01  0.13540718186E+03  0.54127795332E+03  0.17770000000E+01 0. -1.
        -15    1    5    5    0    0 -0.99148169566E+02 -0.36847071884E+02  0.80886144996E+01  0.10609735929E+03  0.17770000000E+01 0.  1.
          2    1    6    6  503    0 -0.31700173286E+01 -0.48649823324E+02 -0.15268391379E+03  0.16027860696E+03  0.00000000000E+00 0. -1.
         -2    1    6    6    0  503  0.31510012832E+02 -0.30112684684E+02 -0.11024110518E+02  0.44957598916E+02  0.00000000000E+00 0.  1.
<mgrwt>
<rscale>  0 0.66553842E+03</rscale>
<asrwt>0</asrwt>
<pdfrwt beam="1">  1        2 0.13677305E+00 0.66553842E+03</pdfrwt>
<pdfrwt beam="2">  1       -2 0.97784647E-01 0.66553842E+03</pdfrwt>
<totfact> 0.26596286E+01</totfact>
</mgrwt>
</event>
<event>
12    1  0.9321077E-008  0.7577963E+03  0.7818608E-02  0.9623198E-01
         -2   -1    0    0    0  501 -0.00000000000E+00  0.00000000000E+00  0.48454983175E+03  0.48454983175E+03  0.00000000000E+00 0.  1.
          2   -1    0    0  501    0  0.00000000000E+00 -0.00000000000E+00 -0.12823040614E+04  0.12823040614E+04  0.00000000000E+00 0. -1.
         23    2    1    2    0    0  0.40243994903E+03 -0.52011255781E+03 -0.48876216630E+03  0.82445533091E+03  0.91450271155E+02 0.  0.
    5000000    2    1    2    0    0 -0.40243994903E+03  0.52011255781E+03 -0.30899206337E+03  0.94239856225E+03  0.60013662573E+03 0.  0.
         23    2    4    4    0    0 -0.13145799860E+03 -0.10336592102E+03 -0.64449227072E+01  0.19134268624E+03  0.92761886151E+02 0.  0.
         23    2    4    4    0    0 -0.27098195043E+03  0.62347847883E+03 -0.30254714067E+03  0.75105587602E+03  0.10194864171E+03 0.  0.
          1    1    3    3  502    0  0.32546919399E+03 -0.35601724719E+03 -0.36688259523E+03  0.60603738764E+03  0.00000000000E+00 0. -1.
         -1    1    3    3    0  502  0.76970755043E+02 -0.16409531062E+03 -0.12187957107E+03  0.21841794327E+03  0.00000000000E+00 0.  1.
         15    1    5    5    0    0 -0.25346454631E+02 -0.86418406744E+01  0.34129568960E+02  0.43417846319E+02  0.17770000000E+01 0.  1.
        -15    1    5    5    0    0 -0.10611154397E+03 -0.94724080350E+02 -0.40574491667E+02  0.14792483992E+03  0.17770000000E+01 0. -1.
          2    1    6    6  503    0 -0.21814123038E+03  0.42792376877E+03 -0.25139646713E+03  0.54212962653E+03  0.00000000000E+00 0. -1.
         -2    1    6    6    0  503 -0.52840720052E+02  0.19555471006E+03 -0.51150673531E+02  0.20892624949E+03  0.00000000000E+00 0.  1.
<mgrwt>
<rscale>  0 0.75779627E+03</rscale>
<asrwt>0</asrwt>
<pdfrwt beam="1">  1        2 0.19727755E+00 0.75779627E+03</pdfrwt>
<pdfrwt beam="2">  1       -2 0.74546128E-01 0.75779627E+03</pdfrwt>
<totfact> 0.27924005E+01</totfact>
</mgrwt>
</event>
<event>
12    1  0.9321077E-008  0.6202191E+03  0.7818608E-02  0.9864324E-01
          2   -1    0    0  501    0  0.00000000000E+00  0.00000000000E+00  0.10135666997E+04  0.10135666997E+04  0.00000000000E+00 0. -1.
         -2   -1    0    0    0  501 -0.00000000000E+00 -0.00000000000E+00 -0.45739773453E+03  0.45739773453E+03  0.00000000000E+00 0.  1.
         23    2    1    2    0    0  0.17016625093E+03 -0.46256929032E+03 -0.23809575611E+02  0.50174949839E+03  0.90877730708E+02 0.  0.
    5000000    2    1    2    0    0 -0.17016625093E+03  0.46256929032E+03  0.57997854077E+03  0.96921493583E+03  0.60006298235E+03 0.  0.
         23    2    4    4    0    0  0.66259084963E+02  0.49028377307E+03  0.27561662508E+03  0.57290411707E+03  0.86522591622E+02 0.  0.
         23    2    4    4    0    0 -0.23642533589E+03 -0.27714482748E+02  0.30436191569E+03  0.39631081876E+03  0.88096863400E+02 0.  0.
          4    1    3    3  502    0  0.48411974976E+02 -0.22067969226E+03 -0.44082345709E+02  0.23018796471E+03  0.00000000000E+00 0. -1.
         -4    1    3    3    0  502  0.12175427595E+03 -0.24188959806E+03  0.20272770098E+02  0.27156153367E+03  0.00000000000E+00 0.  1.
         15    1    5    5    0    0  0.23175879838E+02  0.84247570457E+02  0.86327655437E+02  0.12284297439E+03  0.17770000000E+01 0. -1.
        -15    1    5    5    0    0  0.43083205125E+02  0.40603620261E+03  0.18928896964E+03  0.45006114268E+03  0.17770000000E+01 0.  1.
          1    1    6    6  503    0 -0.25111996145E+01 -0.13407953385E+02  0.43747453760E+02  0.45824873682E+02  0.00000000000E+00 0. -1.
         -1    1    6    6    0  503 -0.23391413628E+03 -0.14306529364E+02  0.26061446193E+03  0.35048594508E+03  0.00000000000E+00 0.  1.
<mgrwt>
<rscale>  0 0.62021913E+03</rscale>
<asrwt>0</asrwt>
<pdfrwt beam="1">  1        2 0.15593334E+00 0.62021913E+03</pdfrwt>
<pdfrwt beam="2">  1       -2 0.70368883E-01 0.62021913E+03</pdfrwt>
<totfact> 0.46671998E+01</totfact>
</mgrwt>
</event>
<event>
12    1  0.9321077E-008  0.9168691E+03  0.7818608E-02  0.9404736E-01
          1   -1    0    0  501    0  0.00000000000E+00  0.00000000000E+00  0.15009222435E+04  0.15009222435E+04  0.00000000000E+00 0. -1.
         -1   -1    0    0    0  501 -0.00000000000E+00 -0.00000000000E+00 -0.81915663660E+03  0.81915663660E+03  0.00000000000E+00 0.  1.
         23    2    1    2    0    0  0.17134533604E+03  0.85144462510E+03 -0.25374943304E+03  0.90959542456E+03  0.93047771698E+02 0.  0.
    5000000    2    1    2    0    0 -0.17134533604E+03 -0.85144462510E+03  0.93551503991E+03  0.14104834555E+04  0.59996501114E+03 0.  0.
         23    2    4    4    0    0  0.84015971255E+02 -0.59247506649E+03  0.81621315119E+03  0.10158901158E+04  0.87996769479E+02 0.  0.
         23    2    4    4    0    0 -0.25536130729E+03 -0.25896955861E+03  0.11930188871E+03  0.39459333968E+03  0.95897515697E+02 0.  0.
          2    1    3    3  502    0  0.86813170041E+02  0.54642749803E+03 -0.20131499575E+03  0.58876758115E+03  0.00000000000E+00 0. -1.
         -2    1    3    3    0  502  0.84532165995E+02  0.30501712707E+03 -0.52434437281E+02  0.32082784341E+03  0.00000000000E+00 0.  1.
         15    1    5    5    0    0  0.56813333753E+02 -0.38234291651E+03  0.45414701743E+03  0.59637784321E+03  0.17770000000E+01 0. -1.
        -15    1    5    5    0    0  0.27202637502E+02 -0.21013214998E+03  0.36206613376E+03  0.41951227263E+03  0.17770000000E+01 0.  1.
          2    1    6    6  503    0 -0.19550943241E+03 -0.17501629854E+03  0.12637378613E+03  0.29124727764E+03  0.00000000000E+00 0.  1.
         -2    1    6    6    0  503 -0.59851874882E+02 -0.83953260077E+02 -0.70718974175E+01  0.10334606203E+03  0.00000000000E+00 0. -1.
<mgrwt>
<rscale>  0 0.91686913E+03</rscale>
<asrwt>0</asrwt>
<pdfrwt beam="1">  1        1 0.23091111E+00 0.91686913E+03</pdfrwt>
<pdfrwt beam="2">  1       -1 0.12602410E+00 0.91686913E+03</pdfrwt>
<totfact> 0.36416096E+00</totfact>
</mgrwt>
</event>
<event>
12    1  0.9321077E-008  0.7587030E+03  0.7818608E-02  0.9621795E-01
         -2   -1    0    0    0  501 -0.00000000000E+00  0.00000000000E+00  0.29840880662E+04  0.29840880662E+04  0.00000000000E+00 0.  1.
          2   -1    0    0  501    0  0.00000000000E+00 -0.00000000000E+00 -0.36707446469E+03  0.36707446469E+03  0.00000000000E+00 0. -1.
         23    2    1    2    0    0 -0.62343331824E+03 -0.20786593077E+03  0.87745173061E+02  0.66987083293E+03  0.95657566080E+02 0.  0.
    5000000    2    1    2    0    0  0.62343331824E+03  0.20786593077E+03  0.25292684285E+04  0.26812916980E+04  0.60020749660E+03 0.  0.
         23    2    4    4    0    0 -0.66194266669E+02 -0.37707036089E+02  0.15780355488E+03  0.19777311929E+03  0.91699199945E+02 0.  0.
         23    2    4    4    0    0  0.68962758491E+03  0.24557296686E+03  0.23714648736E+04  0.24835185787E+04  0.90147635279E+02 0.  0.
          4    1    3    3  502    0 -0.48426401273E+02 -0.42884969023E+02  0.20706948703E+02  0.67919177210E+02  0.00000000000E+00 0.  1.
         -4    1    3    3    0  502 -0.57500691697E+03 -0.16498096175E+03  0.67038224359E+02  0.60195165572E+03  0.00000000000E+00 0. -1.
         15    1    5    5    0    0  0.88243026338E+01 -0.43034887817E+02  0.59979607343E+02  0.74367875540E+02  0.17770000000E+01 0. -1.
        -15    1    5    5    0    0 -0.75018569303E+02  0.53278517281E+01  0.97823947539E+02  0.12340524375E+03  0.17770000000E+01 0.  1.
          3    1    6    6  503    0  0.11310212022E+03  0.13768675145E+02  0.30200050196E+03  0.32277851415E+03  0.00000000000E+00 0. -1.
         -3    1    6    6    0  503  0.57652546469E+03  0.23180429172E+03  0.20694643717E+04  0.21607400646E+04  0.00000000000E+00 0.  1.
<mgrwt>
<rscale>  0 0.75870298E+03</rscale>
<asrwt>0</asrwt>
<pdfrwt beam="1">  1        2 0.56472996E-01 0.75870298E+03</pdfrwt>
<pdfrwt beam="2">  1       -2 0.45909046E+00 0.75870298E+03</pdfrwt>
<totfact> 0.28154851E-01</totfact>
</mgrwt>
</event>
<event>
12    1  0.9321077E-008  0.8547290E+03  0.7818608E-02  0.9484012E-01
          1   -1    0    0  501    0  0.00000000000E+00  0.00000000000E+00  0.16092517942E+04  0.16092517942E+04  0.00000000000E+00 0. -1.
         -1   -1    0    0    0  501 -0.00000000000E+00 -0.00000000000E+00 -0.63329982102E+03  0.63329982102E+03  0.00000000000E+00 0.  1.
         23    2    1    2    0    0 -0.32471833159E+03 -0.77731797206E+03  0.85099210568E+03  0.12007921521E+04  0.89716241837E+02 0.  0.
    5000000    2    1    2    0    0  0.32471833159E+03  0.77731797206E+03  0.12495986745E+03  0.10417594631E+04  0.59998548806E+03 0.  0.
         23    2    4    4    0    0  0.14419826787E+03  0.28069064843E+03  0.33173826012E+03  0.46747000965E+03  0.94326857905E+02 0.  0.
         23    2    4    4    0    0  0.18052006372E+03  0.49662732364E+03 -0.20677839266E+03  0.57428945344E+03  0.88458355564E+02 0.  0.
          2    1    3    3  502    0 -0.67051356801E+02 -0.23323497829E+03  0.20392704367E+03  0.31698687463E+03  0.00000000000E+00 0. -1.
         -2    1    3    3    0  502 -0.25766697479E+03 -0.54408299377E+03  0.64706506201E+03  0.88380527747E+03  0.00000000000E+00 0.  1.
         15    1    5    5    0    0  0.33746153084E+02  0.16758987458E+03  0.18231075733E+03  0.24993106825E+03  0.17770000000E+01 0. -1.
        -15    1    5    5    0    0  0.11045211479E+03  0.11310077385E+03  0.14942750279E+03  0.21753894140E+03  0.17770000000E+01 0.  1.
          1    1    6    6  503    0  0.38404099614E+02  0.23362994895E+03 -0.86880458988E+02  0.25220238315E+03  0.00000000000E+00 0. -1.
         -1    1    6    6    0  503  0.14211596410E+03  0.26299737469E+03 -0.11989793367E+03  0.32208707028E+03  0.00000000000E+00 0.  1.
<mgrwt>
<rscale>  0 0.85472903E+03</rscale>
<asrwt>0</asrwt>
<pdfrwt beam="1">  1        1 0.24757720E+00 0.85472903E+03</pdfrwt>
<pdfrwt beam="2">  1       -1 0.97430742E-01 0.85472903E+03</pdfrwt>
<totfact> 0.57066922E+00</totfact>
</mgrwt>
</event>
<event>
12    1  0.9321077E-008  0.1107342E+04  0.7818608E-02  0.9198065E-01
         -2   -1    0    0    0  501 -0.00000000000E+00  0.00000000000E+00  0.16743816710E+04  0.16743816710E+04  0.00000000000E+00 0.  1.
          2   -1    0    0  501    0  0.00000000000E+00 -0.00000000000E+00 -0.10305686755E+04  0.10305686755E+04  0.00000000000E+00 0. -1.
         23    2    1    2    0    0 -0.77333287267E+03 -0.72460966975E+03 -0.36406443085E+03  0.11241685379E+04  0.90050465024E+02 0.  0.
    5000000    2    1    2    0    0  0.77333287267E+03  0.72460966975E+03  0.10078774264E+04  0.15807818086E+04  0.59995942732E+03 0.  0.
         23    2    4    4    0    0  0.49163770742E+03  0.16414443139E+03  0.70156414624E+03  0.87689405510E+03  0.89999460416E+02 0.  0.
         23    2    4    4    0    0  0.28169516526E+03  0.56046523836E+03  0.30631328012E+03  0.70388775351E+03  0.90314419813E+02 0.  0.
          4    1    3    3  502    0 -0.35681530866E+03 -0.39597194741E+03 -0.18462681280E+03  0.56409042505E+03  0.00000000000E+00 0. -1.
         -4    1    3    3    0  502 -0.41651756401E+03 -0.32863772235E+03 -0.17943761804E+03  0.56007811281E+03  0.00000000000E+00 0.  1.
         15    1    5    5    0    0  0.20432616557E+03  0.91933700328E+02  0.23910340603E+03  0.32768061233E+03  0.17770000000E+01 0.  1.
        -15    1    5    5    0    0  0.28731154185E+03  0.72210731059E+02  0.46246074020E+03  0.54921344277E+03  0.17770000000E+01 0. -1.
          1    1    6    6  503    0 -0.35463921780E+01  0.13004256667E+02 -0.23897421144E+01  0.13689355584E+02  0.00000000000E+00 0. -1.
         -1    1    6    6    0  503  0.28524155744E+03  0.54746098170E+03  0.30870302223E+03  0.69019839793E+03  0.00000000000E+00 0.  1.
<mgrwt>
<rscale>  0 0.11073423E+04</rscale>
<asrwt>0</asrwt>
<pdfrwt beam="1">  1        2 0.15854903E+00 0.11073423E+04</pdfrwt>
<pdfrwt beam="2">  1       -2 0.25759718E+00 0.11073423E+04</pdfrwt>
<totfact> 0.13684360E+00</totfact>
</mgrwt>
</event>
<event>
12    1  0.9321077E-008  0.1095456E+04  0.7818608E-02  0.9209632E-01
          1   -1    0    0  501    0  0.00000000000E+00  0.00000000000E+00  0.64465402740E+03  0.64465402740E+03  0.00000000000E+00 0. -1.
         -1   -1    0    0    0  501 -0.00000000000E+00 -0.00000000000E+00 -0.19739313549E+04  0.19739313549E+04  0.00000000000E+00 0.  1.
         23    2    1    2    0    0  0.99322581913E+03 -0.20121727044E+03 -0.31659093779E+03  0.10653660568E+04  0.88255852299E+02 0.  0.
    5000000    2    1    2    0    0 -0.99322581913E+03  0.20121727044E+03 -0.10126863897E+04  0.15532193255E+04  0.59997552564E+03 0.  0.
         23    2    4    4    0    0 -0.88370614278E+03  0.36163676615E+03 -0.87422765608E+03  0.12977106320E+04  0.89784142353E+02 0.  0.
         23    2    4    4    0    0 -0.10951967635E+03 -0.16041949571E+03 -0.13845873363E+03  0.25550869350E+03  0.91569085530E+02 0.  0.
          1    1    3    3  502    0  0.85791326949E+03 -0.20409958608E+03 -0.27761223719E+03  0.92452169972E+03  0.00000000000E+00 0. -1.
         -1    1    3    3    0  502  0.13531254964E+03  0.28823156401E+01 -0.38978700598E+02  0.14084435712E+03  0.00000000000E+00 0.  1.
         15    1    5    5    0    0 -0.29572413487E+03  0.16729684695E+03 -0.31274846933E+03  0.46179623400E+03  0.17770000000E+01 0. -1.
        -15    1    5    5    0    0 -0.58798200790E+03  0.19433991920E+03 -0.56147918675E+03  0.83591439795E+03  0.17770000000E+01 0.  1.
          4    1    6    6  503    0 -0.11589317340E+03 -0.97558607302E+02 -0.94731149361E+02  0.17866980763E+03  0.00000000000E+00 0. -1.
         -4    1    6    6    0  503  0.63734970482E+01 -0.62860888409E+02 -0.43727584269E+02  0.76838885873E+02  0.00000000000E+00 0.  1.
<mgrwt>
<rscale>  0 0.10954560E+04</rscale>
<asrwt>0</asrwt>
<pdfrwt beam="1">  1        1 0.99177542E-01 0.10954560E+04</pdfrwt>
<pdfrwt beam="2">  1       -1 0.30368175E+00 0.10954560E+04</pdfrwt>
<totfact> 0.96527797E-01</totfact>
</mgrwt>
</event>
<event>
12    1  0.9321077E-008  0.1771271E+03  0.7818608E-02  0.1170613E+00
          2   -1    0    0  501    0  0.00000000000E+00  0.00000000000E+00  0.10118529231E+04  0.10118529231E+04  0.00000000000E+00 0. -1.
         -2   -1    0    0    0  501 -0.00000000000E+00 -0.00000000000E+00 -0.12324623737E+03  0.12324623737E+03  0.00000000000E+00 0.  1.
         23    2    1    2    0    0  0.62451792921E+01  0.37482652412E+02  0.17606810644E+03  0.20294253804E+03  0.93497294864E+02 0.  0.
    5000000    2    1    2    0    0 -0.62451792921E+01 -0.37482652412E+02  0.71253857932E+03  0.93215662245E+03  0.59980062543E+03 0.  0.
         23    2    4    4    0    0  0.44900656461E+02 -0.15025586630E+03  0.74947033329E+03  0.77113191392E+03  0.91355097722E+02 0.  0.
         23    2    4    4    0    0 -0.51145835753E+02  0.11277321389E+03 -0.36931753970E+02  0.16102470853E+03  0.96079696188E+02 0.  0.
          1    1    3    3  502    0  0.79811589283E+01  0.45646976809E+01  0.16897420526E+03  0.16922416319E+03  0.00000000000E+00 0. -1.
         -1    1    3    3    0  502 -0.17359796362E+01  0.32917954731E+02  0.70939011744E+01  0.33718374855E+02  0.00000000000E+00 0.  1.
         15    1    5    5    0    0  0.49315312018E+01 -0.60271906886E+01  0.12465711496E+01  0.80844725383E+01  0.17770000000E+01 0.  1.
        -15    1    5    5    0    0  0.39969125259E+02 -0.14422867562E+03  0.74822376214E+03  0.76304744138E+03  0.17770000000E+01 0. -1.
          4    1    6    6  503    0 -0.40516015000E+02  0.12890050190E+03 -0.41167640363E+02  0.14125035035E+03  0.00000000000E+00 0. -1.
         -4    1    6    6    0  503 -0.10629820753E+02 -0.16127288009E+02  0.42358863930E+01  0.19774358177E+02  0.00000000000E+00 0.  1.
<mgrwt>
<rscale>  0 0.17712708E+03</rscale>
<asrwt>0</asrwt>
<pdfrwt beam="1">  1        2 0.15566968E+00 0.17712708E+03</pdfrwt>
<pdfrwt beam="2">  1       -2 0.18960960E-01 0.17712708E+03</pdfrwt>
<totfact> 0.60219808E+02</totfact>
</mgrwt>
</event>
<event>
12    1  0.9321077E-008  0.9215991E+03  0.7818608E-02  0.9398977E-01
          2   -1    0    0  501    0  0.00000000000E+00  0.00000000000E+00  0.62650368993E+03  0.62650368993E+03  0.00000000000E+00 0. -1.
         -2   -1    0    0    0  501 -0.00000000000E+00 -0.00000000000E+00 -0.13791728928E+04  0.13791728928E+04  0.00000000000E+00 0.  1.
         23    2    1    2    0    0 -0.24866497278E+03 -0.79176155358E+03 -0.34667152684E+03  0.90401349541E+03  0.91316077157E+02 0.  0.
    5000000    2    1    2    0    0  0.24866497278E+03  0.79176155358E+03 -0.40599767604E+03  0.11016630873E+04  0.60008900892E+03 0.  0.
         23    2    4    4    0    0 -0.15221280842E+03  0.79902896949E+02 -0.30059493568E+02  0.19769807987E+03  0.92885658968E+02 0.  0.
         23    2    4    4    0    0  0.40087778120E+03  0.71185865663E+03 -0.37593818248E+03  0.90396500746E+03  0.91528548492E+02 0.  0.
          1    1    3    3  502    0 -0.20892136109E+03 -0.74276065144E+03 -0.31484101445E+03  0.83334649746E+03  0.00000000000E+00 0. -1.
         -1    1    3    3    0  502 -0.39743611684E+02 -0.49000902141E+02 -0.31830512391E+02  0.70666997951E+02  0.00000000000E+00 0.  1.
         15    1    5    5    0    0 -0.29634864726E+02 -0.16938151370E+02 -0.23221299391E+02  0.41322060132E+02  0.17770000000E+01 0. -1.
        -15    1    5    5    0    0 -0.12257794370E+03  0.96841048318E+02 -0.68381941762E+01  0.15637601974E+03  0.17770000000E+01 0.  1.
          2    1    6    6  503    0  0.62908186126E+02  0.82459503585E+02 -0.78708722619E+02  0.13020012530E+03  0.00000000000E+00 0. -1.
         -2    1    6    6    0  503  0.33796959507E+03  0.62939915305E+03 -0.29722945986E+03  0.77376488216E+03  0.00000000000E+00 0.  1.
<mgrwt>
<rscale>  0 0.92159914E+03</rscale>
<asrwt>0</asrwt>
<pdfrwt beam="1">  1        2 0.96385182E-01 0.92159914E+03</pdfrwt>
<pdfrwt beam="2">  1       -2 0.21218045E+00 0.92159914E+03</pdfrwt>
<totfact> 0.52301178E+00</totfact>
</mgrwt>
</event>
<event>
12    1  0.9321077E-008  0.4190046E+03  0.7818608E-02  0.1037391E+00
          1   -1    0    0  501    0  0.00000000000E+00  0.00000000000E+00  0.90539393549E+03  0.90539393549E+03  0.00000000000E+00 0. -1.
         -1   -1    0    0    0  501 -0.00000000000E+00 -0.00000000000E+00 -0.30761771726E+03  0.30761771726E+03  0.00000000000E+00 0.  1.
         23    2    1    2    0    0 -0.11724601213E+03 -0.27970099201E+03  0.40558712044E+01  0.31609086032E+03  0.88981512652E+02 0.  0.
    5000000    2    1    2    0    0  0.11724601213E+03  0.27970099201E+03  0.59372034702E+03  0.89692079243E+03  0.59998648746E+03 0.  0.
         23    2    4    4    0    0  0.27584225466E+03  0.13637955084E+03  0.77255211313E+02  0.33082200493E+03  0.93736331982E+02 0.  0.
         23    2    4    4    0    0 -0.15859624253E+03  0.14332144118E+03  0.51646513571E+03  0.56609878750E+03  0.89653762644E+02 0.  0.
          1    1    3    3  502    0 -0.74003838141E+02 -0.24540398486E+03  0.23919361940E+02  0.25743313640E+03  0.00000000000E+00 0. -1.
         -1    1    3    3    0  502 -0.43242173986E+02 -0.34297007159E+02 -0.19863490735E+02  0.58657723918E+02  0.00000000000E+00 0.  1.
         15    1    5    5    0    0  0.64812558410E+02  0.34511444482E+02 -0.21491534876E+02  0.76529414790E+02  0.17770000000E+01 0. -1.
        -15    1    5    5    0    0  0.21102969625E+03  0.10186810635E+03  0.98746746189E+02  0.25429259014E+03  0.17770000000E+01 0.  1.
          2    1    6    6  503    0 -0.26023222916E+02  0.38878656595E+01  0.18242936569E+02  0.32017625848E+02  0.00000000000E+00 0. -1.
         -2    1    6    6    0  503 -0.13257301962E+03  0.13943357552E+03  0.49822219914E+03  0.53408116165E+03  0.00000000000E+00 0.  1.
<mgrwt>
<rscale>  0 0.41900461E+03</rscale>
<asrwt>0</asrwt>
<pdfrwt beam="1">  1        1 0.13929137E+00 0.41900461E+03</pdfrwt>
<pdfrwt beam="2">  1       -1 0.47325803E-01 0.41900461E+03</pdfrwt>
<totfact> 0.84897491E+01</totfact>
</mgrwt>
</event>
<event>
12    1  0.9321077E-008  0.4292562E+03  0.7818608E-02  0.1034095E+00
         -2   -1    0    0    0  501 -0.00000000000E+00  0.00000000000E+00  0.56889068983E+03  0.56889068983E+03  0.00000000000E+00 0.  1.
          2   -1    0    0  501    0  0.00000000000E+00 -0.00000000000E+00 -0.55858762627E+03  0.55858762627E+03  0.00000000000E+00 0. -1.
         23    2    1    2    0    0  0.32511711400E+03  0.46804673175E+02 -0.22034568862E+03  0.40540733225E+03  0.88944180839E+02 0.  0.
    5000000    2    1    2    0    0 -0.32511711400E+03 -0.46804673175E+02  0.23064875218E+03  0.72207098385E+03  0.60024648569E+03 0.  0.
         23    2    4    4    0    0  0.49396181318E+02 -0.11073267826E+03 -0.12277156664E+03  0.19530462189E+03  0.91484036829E+02 0.  0.
         23    2    4    4    0    0 -0.37451329532E+03  0.63928005081E+02  0.35342031882E+03  0.52676636196E+03  0.90718686769E+02 0.  0.
          3    1    3    3  502    0  0.10890531012E+03  0.20254504436E+01 -0.12242871254E+03  0.16386963927E+03  0.00000000000E+00 0. -1.
         -3    1    3    3    0  502  0.21621180388E+03  0.44779222732E+02 -0.97916976083E+02  0.24153769298E+03  0.00000000000E+00 0.  1.
         15    1    5    5    0    0  0.66862356896E+02 -0.80679950434E+02 -0.53238635536E+02  0.11754717867E+03  0.17770000000E+01 0. -1.
        -15    1    5    5    0    0 -0.17466175578E+02 -0.30052727823E+02 -0.69532931101E+02  0.77757443216E+02  0.17770000000E+01 0.  1.
          3    1    6    6  503    0 -0.35177148942E+03  0.36660207548E+02  0.33317341262E+03  0.48589265735E+03  0.00000000000E+00 0. -1.
         -3    1    6    6    0  503 -0.22741805898E+02  0.27267797534E+02  0.20246906204E+02  0.40873704611E+02  0.00000000000E+00 0.  1.
<mgrwt>
<rscale>  0 0.42925620E+03</rscale>
<asrwt>0</asrwt>
<pdfrwt beam="1">  1        2 0.85936557E-01 0.42925620E+03</pdfrwt>
<pdfrwt beam="2">  1       -2 0.87521645E-01 0.42925620E+03</pdfrwt>
<totfact> 0.63311181E+01</totfact>
</mgrwt>
</event>
<event>
12    1  0.9321077E-008  0.3749097E+03  0.7818608E-02  0.1052831E+00
          1   -1    0    0  501    0  0.00000000000E+00  0.00000000000E+00  0.11447873676E+04  0.11447873676E+04  0.00000000000E+00 0.  1.
         -1   -1    0    0    0  501 -0.00000000000E+00 -0.00000000000E+00 -0.25888931918E+03  0.25888931918E+03  0.00000000000E+00 0. -1.
         23    2    1    2    0    0  0.12851321952E+03  0.27269355133E+03  0.59085376812E+03  0.67009330613E+03  0.95075985903E+02 0.  0.
    5000000    2    1    2    0    0 -0.12851321952E+03 -0.27269355133E+03  0.29504428028E+03  0.73358338062E+03  0.60017999673E+03 0.  0.
         23    2    4    4    0    0  0.70873288673E+02 -0.17417942153E+03 -0.12783047197E+03  0.24710604981E+03  0.96743353042E+02 0.  0.
         23    2    4    4    0    0 -0.19938650820E+03 -0.98514129798E+02  0.42287475226E+03  0.48647733081E+03  0.91526629315E+02 0.  0.
          1    1    3    3  502    0  0.27247058131E+02  0.88822410255E+02  0.10141016277E+03  0.13753488231E+03  0.00000000000E+00 0. -1.
         -1    1    3    3    0  502  0.10126616139E+03  0.18387114107E+03  0.48944360535E+03  0.53255842382E+03  0.00000000000E+00 0.  1.
         15    1    5    5    0    0 -0.21659653798E+02 -0.51436826389E+02 -0.19915721188E+02  0.59284748385E+02  0.17770000000E+01 0.  1.
        -15    1    5    5    0    0  0.92532942472E+02 -0.12274259514E+03 -0.10791475079E+03  0.18782130143E+03  0.17770000000E+01 0. -1.
          4    1    6    6  503    0 -0.41488824702E+02  0.13736078871E+02  0.50990156283E+02  0.67156522213E+02  0.00000000000E+00 0. -1.
         -4    1    6    6    0  503 -0.15789768349E+03 -0.11225020867E+03  0.37188459597E+03  0.41932080860E+03  0.00000000000E+00 0.  1.
<mgrwt>
<rscale>  0 0.37490968E+03</rscale>
<asrwt>0</asrwt>
<pdfrwt beam="1">  1        1 0.17612113E+00 0.37490968E+03</pdfrwt>
<pdfrwt beam="2">  1       -1 0.39829127E-01 0.37490968E+03</pdfrwt>
<totfact> 0.77260856E+01</totfact>
</mgrwt>
</event>
<event>
12    1  0.9321077E-008  0.9077883E+03  0.7818608E-02  0.9415898E-01
         -2   -1    0    0    0  501 -0.00000000000E+00  0.00000000000E+00  0.33294636947E+03  0.33294636947E+03  0.00000000000E+00 0.  1.
          2   -1    0    0  501    0  0.00000000000E+00 -0.00000000000E+00 -0.26008519247E+04  0.26008519247E+04  0.00000000000E+00 0. -1.
         23    2    1    2    0    0 -0.81874914863E+03 -0.48641798851E+02 -0.81027732909E+03  0.11568738451E+04  0.95349622110E+02 0.  0.
    5000000    2    1    2    0    0  0.81874914863E+03  0.48641798851E+02 -0.14576282262E+04  0.17769244491E+04  0.60005354686E+03 0.  0.
         23    2    4    4    0    0  0.71292549852E+03  0.25482071032E+03 -0.11641020686E+04  0.13916245025E+04  0.91042677109E+02 0.  0.
         23    2    4    4    0    0  0.10582365011E+03 -0.20617891147E+03 -0.29352615760E+03  0.38529994660E+03  0.92682550657E+02 0.  0.
          3    1    3    3  502    0 -0.48986689066E+03 -0.51078709656E+01 -0.53866149182E+03  0.72811528186E+03  0.00000000000E+00 0. -1.
         -3    1    3    3    0  502 -0.32888225797E+03 -0.43533927885E+02 -0.27161583726E+03  0.42875856322E+03  0.00000000000E+00 0.  1.
         15    1    5    5    0    0  0.70368535853E+03  0.23879562272E+03 -0.11447877293E+04  0.13648217965E+04  0.17770000000E+01 0. -1.
        -15    1    5    5    0    0  0.92401399958E+01  0.16025087601E+02 -0.19314339225E+02  0.26802705992E+02  0.17770000000E+01 0.  1.
          4    1    6    6  503    0  0.10636183335E+03 -0.20531555381E+03 -0.29998643510E+03  0.37876005264E+03  0.00000000000E+00 0. -1.
         -4    1    6    6    0  503 -0.53818324145E+00 -0.86335766169E+00  0.64602775002E+01  0.65398939619E+01  0.00000000000E+00 0.  1.
<mgrwt>
<rscale>  0 0.90778831E+03</rscale>
<asrwt>0</asrwt>
<pdfrwt beam="1">  1        2 0.40013108E+00 0.90778831E+03</pdfrwt>
<pdfrwt beam="2">  1       -2 0.51222517E-01 0.90778831E+03</pdfrwt>
<totfact> 0.11235595E+01</totfact>
</mgrwt>
</event>
<event>
12    1  0.9321077E-008  0.9176792E+03  0.7818608E-02  0.9403747E-01
          2   -1    0    0  501    0  0.00000000000E+00  0.00000000000E+00  0.25689351909E+04  0.25689351909E+04  0.00000000000E+00 0. -1.
         -2   -1    0    0    0  501 -0.00000000000E+00 -0.00000000000E+00 -0.42682170353E+03  0.42682170353E+03  0.00000000000E+00 0.  1.
         23    2    1    2    0    0 -0.40471777921E+03 -0.74261323391E+03  0.33876451178E+03  0.91554002938E+03  0.90450290018E+02 0.  0.
    5000000    2    1    2    0    0  0.40471777921E+03  0.74261323391E+03  0.18033489756E+04  0.20802168651E+04  0.59996981751E+03 0.  0.
         23    2    4    4    0    0 -0.20862961422E+02 -0.39027275966E+02  0.42613861588E+03  0.43780241828E+03  0.90102419940E+02 0.  0.
         23    2    4    4    0    0  0.42558074063E+03  0.78164050988E+03  0.13772103597E+04  0.16424144468E+04  0.93466499967E+02 0.  0.
          3    1    3    3  502    0 -0.20659967294E+03 -0.33006485107E+03  0.19727898597E+03  0.43651486696E+03  0.00000000000E+00 0. -1.
         -3    1    3    3    0  502 -0.19811810627E+03 -0.41254838284E+03  0.14148552581E+03  0.47902516242E+03  0.00000000000E+00 0.  1.
         15    1    5    5    0    0  0.24959282549E+02  0.13166510622E+02  0.17331506993E+03  0.17560636087E+03  0.17770000000E+01 0.  1.
        -15    1    5    5    0    0 -0.45822243971E+02 -0.52193786588E+02  0.25282354596E+03  0.26219605741E+03  0.17770000000E+01 0. -1.
          4    1    6    6  503    0  0.64091583574E+02  0.14310800127E+03  0.30841950803E+03  0.34599165315E+03  0.00000000000E+00 0. -1.
         -4    1    6    6    0  503  0.36148915706E+03  0.63853250860E+03  0.10687908517E+04  0.12964227936E+04  0.00000000000E+00 0.  1.
<mgrwt>
<rscale>  0 0.91767921E+03</rscale>
<asrwt>0</asrwt>
<pdfrwt beam="1">  1        2 0.39522079E+00 0.91767921E+03</pdfrwt>
<pdfrwt beam="2">  1       -2 0.65664879E-01 0.91767921E+03</pdfrwt>
<totfact> 0.69413446E+00</totfact>
</mgrwt>
</event>
<event>
12    1  0.9321077E-008  0.1255582E+04  0.7818608E-02  0.9065550E-01
          2   -1    0    0  501    0  0.00000000000E+00  0.00000000000E+00  0.20269270297E+04  0.20269270297E+04  0.00000000000E+00 0. -1.
         -2   -1    0    0    0  501 -0.00000000000E+00 -0.00000000000E+00 -0.23499061273E+04  0.23499061273E+04  0.00000000000E+00 0.  1.
         23    2    1    2    0    0  0.82257021659E+03 -0.93378033646E+03  0.15875825498E+04  0.20191467408E+04  0.89262143680E+02 0.  0.
    5000000    2    1    2    0    0 -0.82257021659E+03  0.93378033646E+03 -0.19105616474E+04  0.23576864162E+04  0.59989328257E+03 0.  0.
         23    2    4    4    0    0 -0.23497377905E+03  0.15042141025E+03 -0.90451552160E+03  0.95079534872E+03  0.89577836707E+02 0.  0.
         23    2    4    4    0    0 -0.58759643754E+03  0.78335892622E+03 -0.10060461258E+04  0.14068910675E+04  0.91065293828E+02 0.  0.
          1    1    3    3  502    0  0.73764945992E+03 -0.85824743609E+03  0.14051227111E+04  0.18041854729E+04  0.00000000000E+00 0. -1.
         -1    1    3    3    0  502  0.84920756673E+02 -0.75532900373E+02  0.18245983870E+03  0.21496126788E+03  0.00000000000E+00 0.  1.
         15    1    5    5    0    0 -0.22112349570E+03  0.11669001459E+03 -0.70639196443E+03  0.74933632302E+03  0.17770000000E+01 0. -1.
        -15    1    5    5    0    0 -0.13850283355E+02  0.33731395653E+02 -0.19812355717E+03  0.20145902570E+03  0.17770000000E+01 0.  1.
          3    1    6    6  503    0 -0.45026133368E+03  0.59379281281E+03 -0.70796588919E+03  0.10278817410E+04  0.00000000000E+00 0. -1.
         -3    1    6    6    0  503 -0.13733510385E+03  0.18956611341E+03 -0.29808023662E+03  0.37900932649E+03  0.00000000000E+00 0.  1.
<mgrwt>
<rscale>  0 0.12555822E+04</rscale>
<asrwt>0</asrwt>
<pdfrwt beam="1">  1        2 0.31183493E+00 0.12555822E+04</pdfrwt>
<pdfrwt beam="2">  1       -2 0.36152402E+00 0.12555822E+04</pdfrwt>
<totfact> 0.82636008E-02</totfact>
</mgrwt>
</event>
<event>
12    1  0.9321077E-008  0.8667666E+03  0.7818608E-02  0.9468106E-01
          1   -1    0    0  501    0  0.00000000000E+00  0.00000000000E+00  0.17780465571E+04  0.17780465571E+04  0.00000000000E+00 0. -1.
         -1   -1    0    0    0  501 -0.00000000000E+00 -0.00000000000E+00 -0.55092839996E+03  0.55092839996E+03  0.00000000000E+00 0.  1.
         23    2    1    2    0    0  0.72521195875E+03  0.25341744855E+03  0.11023142887E+04  0.13463901574E+04  0.86699923131E+02 0.  0.
    5000000    2    1    2    0    0 -0.72521195875E+03 -0.25341744855E+03  0.12480386840E+03  0.98258479956E+03  0.59978670743E+03 0.  0.
         23    2    4    4    0    0 -0.80134033905E+03 -0.24401558248E+03  0.57324905222E+02  0.84551258370E+03  0.99576307204E+02 0.  0.
         23    2    4    4    0    0  0.76128380292E+02 -0.94018660727E+01  0.67478963178E+02  0.13707221586E+03  0.91386303781E+02 0.  0.
          3    1    3    3  502    0  0.24135222167E+03  0.41729427289E+02  0.34502266721E+03  0.42312277284E+03  0.00000000000E+00 0. -1.
         -3    1    3    3    0  502  0.48385973709E+03  0.21168802126E+03  0.75729162148E+03  0.92326738461E+03  0.00000000000E+00 0.  1.
         15    1    5    5    0    0 -0.17132506311E+03 -0.90031934857E+02 -0.76746781418E+01  0.19370101951E+03  0.17770000000E+01 0. -1.
        -15    1    5    5    0    0 -0.63001527594E+03 -0.15398364762E+03  0.64999583364E+02  0.65181156419E+03  0.17770000000E+01 0.  1.
          1    1    6    6  503    0  0.19984762628E+02 -0.46800686843E+02  0.37700189561E+02  0.63332450760E+02  0.00000000000E+00 0. -1.
         -1    1    6    6    0  503  0.56143617665E+02  0.37398820771E+02  0.29778773617E+02  0.73739765104E+02  0.00000000000E+00 0.  1.
<mgrwt>
<rscale>  0 0.86676664E+03</rscale>
<asrwt>0</asrwt>
<pdfrwt beam="1">  1        1 0.27354562E+00 0.86676664E+03</pdfrwt>
<pdfrwt beam="2">  1       -1 0.84758216E-01 0.86676664E+03</pdfrwt>
<totfact> 0.59624822E+00</totfact>
</mgrwt>
</event>
<event>
12    1  0.9321077E-008  0.5612693E+03  0.7818608E-02  0.9989187E-01
         -2   -1    0    0    0  501 -0.00000000000E+00  0.00000000000E+00  0.28961422958E+03  0.28961422958E+03  0.00000000000E+00 0.  1.
          2   -1    0    0  501    0  0.00000000000E+00 -0.00000000000E+00 -0.16030410968E+04  0.16030410968E+04  0.00000000000E+00 0. -1.
         23    2    1    2    0    0  0.48060236164E+03  0.17620521276E+03 -0.79061125252E+03  0.94640795466E+03  0.92708991030E+02 0.  0.
    5000000    2    1    2    0    0 -0.48060236164E+03 -0.17620521276E+03 -0.52281561468E+03  0.94624737171E+03  0.60001751182E+03 0.  0.
         23    2    4    4    0    0 -0.47232200756E+03 -0.19177744812E+03 -0.12025007017E+03  0.53152268593E+03  0.90496507358E+02 0.  0.
         23    2    4    4    0    0 -0.82803540767E+01  0.15572235364E+02 -0.40256554451E+03  0.41472468578E+03  0.98114670620E+02 0.  0.
          3    1    3    3  502    0  0.26998830594E+03  0.11743032558E+03 -0.52933690976E+03  0.60570713282E+03  0.00000000000E+00 0. -1.
         -3    1    3    3    0  502  0.21061405570E+03  0.58774887180E+02 -0.26127434275E+03  0.34070082184E+03  0.00000000000E+00 0.  1.
         15    1    5    5    0    0 -0.20510321744E+03 -0.12697156839E+03 -0.35778184716E+02  0.24386952498E+03  0.17770000000E+01 0. -1.
        -15    1    5    5    0    0 -0.26721879012E+03 -0.64805879735E+02 -0.84471885454E+02  0.28765316094E+03  0.17770000000E+01 0.  1.
          3    1    6    6  503    0  0.11557921853E+02 -0.36100232390E+02 -0.96183899227E+02  0.10338353257E+03  0.00000000000E+00 0. -1.
         -3    1    6    6    0  503 -0.19838275930E+02  0.51672467754E+02 -0.30638164528E+03  0.31134115321E+03  0.00000000000E+00 0.  1.
<mgrwt>
<rscale>  0 0.56126925E+03</rscale>
<asrwt>0</asrwt>
<pdfrwt beam="1">  1        2 0.24662171E+00 0.56126925E+03</pdfrwt>
<pdfrwt beam="2">  1       -2 0.44556035E-01 0.56126925E+03</pdfrwt>
<totfact> 0.55549937E+01</totfact>
</mgrwt>
</event>
<event>
12    1  0.9321077E-008  0.3750227E+03  0.7818608E-02  0.1052789E+00
         -2   -1    0    0    0  501 -0.00000000000E+00  0.00000000000E+00  0.14200526041E+03  0.14200526041E+03  0.00000000000E+00 0.  1.
          2   -1    0    0  501    0  0.00000000000E+00 -0.00000000000E+00 -0.12140643221E+04  0.12140643221E+04  0.00000000000E+00 0. -1.
         23    2    1    2    0    0 -0.14865293294E+03  0.27883661714E+02 -0.10533828650E+03  0.20830499847E+03  0.97054751166E+02 0.  0.
    5000000    2    1    2    0    0  0.14865293294E+03 -0.27883661714E+02 -0.96672077515E+03  0.11477645840E+04  0.59994940628E+03 0.  0.
         23    2    4    4    0    0 -0.20994126165E+03  0.21369410948E+02 -0.50148451622E+03  0.55131143543E+03  0.89025803892E+02 0.  0.
         23    2    4    4    0    0  0.35859419459E+03 -0.49253072661E+02 -0.46523625892E+03  0.59645314856E+03  0.91081942505E+02 0.  0.
          2    1    3    3  502    0 -0.10211001389E+03 -0.68781516059E+01 -0.18764570723E+02  0.10404745561E+03  0.00000000000E+00 0.  1.
         -2    1    3    3    0  502 -0.46542919051E+02  0.34761813320E+02 -0.86573715777E+02  0.10425754286E+03  0.00000000000E+00 0. -1.
         15    1    5    5    0    0 -0.12631758591E+03 -0.13518652139E+02 -0.37327871833E+03  0.39430831307E+03  0.17770000000E+01 0. -1.
        -15    1    5    5    0    0 -0.83623675736E+02  0.34888063086E+02 -0.12820579789E+03  0.15700312236E+03  0.17770000000E+01 0.  1.
          1    1    6    6  503    0  0.10742609458E+03 -0.55027533332E+02 -0.12815720474E+03  0.17604733553E+03  0.00000000000E+00 0. -1.
         -1    1    6    6    0  503  0.25116810001E+03  0.57744606705E+01 -0.33707905418E+03  0.42040581303E+03  0.00000000000E+00 0.  1.
<mgrwt>
<rscale>  0 0.37502269E+03</rscale>
<asrwt>0</asrwt>
<pdfrwt beam="1">  1        2 0.18677912E+00 0.37502269E+03</pdfrwt>
<pdfrwt beam="2">  1       -2 0.21846963E-01 0.37502269E+03</pdfrwt>
<totfact> 0.35177732E+02</totfact>
</mgrwt>
</event>
<event>
12    1  0.9321077E-008  0.4912582E+03  0.7818608E-02  0.1016086E+00
          1   -1    0    0  501    0  0.00000000000E+00  0.00000000000E+00  0.54627645966E+03  0.54627645966E+03  0.00000000000E+00 0. -1.
         -1   -1    0    0    0  501 -0.00000000000E+00 -0.00000000000E+00 -0.54452690959E+03  0.54452690959E+03  0.00000000000E+00 0.  1.
         23    2    1    2    0    0 -0.28261849171E+03 -0.15186363227E+03 -0.19028359359E+03  0.38382609633E+03  0.90437003341E+02 0.  0.
    5000000    2    1    2    0    0  0.28261849171E+03  0.15186363227E+03  0.19203314366E+03  0.70697727292E+03  0.60000363458E+03 0.  0.
         23    2    4    4    0    0  0.19234390242E+03  0.36941694199E+03  0.97814671959E+02  0.43734348179E+03  0.90755480183E+02 0.  0.
         23    2    4    4    0    0  0.90274589294E+02 -0.21755330972E+03  0.94218471701E+02  0.26963379114E+03  0.91358178993E+02 0.  0.
          2    1    3    3  502    0 -0.27889300607E+03 -0.12981679538E+03 -0.16169670110E+03  0.34753349816E+03  0.00000000000E+00 0.  1.
         -2    1    3    3    0  502 -0.37254856440E+01 -0.22046836884E+02 -0.28586892487E+02  0.36292598170E+02  0.00000000000E+00 0. -1.
         15    1    5    5    0    0  0.31561727866E+01  0.70583597047E+01  0.19608077845E+02  0.21152217712E+02  0.17770000000E+01 0.  1.
        -15    1    5    5    0    0  0.18918772963E+03  0.36235858229E+03  0.78206594114E+02  0.41619126408E+03  0.17770000000E+01 0. -1.
          4    1    6    6  503    0  0.51013429520E+02 -0.10793620331E+03  0.95983651543E+02  0.15318438347E+03  0.00000000000E+00 0.  1.
         -4    1    6    6    0  503  0.39261159774E+02 -0.10961710641E+03 -0.17651798420E+01  0.11644940766E+03  0.00000000000E+00 0. -1.
<mgrwt>
<rscale>  0 0.49125817E+03</rscale>
<asrwt>0</asrwt>
<pdfrwt beam="1">  1        1 0.84042532E-01 0.49125817E+03</pdfrwt>
<pdfrwt beam="2">  1       -1 0.83773371E-01 0.49125817E+03</pdfrwt>
<totfact> 0.57990788E+01</totfact>
</mgrwt>
</event>
<event>
12    1  0.9523746E-008  0.1329932E+04  0.7818608E-02  0.9006160E-01
         -2   -1    0    0    0  501 -0.00000000000E+00  0.00000000000E+00  0.10475405307E+04  0.10475405307E+04  0.00000000000E+00 0.  1.
          2   -1    0    0  501    0  0.00000000000E+00 -0.00000000000E+00 -0.17921541584E+04  0.17921541584E+04  0.00000000000E+00 0. -1.
         23    2    1    2    0    0  0.12535214553E+04 -0.20900573286E+03 -0.57617278828E+02  0.12754450750E+04  0.91874660510E+02 0.  0.
    5000000    2    1    2    0    0 -0.12535214553E+04  0.20900573286E+03 -0.68699634886E+03  0.15642496141E+04  0.59992785954E+03 0.  0.
         23    2    4    4    0    0 -0.24371436181E+03  0.27929865028E+03 -0.25935359448E+03  0.46148228161E+03  0.91088874550E+02 0.  0.
         23    2    4    4    0    0 -0.10098070934E+04 -0.70292917418E+02 -0.42764275438E+03  0.11027673325E+04  0.92552709265E+02 0.  0.
          4    1    3    3  502    0  0.43835504120E+03 -0.38237446547E+02  0.70591468981E+01  0.44007621615E+03  0.00000000000E+00 0. -1.
         -4    1    3    3    0  502  0.81516641406E+03 -0.17076828631E+03 -0.64676425727E+02  0.83536885880E+03  0.00000000000E+00 0.  1.
         15    1    5    5    0    0 -0.12562042561E+03  0.13944007476E+03 -0.18610459249E+03  0.26431440153E+03  0.17770000000E+01 0. -1.
        -15    1    5    5    0    0 -0.11809393620E+03  0.13985857552E+03 -0.73249001991E+02  0.19716788008E+03  0.17770000000E+01 0.  1.
          4    1    6    6  503    0 -0.36622118442E+03 -0.68916174639E+02 -0.16830465204E+03  0.40889344693E+03  0.00000000000E+00 0. -1.
         -4    1    6    6    0  503 -0.64358590903E+03 -0.13767427787E+01 -0.25933810234E+03  0.69387388555E+03  0.00000000000E+00 0.  1.
<mgrwt>
<rscale>  0 0.13299316E+04</rscale>
<asrwt>0</asrwt>
<pdfrwt beam="1">  1        2 0.27571602E+00 0.13299316E+04</pdfrwt>
<pdfrwt beam="2">  1       -2 0.16116008E+00 0.13299316E+04</pdfrwt>
<totfact> 0.20637397E+00</totfact>
</mgrwt>
</event>
<event>
12    1  0.9321077E-008  0.3804670E+03  0.7818608E-02  0.1050761E+00
          2   -1    0    0  501    0  0.00000000000E+00  0.00000000000E+00  0.15072403745E+03  0.15072403745E+03  0.00000000000E+00 0. -1.
         -2   -1    0    0    0  501 -0.00000000000E+00 -0.00000000000E+00 -0.21477743111E+04  0.21477743111E+04  0.00000000000E+00 0.  1.
         23    2    1    2    0    0 -0.23251573294E+03 -0.11635821833E+03 -0.13536083698E+04  0.13813817948E+04  0.91417958338E+02 0.  0.
    5000000    2    1    2    0    0  0.23251573294E+03  0.11635821833E+03 -0.64344190381E+03  0.91711655374E+03  0.59956858534E+03 0.  0.
         23    2    4    4    0    0  0.10163560368E+03 -0.14674878163E+03  0.39075800584E+01  0.20044808913E+03  0.91099760760E+02 0.  0.
         23    2    4    4    0    0  0.13088012926E+03  0.26310699996E+03 -0.64734948387E+03  0.71666846460E+03  0.90539672142E+02 0.  0.
          1    1    3    3  502    0 -0.18056610263E+03 -0.11596924752E+03 -0.12048643468E+04  0.12238264084E+04  0.00000000000E+00 0. -1.
         -1    1    3    3    0  502 -0.51949630312E+02 -0.38897080575E+00 -0.14874402306E+03  0.15755538640E+03  0.00000000000E+00 0.  1.
         15    1    5    5    0    0  0.24655138881E+02 -0.11370165680E+03  0.73006375769E+01  0.11658644720E+03  0.17770000000E+01 0. -1.
        -15    1    5    5    0    0  0.76980464798E+02 -0.33047124832E+02 -0.33930575185E+01  0.83861641937E+02  0.17770000000E+01 0.  1.
          3    1    6    6  503    0  0.29606300038E+02  0.74257872399E+02 -0.94719806161E+02  0.12394598136E+03  0.00000000000E+00 0. -1.
         -3    1    6    6    0  503  0.10127382923E+03  0.18884912756E+03 -0.55262967771E+03  0.59272248325E+03  0.00000000000E+00 0.  1.
<mgrwt>
<rscale>  0 0.38046698E+03</rscale>
<asrwt>0</asrwt>
<pdfrwt beam="1">  1        2 0.23188316E-01 0.38046698E+03</pdfrwt>
<pdfrwt beam="2">  1       -2 0.33042678E+00 0.38046698E+03</pdfrwt>
<totfact> 0.55068789E+00</totfact>
</mgrwt>
</event>
<event>
12    1  0.9321077E-008  0.8078607E+03  0.7818608E-02  0.9548708E-01
          1   -1    0    0  501    0  0.00000000000E+00  0.00000000000E+00  0.22515319655E+04  0.22515319655E+04  0.00000000000E+00 0. -1.
         -1   -1    0    0    0  501 -0.00000000000E+00 -0.00000000000E+00 -0.59052706012E+03  0.59052706012E+03  0.00000000000E+00 0.  1.
         23    2    1    2    0    0  0.95771311060E+02 -0.69896500173E+03  0.17716774880E+04  0.19091311695E+04  0.90644819486E+02 0.  0.
    5000000    2    1    2    0    0 -0.95771311060E+02  0.69896500173E+03 -0.11067258255E+03  0.93292785617E+03  0.60031803789E+03 0.  0.
         23    2    4    4    0    0 -0.29844087358E+03  0.19857349137E+03  0.20451716305E+02  0.37132617229E+03  0.94691430630E+02 0.  0.
         23    2    4    4    0    0  0.20266956252E+03  0.50039151037E+03 -0.13112429886E+03  0.56160168388E+03  0.82074687723E+02 0.  0.
          1    1    3    3  502    0  0.22439419000E+02 -0.37494857435E+03  0.10335604045E+04  0.10996986272E+04  0.00000000000E+00 0. -1.
         -1    1    3    3    0  502  0.73331892060E+02 -0.32401642738E+03  0.73811708343E+03  0.80943254225E+03  0.00000000000E+00 0.  1.
         15    1    5    5    0    0 -0.13119870644E+03  0.13017899582E+03  0.41425851796E+02  0.18941734464E+03  0.17770000000E+01 0.  1.
        -15    1    5    5    0    0 -0.16724216713E+03  0.68394495545E+02 -0.20974135491E+02  0.18190882765E+03  0.17770000000E+01 0. -1.
          3    1    6    6  503    0  0.62615142336E+02  0.22294725480E+03 -0.23758655522E+02  0.23278876301E+03  0.00000000000E+00 0. -1.
         -3    1    6    6    0  503  0.14005442018E+03  0.27744425557E+03 -0.10736564334E+03  0.32881292087E+03  0.00000000000E+00 0.  1.
<mgrwt>
<rscale>  0 0.80786072E+03</rscale>
<asrwt>0</asrwt>
<pdfrwt beam="1">  1        1 0.34638953E+00 0.80786072E+03</pdfrwt>
<pdfrwt beam="2">  1       -1 0.90850318E-01 0.80786072E+03</pdfrwt>
<totfact> 0.24874269E+00</totfact>
</mgrwt>
</event>
<event>
12    1  0.9321077E-008  0.8737791E+03  0.7818608E-02  0.9458966E-01
         -2   -1    0    0    0  501 -0.00000000000E+00  0.00000000000E+00  0.10991925171E+04  0.10991925171E+04  0.00000000000E+00 0.  1.
          2   -1    0    0  501    0  0.00000000000E+00 -0.00000000000E+00 -0.79919998120E+03  0.79919998120E+03  0.00000000000E+00 0. -1.
         23    2    1    2    0    0 -0.50200105685E+03  0.66904757091E+03  0.19473974672E+03  0.86363197709E+03  0.91142249690E+02 0.  0.
    5000000    2    1    2    0    0  0.50200105685E+03 -0.66904757091E+03  0.10525278919E+03  0.10347605212E+04  0.60001789426E+03 0.  0.
         23    2    4    4    0    0  0.43486502082E+02  0.41632554110E+02  0.14660408876E+03  0.18216571350E+03  0.89817831804E+02 0.  0.
         23    2    4    4    0    0  0.45851455477E+03 -0.71068012502E+03 -0.41351299569E+02  0.85259480772E+03  0.99529589266E+02 0.  0.
          1    1    3    3  502    0 -0.29682950052E+03  0.32123826898E+03  0.91989369634E+02  0.44694946242E+03  0.00000000000E+00 0. -1.
         -1    1    3    3    0  502 -0.20517155633E+03  0.34780930193E+03  0.10275037708E+03  0.41668251466E+03  0.00000000000E+00 0.  1.
         15    1    5    5    0    0  0.15952213160E+02  0.17555905424E+02  0.14345206195E+03  0.14541091681E+03  0.17770000000E+01 0. -1.
        -15    1    5    5    0    0  0.27534288921E+02  0.24076648686E+02  0.31520268131E+01  0.36754796699E+02  0.17770000000E+01 0.  1.
          4    1    6    6  503    0  0.24179791618E+03 -0.39169488115E+03  0.26297880210E+02  0.46106690478E+03  0.00000000000E+00 0. -1.
         -4    1    6    6    0  503  0.21671663859E+03 -0.31898524388E+03 -0.67649179778E+02  0.39152790293E+03  0.00000000000E+00 0.  1.
<mgrwt>
<rscale>  0 0.87377909E+03</rscale>
<asrwt>0</asrwt>
<pdfrwt beam="1">  1        2 0.12295384E+00 0.87377909E+03</pdfrwt>
<pdfrwt beam="2">  1       -2 0.16910654E+00 0.87377909E+03</pdfrwt>
<totfact> 0.74892992E+00</totfact>
</mgrwt>
</event>
<event>
12    1  0.9321077E-008  0.3948154E+03  0.7818608E-02  0.1045590E+00
          1   -1    0    0  501    0  0.00000000000E+00  0.00000000000E+00  0.95994436321E+03  0.95994436321E+03  0.00000000000E+00 0. -1.
         -1   -1    0    0    0  501 -0.00000000000E+00 -0.00000000000E+00 -0.29557967941E+03  0.29557967941E+03  0.00000000000E+00 0.  1.
         23    2    1    2    0    0  0.23479385431E+03 -0.81209921505E+02  0.53031748398E+03  0.59253323726E+03  0.90198658885E+02 0.  0.
    5000000    2    1    2    0    0 -0.23479385431E+03  0.81209921505E+02  0.13404719982E+03  0.66299080536E+03  0.59988744847E+03 0.  0.
         23    2    4    4    0    0 -0.24702177479E+03  0.23895096405E+03 -0.99256234926E+02  0.36841345675E+03  0.88087198314E+02 0.  0.
         23    2    4    4    0    0  0.12227920472E+02 -0.15774104254E+03  0.23330343475E+03  0.29457734861E+03  0.85519372680E+02 0.  0.
          3    1    3    3  502    0  0.45160256430E+02 -0.47070195948E+02  0.19714207414E+03  0.20765367684E+03  0.00000000000E+00 0. -1.
         -3    1    3    3    0  502  0.18963359788E+03 -0.34139725557E+02  0.33317540985E+03  0.38487956043E+03  0.00000000000E+00 0.  1.
         15    1    5    5    0    0 -0.60223412598E+02  0.13326448691E+02 -0.21539636073E+02  0.65357228451E+02  0.17770000000E+01 0.  1.
        -15    1    5    5    0    0 -0.18679836219E+03  0.22562451536E+03 -0.77716598853E+02  0.30305622830E+03  0.17770000000E+01 0. -1.
          4    1    6    6  503    0  0.15862444802E+02  0.31381458021E+01  0.39454147450E+02  0.42639123644E+02  0.00000000000E+00 0. -1.
         -4    1    6    6    0  503 -0.36345243306E+01 -0.16087918835E+03  0.19384928730E+03  0.25193822496E+03  0.00000000000E+00 0.  1.
<mgrwt>
<rscale>  0 0.39481538E+03</rscale>
<asrwt>0</asrwt>
<pdfrwt beam="1">  1        1 0.14768375E+00 0.39481538E+03</pdfrwt>
<pdfrwt beam="2">  1       -1 0.45473797E-01 0.39481538E+03</pdfrwt>
<totfact> 0.83112403E+01</totfact>
</mgrwt>
</event>
<event>
12    1  0.9321077E-008  0.1220345E+04  0.7818608E-02  0.9095232E-01
         -2   -1    0    0    0  501 -0.00000000000E+00  0.00000000000E+00  0.80246342230E+03  0.80246342230E+03  0.00000000000E+00 0.  1.
          2   -1    0    0  501    0  0.00000000000E+00 -0.00000000000E+00 -0.20697817140E+04  0.20697817140E+04  0.00000000000E+00 0. -1.
         23    2    1    2    0    0  0.26365538443E+03 -0.11276651005E+04 -0.18357295726E+03  0.11764857871E+04  0.96317370414E+02 0.  0.
    5000000    2    1    2    0    0 -0.26365538443E+03  0.11276651005E+04 -0.10837453345E+04  0.16957593492E+04  0.59996089863E+03 0.  0.
         23    2    4    4    0    0  0.15135376759E+03  0.14341876473E+03 -0.14199883006E+03  0.26880391528E+03  0.92816873965E+02 0.  0.
         23    2    4    4    0    0 -0.41500915202E+03  0.98424633581E+03 -0.94174650440E+03  0.14269554340E+04  0.91333926674E+02 0.  0.
          3    1    3    3  502    0  0.77925044630E+02 -0.48569172123E+03 -0.11086453994E+03  0.50424171473E+03  0.00000000000E+00 0. -1.
         -3    1    3    3    0  502  0.18573033980E+03 -0.64197337931E+03 -0.72708417320E+02  0.67224407235E+03  0.00000000000E+00 0.  1.
         15    1    5    5    0    0  0.12948732412E+03  0.12573856262E+03 -0.73782792894E+02  0.19499797818E+03  0.17770000000E+01 0. -1.
        -15    1    5    5    0    0  0.21866443476E+02  0.17680202110E+02 -0.68216037162E+02  0.73805937105E+02  0.17770000000E+01 0.  1.
          3    1    6    6  503    0 -0.35752542964E+03  0.91138860267E+03 -0.85134189319E+03  0.12973960987E+04  0.00000000000E+00 0. -1.
         -3    1    6    6    0  503 -0.57483722383E+02  0.72857733134E+02 -0.90404611207E+02  0.12955933522E+03  0.00000000000E+00 0.  1.
<mgrwt>
<rscale>  0 0.12203453E+04</rscale>
<asrwt>0</asrwt>
<pdfrwt beam="1">  1        2 0.31842796E+00 0.12203453E+04</pdfrwt>
<pdfrwt beam="2">  1       -2 0.12345591E+00 0.12203453E+04</pdfrwt>
<totfact> 0.29439331E+00</totfact>
</mgrwt>
</event>
<event>
12    1  0.9321077E-008  0.8301897E+03  0.7818608E-02  0.9517318E-01
          2   -1    0    0  501    0  0.00000000000E+00  0.00000000000E+00  0.68271625570E+03  0.68271625570E+03  0.00000000000E+00 0. -1.
         -2   -1    0    0    0  501 -0.00000000000E+00 -0.00000000000E+00 -0.12470889575E+04  0.12470889575E+04  0.00000000000E+00 0.  1.
         23    2    1    2    0    0  0.72624968073E+02 -0.78719210109E+03 -0.13367587827E+02  0.79465861261E+03  0.79735990575E+02 0.  0.
    5000000    2    1    2    0    0 -0.72624968073E+02  0.78719210109E+03 -0.55100511392E+03  0.11351466005E+04  0.60000448262E+03 0.  0.
         23    2    4    4    0    0 -0.21779804229E+03  0.47868430415E+03 -0.57340466788E+03  0.78334336455E+03  0.90880489472E+02 0.  0.
         23    2    4    4    0    0  0.14517307422E+03  0.30850779693E+03  0.22399553961E+02  0.35180323600E+03  0.83734667815E+02 0.  0.
          1    1    3    3  502    0  0.24708762775E+02 -0.16482101244E+03  0.28334648601E+02  0.16905425582E+03  0.00000000000E+00 0. -1.
         -1    1    3    3    0  502  0.47916205297E+02 -0.62237108865E+03 -0.41702236427E+02  0.62560435680E+03  0.00000000000E+00 0.  1.
         15    1    5    5    0    0 -0.19902996149E+03  0.42278304459E+03 -0.46110164197E+03  0.65648785999E+03  0.17770000000E+01 0. -1.
        -15    1    5    5    0    0 -0.18768080795E+02  0.55901259565E+02 -0.11230302592E+03  0.12685550456E+03  0.17770000000E+01 0.  1.
          3    1    6    6  503    0  0.96411159768E+02  0.15887172791E+03 -0.24830627148E+02  0.18748839351E+03  0.00000000000E+00 0. -1.
         -3    1    6    6    0  503  0.48761914449E+02  0.14963606902E+03  0.47230181110E+02  0.16431484248E+03  0.00000000000E+00 0.  1.
<mgrwt>
<rscale>  0 0.83018974E+03</rscale>
<asrwt>0</asrwt>
<pdfrwt beam="1">  1        2 0.10503327E+00 0.83018974E+03</pdfrwt>
<pdfrwt beam="2">  1       -2 0.19185984E+00 0.83018974E+03</pdfrwt>
<totfact> 0.64340724E+00</totfact>
</mgrwt>
</event>
<event>
12    1  0.9321077E-008  0.9449411E+03  0.7818608E-02  0.9371083E-01
         -2   -1    0    0    0  501 -0.00000000000E+00  0.00000000000E+00  0.92153100790E+03  0.92153100790E+03  0.00000000000E+00 0.  1.
          2   -1    0    0  501    0  0.00000000000E+00 -0.00000000000E+00 -0.11961496616E+04  0.11961496616E+04  0.00000000000E+00 0. -1.
         23    2    1    2    0    0 -0.66154192135E+03  0.61094779927E+03  0.21452626556E+03  0.93010402437E+03  0.90427044667E+02 0.  0.
    5000000    2    1    2    0    0  0.66154192135E+03 -0.61094779927E+03 -0.48914491922E+03  0.11875766451E+04  0.60015048850E+03 0.  0.
         23    2    4    4    0    0  0.20290820893E+03 -0.44928501666E+03 -0.47858314938E+03  0.69324478229E+03  0.92291548151E+02 0.  0.
         23    2    4    4    0    0  0.45863371242E+03 -0.16166278261E+03 -0.10561769838E+02  0.49433186281E+03  0.88162929586E+02 0.  0.
          2    1    3    3  502    0 -0.77296792636E+02  0.36142727794E+02  0.24231752460E+02  0.88703262350E+02  0.00000000000E+00 0.  1.
         -2    1    3    3    0  502 -0.58424512871E+03  0.57480507148E+03  0.19029451310E+03  0.84140076202E+03  0.00000000000E+00 0. -1.
         15    1    5    5    0    0  0.12812850481E+03 -0.21592299187E+03 -0.19139475472E+03  0.31571310081E+03  0.17770000000E+01 0. -1.
        -15    1    5    5    0    0  0.74779704114E+02 -0.23336202479E+03 -0.28718839466E+03  0.37753168148E+03  0.17770000000E+01 0.  1.
          2    1    6    6  503    0  0.14278110741E+03 -0.75031305609E+02  0.30809943151E+02  0.16421143094E+03  0.00000000000E+00 0. -1.
         -2    1    6    6    0  503  0.31585260501E+03 -0.86631477005E+02 -0.41371712989E+02  0.33012043187E+03  0.00000000000E+00 0.  1.
<mgrwt>
<rscale>  0 0.94494105E+03</rscale>
<asrwt>0</asrwt>
<pdfrwt beam="1">  1        2 0.18402302E+00 0.94494105E+03</pdfrwt>
<pdfrwt beam="2">  1       -2 0.14177400E+00 0.94494105E+03</pdfrwt>
<totfact> 0.66000652E+00</totfact>
</mgrwt>
</event>
<event>
12    1  0.9321077E-008  0.5746507E+03  0.7818608E-02  0.9959440E-01
          1   -1    0    0  501    0  0.00000000000E+00  0.00000000000E+00  0.44399144686E+04  0.44399144686E+04  0.00000000000E+00 0. -1.
         -1   -1    0    0    0  501 -0.00000000000E+00 -0.00000000000E+00 -0.12972792968E+03  0.12972792968E+03  0.00000000000E+00 0.  1.
         23    2    1    2    0    0 -0.42142725938E+03  0.18796897892E+03  0.31460844014E+04  0.31810080582E+04  0.89621055408E+02 0.  0.
    5000000    2    1    2    0    0  0.42142725938E+03 -0.18796897892E+03  0.11641021376E+04  0.13886343401E+04  0.60019852708E+03 0.  0.
         23    2    4    4    0    0  0.31104043561E+03 -0.35555263395E+03  0.10125193703E+04  0.11211953425E+04  0.93379295430E+02 0.  0.
         23    2    4    4    0    0  0.11038682377E+03  0.16758365504E+03  0.15158276728E+03  0.26743899760E+03  0.90976644255E+02 0.  0.
          3    1    3    3  502    0 -0.36336625011E+03  0.12471259664E+03  0.25564040797E+04  0.25851092979E+04  0.00000000000E+00 0. -1.
         -3    1    3    3    0  502 -0.58061009275E+02  0.63256382276E+02  0.58968032169E+03  0.59589876027E+03  0.00000000000E+00 0.  1.
         15    1    5    5    0    0  0.75767388511E+02 -0.58475526749E+02  0.28896352010E+03  0.30440623855E+03  0.17770000000E+01 0.  1.
        -15    1    5    5    0    0  0.23527304710E+03 -0.29707710721E+03  0.72355585017E+03  0.81678910397E+03  0.17770000000E+01 0. -1.
          3    1    6    6  503    0  0.68200267769E+02  0.67439024756E+02  0.22149740977E+02  0.98437338491E+02  0.00000000000E+00 0. -1.
         -3    1    6    6    0  503  0.42186556002E+02  0.10014463028E+03  0.12943302631E+03  0.16900165911E+03  0.00000000000E+00 0.  1.
<mgrwt>
<rscale>  0 0.57465074E+03</rscale>
<asrwt>0</asrwt>
<pdfrwt beam="1">  1        1 0.68306365E+00 0.57465074E+03</pdfrwt>
<pdfrwt beam="2">  1       -1 0.19958146E-01 0.57465074E+03</pdfrwt>
<totfact> 0.89573992E-01</totfact>
</mgrwt>
</event>
<event>
12    1  0.9321077E-008  0.8915639E+03  0.7818608E-02  0.9436189E-01
         -2   -1    0    0    0  501 -0.00000000000E+00  0.00000000000E+00  0.81933240834E+03  0.81933240834E+03  0.00000000000E+00 0.  1.
          2   -1    0    0  501    0  0.00000000000E+00 -0.00000000000E+00 -0.11249490611E+04  0.11249490611E+04  0.00000000000E+00 0. -1.
         23    2    1    2    0    0  0.21591781673E+03  0.83443346042E+03 -0.19382288201E+03  0.88821931824E+03  0.92013826431E+02 0.  0.
    5000000    2    1    2    0    0 -0.21591781673E+03 -0.83443346042E+03 -0.11179377074E+03  0.10560621512E+04  0.59989142066E+03 0.  0.
         23    2    4    4    0    0  0.53242953972E+01 -0.52604055406E+03  0.18562191753E+03  0.56515776145E+03  0.90558193537E+02 0.  0.
         23    2    4    4    0    0 -0.22124211212E+03 -0.30839290635E+03 -0.29741568826E+03  0.49090438975E+03  0.92069383557E+02 0.  0.
          2    1    3    3  502    0  0.13168480351E+03  0.65950503794E+03 -0.15699423842E+03  0.69060478816E+03  0.00000000000E+00 0.  1.
         -2    1    3    3    0  502  0.84233013214E+02  0.17492842248E+03 -0.36828643591E+02  0.19761453007E+03  0.00000000000E+00 0. -1.
         15    1    5    5    0    0  0.51615667124E+01 -0.40576066169E+03  0.10128750586E+03  0.41824714335E+03  0.17770000000E+01 0.  1.
        -15    1    5    5    0    0  0.16272868475E+00 -0.12027989237E+03  0.84334411668E+02  0.14691061810E+03  0.17770000000E+01 0. -1.
          1    1    6    6  503    0 -0.16115948851E+03 -0.14693859379E+03 -0.15852949214E+03  0.26961997508E+03  0.00000000000E+00 0. -1.
         -1    1    6    6    0  503 -0.60082623611E+02 -0.16145431256E+03 -0.13888619612E+03  0.22128441467E+03  0.00000000000E+00 0.  1.
<mgrwt>
<rscale>  0 0.89156394E+03</rscale>
<asrwt>0</asrwt>
<pdfrwt beam="1">  1        2 0.17306909E+00 0.89156394E+03</pdfrwt>
<pdfrwt beam="2">  1       -2 0.12605114E+00 0.89156394E+03</pdfrwt>
<totfact> 0.99001913E+00</totfact>
</mgrwt>
</event>
<event>
12    1  0.9321077E-008  0.1171756E+04  0.7818608E-02  0.9137944E-01
          2   -1    0    0  501    0  0.00000000000E+00  0.00000000000E+00  0.17192292744E+04  0.17192292744E+04  0.00000000000E+00 0. -1.
         -2   -1    0    0    0  501 -0.00000000000E+00 -0.00000000000E+00 -0.84701710508E+03  0.84701710508E+03  0.00000000000E+00 0.  1.
         23    2    1    2    0    0  0.82747809161E+02 -0.10989635670E+04  0.67615932307E+03  0.12961729271E+04  0.91130154843E+02 0.  0.
    5000000    2    1    2    0    0 -0.82747809161E+02  0.10989635670E+04  0.19605284628E+03  0.12700734525E+04  0.60006810826E+03 0.  0.
         23    2    4    4    0    0  0.18660472534E+03  0.82366122372E+03  0.20546052988E+03  0.87401398590E+03  0.91909103146E+02 0.  0.
         23    2    4    4    0    0 -0.26935253450E+03  0.27530234330E+03 -0.94076835969E+01  0.39605946655E+03  0.91828255287E+02 0.  0.
          4    1    3    3  502    0  0.90956847107E+02 -0.93323348953E+03  0.60310954720E+03  0.11148717504E+04  0.00000000000E+00 0. -1.
         -4    1    3    3    0  502 -0.82090379462E+01 -0.16573007748E+03  0.73049775863E+02  0.18130117661E+03  0.00000000000E+00 0.  1.
         15    1    5    5    0    0  0.10254006877E+03  0.59208024526E+03  0.11659370269E+03  0.61210353026E+03  0.17770000000E+01 0. -1.
        -15    1    5    5    0    0  0.84064656571E+02  0.23158097846E+03  0.88866827188E+02  0.26191045564E+03  0.17770000000E+01 0.  1.
          3    1    6    6  503    0 -0.20879477673E+03  0.25320660334E+03  0.11204208638E+02  0.32838145054E+03  0.00000000000E+00 0. -1.
         -3    1    6    6    0  503 -0.60557757766E+02  0.22095739952E+02 -0.20611892235E+02  0.67678016011E+02  0.00000000000E+00 0.  1.
<mgrwt>
<rscale>  0 0.11717559E+04</rscale>
<asrwt>0</asrwt>
<pdfrwt beam="1">  1        2 0.26449681E+00 0.11717559E+04</pdfrwt>
<pdfrwt beam="2">  1       -2 0.13031032E+00 0.11717559E+04</pdfrwt>
<totfact> 0.40344321E+00</totfact>
</mgrwt>
</event>
<event>
12    1  0.9321077E-008  0.8984727E+03  0.7818608E-02  0.9427493E-01
         -1   -1    0    0    0  501 -0.00000000000E+00  0.00000000000E+00  0.11973117280E+04  0.11973117280E+04  0.00000000000E+00 0.  1.
          1   -1    0    0  501    0  0.00000000000E+00 -0.00000000000E+00 -0.12726479488E+04  0.12726479488E+04  0.00000000000E+00 0. -1.
         23    2    1    2    0    0 -0.77852917016E+03  0.39235164245E+03 -0.80069383550E+03  0.11869420558E+04  0.87597633622E+02 0.  0.
    5000000    2    1    2    0    0  0.77852917016E+03 -0.39235164245E+03  0.72535761467E+03  0.12830176211E+04  0.59995255368E+03 0.  0.
         23    2    4    4    0    0  0.69480799270E+03 -0.26364440271E+03  0.79399287398E+03  0.10912027401E+04  0.89622643792E+02 0.  0.
         23    2    4    4    0    0  0.83721177466E+02 -0.12870723974E+03 -0.68635259318E+02  0.19181488096E+03  0.92235354480E+02 0.  0.
          3    1    3    3  502    0 -0.22870232451E+03  0.72457832534E+02 -0.20873108165E+03  0.31799930060E+03  0.00000000000E+00 0. -1.
         -3    1    3    3    0  502 -0.54982684565E+03  0.31989380992E+03 -0.59196275385E+03  0.86894275517E+03  0.00000000000E+00 0.  1.
         15    1    5    5    0    0  0.67101472223E+03 -0.26897306625E+03  0.77780981965E+03  0.10618844292E+04  0.17770000000E+01 0. -1.
        -15    1    5    5    0    0  0.23793270471E+02  0.53286635414E+01  0.16183054340E+02  0.29318310858E+02  0.17770000000E+01 0.  1.
          1    1    6    6  503    0 -0.53581615965E+01 -0.62102501383E+02 -0.48040952631E+02  0.78697926932E+02  0.00000000000E+00 0. -1.
         -1    1    6    6    0  503  0.89079339063E+02 -0.66604738361E+02 -0.20594306688E+02  0.11311695403E+03  0.00000000000E+00 0.  1.
<mgrwt>
<rscale>  0 0.89847273E+03</rscale>
<asrwt>0</asrwt>
<pdfrwt beam="1">  1        1 0.19579199E+00 0.89847273E+03</pdfrwt>
<pdfrwt beam="2">  1       -1 0.18420180E+00 0.89847273E+03</pdfrwt>
<totfact> 0.18739488E+00</totfact>
</mgrwt>
</event>
<event>
12    1  0.9321077E-008  0.1012581E+04  0.7818608E-02  0.9294852E-01
          4   -1    0    0  501    0  0.00000000000E+00  0.00000000000E+00  0.61352238252E+03  0.61352238252E+03  0.00000000000E+00 0. -1.
         -4   -1    0    0    0  501 -0.00000000000E+00 -0.00000000000E+00 -0.18378293969E+04  0.18378293969E+04  0.00000000000E+00 0.  1.
         23    2    1    2    0    0  0.46747750282E+03 -0.83927082558E+03 -0.37333026111E+03  0.10346547533E+04  0.90687597941E+02 0.  0.
    5000000    2    1    2    0    0 -0.46747750282E+03  0.83927082558E+03 -0.85097675327E+03  0.14166970261E+04  0.59996524466E+03 0.  0.
         23    2    4    4    0    0  0.59603850705E+00 -0.52312088984E+02 -0.19033547208E+02  0.10706648012E+03  0.91455154749E+02 0.  0.
         23    2    4    4    0    0 -0.46807354133E+03  0.89158291456E+03 -0.83194320606E+03  0.13096305460E+04  0.94814214008E+02 0.  0.
          1    1    3    3  502    0  0.13088477113E+03 -0.23415574676E+03 -0.61305873466E+02  0.27516930639E+03  0.00000000000E+00 0. -1.
         -1    1    3    3    0  502  0.33659273169E+03 -0.60511507882E+03 -0.31202438764E+03  0.75948544695E+03  0.00000000000E+00 0.  1.
         15    1    5    5    0    0  0.61181984153E+01 -0.24019055605E+02 -0.55346107432E+02  0.60668745833E+02  0.17770000000E+01 0. -1.
        -15    1    5    5    0    0 -0.55221599082E+01 -0.28293033379E+02  0.36312560225E+02  0.46397734287E+02  0.17770000000E+01 0.  1.
          3    1    6    6  503    0 -0.21790806364E+03  0.50842305080E+03 -0.47926824462E+03  0.73189888173E+03  0.00000000000E+00 0. -1.
         -3    1    6    6    0  503 -0.25016547768E+03  0.38315986377E+03 -0.35267496144E+03  0.57773166423E+03  0.00000000000E+00 0.  1.
<mgrwt>
<rscale>  0 0.10125815E+04</rscale>
<asrwt>0</asrwt>
<pdfrwt beam="1">  1        4 0.94388060E-01 0.10125815E+04</pdfrwt>
<pdfrwt beam="2">  1       -4 0.28274298E+00 0.10125815E+04</pdfrwt>
<totfact> 0.72957045E-02</totfact>
</mgrwt>
</event>
<event>
12    1  0.9321077E-008  0.6493947E+03  0.7818608E-02  0.9807916E-01
         -1   -1    0    0    0  501 -0.00000000000E+00  0.00000000000E+00  0.44692889305E+03  0.44692889305E+03  0.00000000000E+00 0.  1.
          1   -1    0    0  501    0  0.00000000000E+00 -0.00000000000E+00 -0.98094575196E+03  0.98094575196E+03  0.00000000000E+00 0. -1.
         23    2    1    2    0    0  0.11276994737E+03 -0.50815308170E+03 -0.19043573399E+03  0.56226317658E+03  0.94538328101E+02 0.  0.
    5000000    2    1    2    0    0 -0.11276994737E+03  0.50815308170E+03 -0.34358112491E+03  0.86561146843E+03  0.60024878960E+03 0.  0.
         23    2    4    4    0    0  0.21826727319E+03  0.30607548464E+03 -0.10240871975E+03  0.39987940835E+03  0.89962161497E+02 0.  0.
         23    2    4    4    0    0 -0.33103722056E+03  0.20207759706E+03 -0.24117240517E+03  0.46573206008E+03  0.91220755008E+02 0.  0.
          2    1    3    3  502    0  0.72394561736E+02 -0.38017155138E+03 -0.18237396609E+03  0.42782197764E+03  0.00000000000E+00 0. -1.
         -2    1    3    3    0  502  0.40375385633E+02 -0.12798153033E+03 -0.80617678997E+01  0.13444119894E+03  0.00000000000E+00 0.  1.
         15    1    5    5    0    0  0.11409660695E+03  0.23024011624E+03 -0.79604826432E+02  0.26901418729E+03  0.17770000000E+01 0.  1.
        -15    1    5    5    0    0  0.10417066623E+03  0.75835368407E+02 -0.22803893315E+02  0.13086522106E+03  0.17770000000E+01 0. -1.
          1    1    6    6  503    0 -0.29857463361E+03  0.16040894924E+03 -0.23525429156E+03  0.41258020375E+03  0.00000000000E+00 0. -1.
         -1    1    6    6    0  503 -0.32462586948E+02  0.41668647820E+02 -0.59181136106E+01  0.53151856329E+02  0.00000000000E+00 0.  1.
<mgrwt>
<rscale>  0 0.64939473E+03</rscale>
<asrwt>0</asrwt>
<pdfrwt beam="1">  1        1 0.15091473E+00 0.64939473E+03</pdfrwt>
<pdfrwt beam="2">  1       -1 0.68758292E-01 0.64939473E+03</pdfrwt>
<totfact> 0.34800287E+01</totfact>
</mgrwt>
</event>
<event>
12    1  0.1119441E-007  0.1437009E+04  0.7818608E-02  0.8927456E-01
          1   -1    0    0  501    0  0.00000000000E+00  0.00000000000E+00  0.20725160959E+04  0.20725160959E+04  0.00000000000E+00 0. -1.
         -1   -1    0    0    0  501 -0.00000000000E+00 -0.00000000000E+00 -0.11997772994E+04  0.11997772994E+04  0.00000000000E+00 0.  1.
         23    2    1    2    0    0  0.10757921714E+04  0.88100731740E+03  0.10538453974E+04  0.17470556364E+04  0.90058790941E+02 0.  0.
    5000000    2    1    2    0    0 -0.10757921714E+04 -0.88100731740E+03 -0.18110660093E+03  0.15252377589E+04  0.60003994103E+03 0.  0.
         23    2    4    4    0    0 -0.69383887864E+03 -0.25090456011E+03  0.55818240550E+02  0.74549297921E+03  0.90986912720E+02 0.  0.
         23    2    4    4    0    0 -0.38195329279E+03 -0.63010275729E+03 -0.23692484148E+03  0.77974477968E+03  0.94608341630E+02 0.  0.
          2    1    3    3  502    0  0.72164391798E+03  0.64400428917E+03  0.72381103632E+03  0.12080620369E+04  0.00000000000E+00 0.  1.
         -2    1    3    3    0  502  0.35414825345E+03  0.23700302823E+03  0.33003436106E+03  0.53899359949E+03  0.00000000000E+00 0. -1.
         15    1    5    5    0    0 -0.31431091353E+03 -0.11348173419E+03 -0.20066003655E+02  0.33477642777E+03  0.17770000000E+01 0. -1.
        -15    1    5    5    0    0 -0.37952796511E+03 -0.13742282592E+03  0.75884244204E+02  0.41071655145E+03  0.17770000000E+01 0.  1.
          4    1    6    6  503    0 -0.12795552344E+03 -0.13269171880E+03 -0.55603136682E+02  0.19253939084E+03  0.00000000000E+00 0. -1.
         -4    1    6    6    0  503 -0.25399776935E+03 -0.49741103849E+03 -0.18132170480E+03  0.58720538883E+03  0.00000000000E+00 0.  1.
<mgrwt>
<rscale>  0 0.14370095E+04</rscale>
<asrwt>0</asrwt>
<pdfrwt beam="1">  1        1 0.31884863E+00 0.14370095E+04</pdfrwt>
<pdfrwt beam="2">  1       -1 0.18458112E+00 0.14370095E+04</pdfrwt>
<totfact> 0.48942676E-01</totfact>
</mgrwt>
</event>
<event>
12    1  0.9321077E-008  0.1012575E+04  0.7818608E-02  0.9294859E-01
          1   -1    0    0  501    0  0.00000000000E+00  0.00000000000E+00  0.18965488951E+04  0.18965488951E+04  0.00000000000E+00 0.  1.
         -1   -1    0    0    0  501 -0.00000000000E+00 -0.00000000000E+00 -0.73170019548E+03  0.73170019548E+03  0.00000000000E+00 0. -1.
         23    2    1    2    0    0  0.90016792392E+03  0.28395480777E+03  0.11740487002E+04  0.15092378151E+04  0.92064151468E+02 0.  0.
    5000000    2    1    2    0    0 -0.90016792392E+03 -0.28395480777E+03 -0.92000006241E+01  0.11190112754E+04  0.60097335252E+03 0.  0.
         23    2    4    4    0    0  0.14841904958E+02  0.50190967601E+02  0.84571656307E+02  0.13632363996E+03  0.93232796751E+02 0.  0.
         23    2    4    4    0    0 -0.91500982887E+03 -0.33414577537E+03 -0.93771656931E+02  0.98268763548E+03  0.89361508175E+02 0.  0.
          1    1    3    3  502    0  0.75948514756E+03  0.25360582894E+03  0.10402837639E+04  0.13127543240E+04  0.00000000000E+00 0. -1.
         -1    1    3    3    0  502  0.14068277636E+03  0.30348978834E+02  0.13376493633E+03  0.19648349109E+03  0.00000000000E+00 0.  1.
         15    1    5    5    0    0 -0.38889551859E+02  0.15517967602E+02  0.24372670122E+02  0.48480814145E+02  0.17770000000E+01 0.  1.
        -15    1    5    5    0    0  0.53731456816E+02  0.34672999999E+02  0.60198986185E+02  0.87842825815E+02  0.17770000000E+01 0. -1.
          1    1    6    6  503    0 -0.68337037747E+03 -0.23458966876E+03 -0.32622129161E+02  0.72325070951E+03  0.00000000000E+00 0.  1.
         -1    1    6    6    0  503 -0.23163945141E+03 -0.99556106615E+02 -0.61149527770E+02  0.25943692597E+03  0.00000000000E+00 0. -1.
<mgrwt>
<rscale>  0 0.10125753E+04</rscale>
<asrwt>0</asrwt>
<pdfrwt beam="1">  1        1 0.29177675E+00 0.10125753E+04</pdfrwt>
<pdfrwt beam="2">  1       -1 0.11256926E+00 0.10125753E+04</pdfrwt>
<totfact> 0.25507451E+00</totfact>
</mgrwt>
</event>
<event>
12    1  0.9321077E-008  0.8752936E+03  0.7818608E-02  0.9457004E-01
          1   -1    0    0  501    0  0.00000000000E+00  0.00000000000E+00  0.67462491366E+03  0.67462491366E+03  0.00000000000E+00 0. -1.
         -1   -1    0    0    0  501 -0.00000000000E+00 -0.00000000000E+00 -0.12980522407E+04  0.12980522407E+04  0.00000000000E+00 0.  1.
         23    2    1    2    0    0 -0.48310054699E+03 -0.65595148208E+03 -0.48257916113E+03  0.95122157489E+03  0.91001936438E+02 0.  0.
    5000000    2    1    2    0    0  0.48310054699E+03  0.65595148208E+03 -0.14084816587E+03  0.10214555794E+04  0.59989566557E+03 0.  0.
         23    2    4    4    0    0  0.45778324875E+03  0.69759588855E+03 -0.24516450731E+03  0.87487551779E+03  0.95373001550E+02 0.  0.
         23    2    4    4    0    0  0.25317298242E+02 -0.41644406470E+02  0.10431634144E+03  0.14658006164E+03  0.90711593519E+02 0.  0.
          3    1    3    3  502    0 -0.26991215017E+03 -0.34909161238E+03 -0.31231844135E+03  0.54061107227E+03  0.00000000000E+00 0. -1.
         -3    1    3    3    0  502 -0.21318839682E+03 -0.30685986969E+03 -0.17026071978E+03  0.41061050263E+03  0.00000000000E+00 0.  1.
         15    1    5    5    0    0  0.23646073289E+03  0.36788279888E+03 -0.79017318807E+02  0.44440783782E+03  0.17770000000E+01 0. -1.
        -15    1    5    5    0    0  0.22132251586E+03  0.32971308967E+03 -0.16614718850E+03  0.43046767997E+03  0.17770000000E+01 0.  1.
          1    1    6    6  503    0 -0.87339108822E+00  0.27386988657E+02  0.41015988783E+02  0.49326679348E+02  0.00000000000E+00 0. -1.
         -1    1    6    6    0  503  0.26190689331E+02 -0.69031395127E+02  0.63300352654E+02  0.97253382291E+02  0.00000000000E+00 0.  1.
<mgrwt>
<rscale>  0 0.87529360E+03</rscale>
<asrwt>0</asrwt>
<pdfrwt beam="1">  1        1 0.10378845E+00 0.87529360E+03</pdfrwt>
<pdfrwt beam="2">  1       -1 0.19970034E+00 0.87529360E+03</pdfrwt>
<totfact> 0.44399520E+00</totfact>
</mgrwt>
</event>
<event>
12    1  0.9321077E-008  0.1136952E+04  0.7818608E-02  0.9169906E-01
          2   -1    0    0  501    0  0.00000000000E+00  0.00000000000E+00  0.22782306601E+04  0.22782306601E+04  0.00000000000E+00 0. -1.
         -2   -1    0    0    0  501 -0.00000000000E+00 -0.00000000000E+00 -0.59504882628E+03  0.59504882628E+03  0.00000000000E+00 0.  1.
         23    2    1    2    0    0 -0.10682770607E+04 -0.16146047631E+03  0.66455966778E+03  0.12718089150E+04  0.92590498464E+02 0.  0.
    5000000    2    1    2    0    0  0.10682770607E+04  0.16146047631E+03  0.10186221661E+04  0.16014705714E+04  0.59985957517E+03 0.  0.
         23    2    4    4    0    0  0.97926431726E+02 -0.12864740114E+03  0.37534918704E+02  0.18847089589E+03  0.89289801356E+02 0.  0.
         23    2    4    4    0    0  0.97035062899E+03  0.29010787745E+03  0.98108724736E+03  0.14129996755E+04  0.91065757839E+02 0.  0.
          1    1    3    3  502    0 -0.94487331318E+03 -0.16122446155E+03  0.61478559047E+03  0.11387450229E+04  0.00000000000E+00 0. -1.
         -1    1    3    3    0  502 -0.12340374754E+03 -0.23601476381E+00  0.49774077315E+02  0.13306389211E+03  0.00000000000E+00 0.  1.
         15    1    5    5    0    0 -0.11710023799E+02 -0.22411327069E+02  0.24480133350E+02  0.35239564359E+02  0.17770000000E+01 0.  1.
        -15    1    5    5    0    0  0.10963645553E+03 -0.10623607407E+03  0.13054785354E+02  0.15323133153E+03  0.17770000000E+01 0. -1.
          1    1    6    6  503    0  0.89650136193E+03  0.25426837210E+03  0.92871766025E+03  0.13156304912E+04  0.00000000000E+00 0. -1.
         -1    1    6    6    0  503  0.73849267061E+02  0.35839505343E+02  0.52369587115E+02  0.97369184259E+02  0.00000000000E+00 0.  1.
<mgrwt>
<rscale>  0 0.11369525E+04</rscale>
<asrwt>0</asrwt>
<pdfrwt beam="1">  1        2 0.35049702E+00 0.11369525E+04</pdfrwt>
<pdfrwt beam="2">  1       -2 0.91545975E-01 0.11369525E+04</pdfrwt>
<totfact> 0.46867691E+00</totfact>
</mgrwt>
</event>
<event>
12    1  0.9321077E-008  0.1463665E+04  0.7818608E-02  0.8908982E-01
         -2   -1    0    0    0  501 -0.00000000000E+00  0.00000000000E+00  0.63744781754E+03  0.63744781754E+03  0.00000000000E+00 0.  1.
          2   -1    0    0  501    0  0.00000000000E+00 -0.00000000000E+00 -0.38014976143E+04  0.38014976143E+04  0.00000000000E+00 0. -1.
         23    2    1    2    0    0 -0.14425862875E+04 -0.10613067199E+03 -0.20769978775E+04  0.25326678377E+04  0.90372984176E+02 0.  0.
    5000000    2    1    2    0    0  0.14425862875E+04  0.10613067199E+03 -0.10870519193E+04  0.19062775942E+04  0.59991122201E+03 0.  0.
         23    2    4    4    0    0  0.24400699587E+03  0.11743596522E+03 -0.48423721631E+03  0.56152158768E+03  0.86545894213E+02 0.  0.
         23    2    4    4    0    0  0.11985792917E+04 -0.11305293235E+02 -0.60281470294E+03  0.13447560065E+04  0.90901170497E+02 0.  0.
          3    1    3    3  502    0 -0.43414007628E+03 -0.22903849929E+02 -0.55502381632E+03  0.70502030386E+03  0.00000000000E+00 0. -1.
         -3    1    3    3    0  502 -0.10084462113E+04 -0.83226822058E+02 -0.15219740612E+04  0.18276475338E+04  0.00000000000E+00 0.  1.
         15    1    5    5    0    0  0.23599578692E+03  0.93080999401E+02 -0.40196266877E+03  0.47532644436E+03  0.17770000000E+01 0. -1.
        -15    1    5    5    0    0  0.80112089444E+01  0.24354965821E+02 -0.82274547546E+02  0.86195143319E+02  0.17770000000E+01 0.  1.
          4    1    6    6  503    0  0.11137267323E+04  0.10225390213E+02 -0.54611895898E+03  0.12404586693E+04  0.00000000000E+00 0. -1.
         -4    1    6    6    0  503  0.84852559335E+02 -0.21530683448E+02 -0.56695743967E+02  0.10429733716E+03  0.00000000000E+00 0.  1.
<mgrwt>
<rscale>  0 0.14636646E+04</rscale>
<asrwt>0</asrwt>
<pdfrwt beam="1">  1        2 0.58484580E+00 0.14636646E+04</pdfrwt>
<pdfrwt beam="2">  1       -2 0.98068892E-01 0.14636646E+04</pdfrwt>
<totfact> 0.41156237E-01</totfact>
</mgrwt>
</event>
<event>
12    1  0.9321077E-008  0.1437175E+04  0.7818608E-02  0.8927341E-01
          2   -1    0    0  501    0  0.00000000000E+00  0.00000000000E+00  0.14981053090E+04  0.14981053090E+04  0.00000000000E+00 0. -1.
         -2   -1    0    0    0  501 -0.00000000000E+00 -0.00000000000E+00 -0.15905443702E+04  0.15905443702E+04  0.00000000000E+00 0.  1.
         23    2    1    2    0    0  0.27640213526E+03 -0.13612615077E+04 -0.56673257360E+03  0.15029210078E+04  0.90303448364E+02 0.  0.
    5000000    2    1    2    0    0 -0.27640213526E+03  0.13612615077E+04  0.47429351236E+03  0.15857286715E+04  0.60012502938E+03 0.  0.
         23    2    4    4    0    0  0.12885786887E+03  0.13099400445E+03  0.75745495221E+01  0.20588969047E+03  0.92571114647E+02 0.  0.
         23    2    4    4    0    0 -0.40526000413E+03  0.12302675033E+04  0.46671896284E+03  0.13798389810E+04  0.91297440812E+02 0.  0.
          1    1    3    3  502    0  0.11427298420E+03 -0.62064361695E+03 -0.21061868792E+03  0.66529470603E+03  0.00000000000E+00 0. -1.
         -1    1    3    3    0  502  0.16212915106E+03 -0.74061789078E+03 -0.35611388568E+03  0.83762630172E+03  0.00000000000E+00 0.  1.
         15    1    5    5    0    0  0.86753105498E+02  0.63416183313E+02 -0.38162793708E+02  0.11404941987E+03  0.17770000000E+01 0.  1.
        -15    1    5    5    0    0  0.42104763371E+02  0.67577821141E+02  0.45737343230E+02  0.91840270598E+02  0.17770000000E+01 0. -1.
          4    1    6    6  503    0 -0.63892377522E+02  0.30864548890E+03  0.12999723153E+03  0.34094508932E+03  0.00000000000E+00 0. -1.
         -4    1    6    6    0  503 -0.34136762660E+03  0.92162201437E+03  0.33672173131E+03  0.10388938917E+04  0.00000000000E+00 0.  1.
<mgrwt>
<rscale>  0 0.14371747E+04</rscale>
<asrwt>0</asrwt>
<pdfrwt beam="1">  1        2 0.23047774E+00 0.14371747E+04</pdfrwt>
<pdfrwt beam="2">  1       -2 0.24469913E+00 0.14371747E+04</pdfrwt>
<totfact> 0.83435900E-01</totfact>
</mgrwt>
</event>
<event>
12    1  0.9321077E-008  0.4774680E+03  0.7818608E-02  0.1019833E+00
         -1   -1    0    0    0  501 -0.00000000000E+00  0.00000000000E+00  0.47703959254E+03  0.47703959254E+03  0.00000000000E+00 0.  1.
          1   -1    0    0  501    0  0.00000000000E+00 -0.00000000000E+00 -0.73571487478E+03  0.73571487478E+03  0.00000000000E+00 0. -1.
         23    2    1    2    0    0  0.28866336700E+03  0.42310935662E+02  0.23264158061E+03  0.38419068039E+03  0.91452824715E+02 0.  0.
    5000000    2    1    2    0    0 -0.28866336700E+03 -0.42310935662E+02 -0.49131686285E+03  0.82856378693E+03  0.60000744542E+03 0.  0.
         23    2    4    4    0    0 -0.41270892160E+03 -0.17159964627E+03 -0.40250276311E+03  0.60873699152E+03  0.93686487622E+02 0.  0.
         23    2    4    4    0    0  0.12404555460E+03  0.12928871061E+03 -0.88814099743E+02  0.21982679541E+03  0.91285296515E+02 0.  0.
          3    1    3    3  502    0  0.20517624820E+03  0.63637346997E+02  0.13387700717E+03  0.25312063885E+03  0.00000000000E+00 0. -1.
         -3    1    3    3    0  502  0.83487118794E+02 -0.21326411335E+02  0.98764573436E+02  0.13107004155E+03  0.00000000000E+00 0.  1.
         15    1    5    5    0    0 -0.21500949469E+03 -0.13192781133E+03 -0.25664493865E+03  0.35986638142E+03  0.17770000000E+01 0.  1.
        -15    1    5    5    0    0 -0.19769942690E+03 -0.39671834939E+02 -0.14585782446E+03  0.24887061010E+03  0.17770000000E+01 0. -1.
          4    1    6    6  503    0  0.50424305546E+02  0.11426803227E+03 -0.44471697499E+02  0.13258026123E+03  0.00000000000E+00 0. -1.
         -4    1    6    6    0  503  0.73621249055E+02  0.15020678340E+02 -0.44342402244E+02  0.87246534183E+02  0.00000000000E+00 0.  1.
<mgrwt>
<rscale>  0 0.47746804E+03</rscale>
<asrwt>0</asrwt>
<pdfrwt beam="1">  1        1 0.11318690E+00 0.47746804E+03</pdfrwt>
<pdfrwt beam="2">  1       -1 0.73390707E-01 0.47746804E+03</pdfrwt>
<totfact> 0.49813720E+01</totfact>
</mgrwt>
</event>
<event>
12    1  0.9321077E-008  0.8530259E+03  0.7818608E-02  0.9486285E-01
          3   -1    0    0  501    0  0.00000000000E+00  0.00000000000E+00  0.24206897559E+04  0.24206897559E+04  0.00000000000E+00 0. -1.
         -3   -1    0    0    0  501 -0.00000000000E+00 -0.00000000000E+00 -0.36037892516E+03  0.36037892516E+03  0.00000000000E+00 0.  1.
         23    2    1    2    0    0 -0.58637303295E+03 -0.51993605233E+03  0.13554878404E+04  0.15682890097E+04  0.89533793818E+02 0.  0.
    5000000    2    1    2    0    0  0.58637303295E+03  0.51993605233E+03  0.70482299030E+03  0.12127796713E+04  0.59991020260E+03 0.  0.
         23    2    4    4    0    0  0.17289502738E+03  0.46801521578E+03  0.18503257287E+03  0.54036070948E+03  0.93923961994E+02 0.  0.
         23    2    4    4    0    0  0.41347800558E+03  0.51920836547E+02  0.51979041743E+03  0.67241896182E+03  0.91133680897E+02 0.  0.
          2    1    3    3  502    0 -0.31692193206E+03 -0.32957377629E+03  0.83686510429E+03  0.95362549663E+03  0.00000000000E+00 0. -1.
         -2    1    3    3    0  502 -0.26945110090E+03 -0.19036227604E+03  0.51862273610E+03  0.61466351308E+03  0.00000000000E+00 0.  1.
         15    1    5    5    0    0  0.16730194389E+03  0.42789941041E+03  0.19418551295E+03  0.49879757119E+03  0.17770000000E+01 0.  1.
        -15    1    5    5    0    0  0.55930834893E+01  0.40115805373E+02 -0.91529400823E+01  0.41563138293E+02  0.17770000000E+01 0. -1.
          3    1    6    6  503    0  0.13273323405E+03 -0.34084558420E+01  0.10897442123E+03  0.17177064206E+03  0.00000000000E+00 0. -1.
         -3    1    6    6    0  503  0.28074477152E+03  0.55329292389E+02  0.41081599620E+03  0.50064831975E+03  0.00000000000E+00 0.  1.
<mgrwt>
<rscale>  0 0.85302593E+03</rscale>
<asrwt>0</asrwt>
<pdfrwt beam="1">  1        3 0.37241380E+00 0.85302593E+03</pdfrwt>
<pdfrwt beam="2">  1       -3 0.55442913E-01 0.85302593E+03</pdfrwt>
<totfact> 0.13264125E-01</totfact>
</mgrwt>
</event>
<event>
12    1  0.9321077E-008  0.1953640E+04  0.7818608E-02  0.8628607E-01
         -2   -1    0    0    0  501 -0.00000000000E+00  0.00000000000E+00  0.11846189580E+04  0.11846189580E+04  0.00000000000E+00 0.  1.
          2   -1    0    0  501    0  0.00000000000E+00 -0.00000000000E+00 -0.40702439824E+04  0.40702439824E+04  0.00000000000E+00 0. -1.
         23    2    1    2    0    0 -0.69379149012E+03 -0.18205438658E+04 -0.25153156654E+04  0.31829381147E+04  0.92496195919E+02 0.  0.
    5000000    2    1    2    0    0  0.69379149012E+03  0.18205438658E+04 -0.37030935899E+03  0.20719248257E+04  0.60001405249E+03 0.  0.
         23    2    4    4    0    0  0.24214098322E+03  0.47048893150E+03  0.14354952114E+03  0.55552710547E+03  0.89508711699E+02 0.  0.
         23    2    4    4    0    0  0.45165050690E+03  0.13500549343E+04 -0.51385888013E+03  0.15163977203E+04  0.93672789102E+02 0.  0.
          4    1    3    3  502    0 -0.42182045501E+03 -0.11651244705E+04 -0.15345282191E+04  0.19723651749E+04  0.00000000000E+00 0. -1.
         -4    1    3    3    0  502 -0.27197103510E+03 -0.65541939526E+03 -0.98078744632E+03  0.12105729398E+04  0.00000000000E+00 0.  1.
         15    1    5    5    0    0  0.74639751421E+02  0.21074190780E+03  0.93871780282E+02  0.24248363462E+03  0.17770000000E+01 0.  1.
        -15    1    5    5    0    0  0.16750123180E+03  0.25974702370E+03  0.49677740859E+02  0.31304347085E+03  0.17770000000E+01 0. -1.
          1    1    6    6  503    0  0.16296471778E+03  0.61362473631E+03 -0.25391168423E+03  0.68378648688E+03  0.00000000000E+00 0. -1.
         -1    1    6    6    0  503  0.28868578912E+03  0.73643019795E+03 -0.25994719590E+03  0.83261123338E+03  0.00000000000E+00 0.  1.
<mgrwt>
<rscale>  0 0.19536403E+04</rscale>
<asrwt>0</asrwt>
<pdfrwt beam="1">  1        2 0.62619138E+00 0.19536403E+04</pdfrwt>
<pdfrwt beam="2">  1       -2 0.18224907E+00 0.19536403E+04</pdfrwt>
<totfact> 0.47403619E-02</totfact>
</mgrwt>
</event>
<event>
12    1  0.9321077E-008  0.7372941E+03  0.7818608E-02  0.9655498E-01
          1   -1    0    0  501    0  0.00000000000E+00  0.00000000000E+00  0.43373764872E+03  0.43373764872E+03  0.00000000000E+00 0. -1.
         -1   -1    0    0    0  501 -0.00000000000E+00 -0.00000000000E+00 -0.14095655461E+04  0.14095655461E+04  0.00000000000E+00 0.  1.
         23    2    1    2    0    0 -0.30386227340E+03  0.57935395305E+03 -0.28933108095E+03  0.72110001121E+03  0.91046513669E+02 0.  0.
    5000000    2    1    2    0    0  0.30386227340E+03 -0.57935395305E+03 -0.68649681639E+03  0.11222031836E+04  0.60006568156E+03 0.  0.
         23    2    4    4    0    0  0.39673784181E+03 -0.27510442606E+03 -0.60793660350E+03  0.78180756018E+03  0.92481278732E+02 0.  0.
         23    2    4    4    0    0 -0.92875568403E+02 -0.30424952699E+03 -0.78560212889E+02  0.34039562339E+03  0.92216199755E+02 0.  0.
          4    1    3    3  502    0 -0.25073063546E+03  0.40139982858E+03 -0.18549701928E+03  0.50832747133E+03  0.00000000000E+00 0. -1.
         -4    1    3    3    0  502 -0.53131637944E+02  0.17795412447E+03 -0.10383406167E+03  0.21277253988E+03  0.00000000000E+00 0.  1.
         15    1    5    5    0    0  0.28640994429E+03 -0.16212573812E+03 -0.45845734665E+03  0.56435955522E+03  0.17770000000E+01 0. -1.
        -15    1    5    5    0    0  0.11032789752E+03 -0.11297868795E+03 -0.14947925686E+03  0.21744800496E+03  0.17770000000E+01 0.  1.
          3    1    6    6  503    0 -0.49760590028E+02 -0.49509603953E+02 -0.34819571917E+02  0.78356364081E+02  0.00000000000E+00 0. -1.
         -3    1    6    6    0  503 -0.43114978375E+02 -0.25473992303E+03 -0.43740640972E+02  0.26203925931E+03  0.00000000000E+00 0.  1.
<mgrwt>
<rscale>  0 0.73729407E+03</rscale>
<asrwt>0</asrwt>
<pdfrwt beam="1">  1        1 0.66728869E-01 0.73729407E+03</pdfrwt>
<pdfrwt beam="2">  1       -1 0.21685624E+00 0.73729407E+03</pdfrwt>
<totfact> 0.64486648E+00</totfact>
</mgrwt>
</event>
<event>
12    1  0.9321077E-008  0.9218964E+03  0.7818608E-02  0.9398616E-01
         -2   -1    0    0    0  501 -0.00000000000E+00  0.00000000000E+00  0.13223203056E+04  0.13223203056E+04  0.00000000000E+00 0.  1.
          2   -1    0    0  501    0  0.00000000000E+00 -0.00000000000E+00 -0.77154377415E+03  0.77154377415E+03  0.00000000000E+00 0. -1.
         23    2    1    2    0    0 -0.15404833582E+03 -0.88556523829E+03  0.44761316157E+03  0.10082431149E+04  0.90774199522E+02 0.  0.
    5000000    2    1    2    0    0  0.15404833582E+03  0.88556523829E+03  0.10316336992E+03  0.10856209649E+04  0.59997793081E+03 0.  0.
         23    2    4    4    0    0  0.86984580296E+01  0.47618966194E+02  0.19970729414E+03  0.22486560028E+03  0.91314323855E+02 0.  0.
         23    2    4    4    0    0  0.14534987779E+03  0.83794627210E+03 -0.96543924224E+02  0.86075536461E+03  0.91096248514E+02 0.  0.
          3    1    3    3  502    0 -0.14310637020E+03 -0.81166135176E+03  0.38033383896E+03  0.90770447404E+03  0.00000000000E+00 0. -1.
         -3    1    3    3    0  502 -0.10941965622E+02 -0.73903886535E+02  0.67279322607E+02  0.10053864087E+03  0.00000000000E+00 0.  1.
         15    1    5    5    0    0  0.12926091593E+02 -0.19719618180E+02  0.14485826867E+02  0.27729841219E+02  0.17770000000E+01 0. -1.
        -15    1    5    5    0    0 -0.42276335629E+01  0.67338584373E+02  0.18522146728E+03  0.19713575906E+03  0.17770000000E+01 0.  1.
          1    1    6    6  503    0  0.58199960512E+02  0.54581421653E+03 -0.86930809889E+02  0.55574936804E+03  0.00000000000E+00 0. -1.
         -1    1    6    6    0  503  0.87149917280E+02  0.29213205557E+03 -0.96131143343E+01  0.30500599656E+03  0.00000000000E+00 0.  1.
<mgrwt>
<rscale>  0 0.92189643E+03</rscale>
<asrwt>0</asrwt>
<pdfrwt beam="1">  1        2 0.11869904E+00 0.92189643E+03</pdfrwt>
<pdfrwt beam="2">  1       -2 0.20343389E+00 0.92189643E+03</pdfrwt>
<totfact> 0.45698114E+00</totfact>
</mgrwt>
</event>
<event>
12    1  0.9321077E-008  0.4570156E+03  0.7818608E-02  0.1025650E+00
         -1   -1    0    0    0  501 -0.00000000000E+00  0.00000000000E+00  0.21308334724E+03  0.21308334724E+03  0.00000000000E+00 0.  1.
          1   -1    0    0  501    0  0.00000000000E+00 -0.00000000000E+00 -0.13632425987E+04  0.13632425987E+04  0.00000000000E+00 0. -1.
         23    2    1    2    0    0 -0.29490849757E+03 -0.12682194898E+03 -0.13145238707E+03  0.35118762518E+03  0.54755724159E+02 0.  0.
    5000000    2    1    2    0    0  0.29490849757E+03  0.12682194898E+03 -0.10187068644E+04  0.12251383207E+04  0.60012115507E+03 0.  0.
         23    2    4    4    0    0  0.30301723004E+03  0.28308313971E+03 -0.93319312167E+03  0.10252813077E+04  0.91634337924E+02 0.  0.
         23    2    4    4    0    0 -0.81087324618E+01 -0.15626119073E+03 -0.85513742707E+02  0.19985701306E+03  0.90260258185E+02 0.  0.
          3    1    3    3  502    0 -0.27487964447E+03 -0.10631902978E+03 -0.13098712160E+03  0.32252159782E+03  0.00000000000E+00 0. -1.
         -3    1    3    3    0  502 -0.20028853105E+02 -0.20502919201E+02 -0.46526546945E+00  0.28666027357E+02  0.00000000000E+00 0.  1.
         15    1    5    5    0    0  0.24685944900E+03  0.23520346035E+03 -0.66780753177E+03  0.74982018681E+03  0.17770000000E+01 0. -1.
        -15    1    5    5    0    0  0.56157781039E+02  0.47879679358E+02 -0.26538558989E+03  0.27546112088E+03  0.17770000000E+01 0.  1.
          2    1    6    6  503    0  0.30669764613E+02 -0.26876061178E+02 -0.15363084683E+01  0.40808300253E+02  0.00000000000E+00 0. -1.
         -2    1    6    6    0  503 -0.38778497075E+02 -0.12938512955E+03 -0.83977434239E+02  0.15904871281E+03  0.00000000000E+00 0.  1.
<mgrwt>
<rscale>  0 0.45701564E+03</rscale>
<asrwt>0</asrwt>
<pdfrwt beam="1">  1        1 0.20972963E+00 0.45701564E+03</pdfrwt>
<pdfrwt beam="2">  1       -1 0.32782053E-01 0.45701564E+03</pdfrwt>
<totfact> 0.75504853E+01</totfact>
</mgrwt>
</event>
<event>
12    1  0.9321077E-008  0.1546287E+04  0.7818608E-02  0.8854243E-01
         -1   -1    0    0    0  501 -0.00000000000E+00  0.00000000000E+00  0.21395980633E+04  0.21395980633E+04  0.00000000000E+00 0.  1.
          1   -1    0    0  501    0  0.00000000000E+00 -0.00000000000E+00 -0.13079947823E+04  0.13079947823E+04  0.00000000000E+00 0. -1.
         23    2    1    2    0    0 -0.12499142051E+04 -0.82106475877E+03 -0.23301638059E+03  0.15163049429E+04  0.91930343100E+02 0.  0.
    5000000    2    1    2    0    0  0.12499142051E+04  0.82106475877E+03  0.10646196616E+04  0.19312879027E+04  0.60002090028E+03 0.  0.
         23    2    4    4    0    0  0.77041886914E+03  0.80007616951E+03  0.82970622729E+03  0.13895076121E+04  0.93015425706E+02 0.  0.
         23    2    4    4    0    0  0.47949533600E+03  0.20988589268E+02  0.23491343434E+03  0.54178029062E+03  0.89360301829E+02 0.  0.
          3    1    3    3  502    0 -0.91114644955E+03 -0.55670432653E+03 -0.18887443352E+03  0.10843344094E+04  0.00000000000E+00 0. -1.
         -3    1    3    3    0  502 -0.33876775559E+03 -0.26436043224E+03 -0.44141947078E+02  0.43197053355E+03  0.00000000000E+00 0.  1.
         15    1    5    5    0    0  0.75175865611E+03  0.75670353623E+03  0.78413614385E+03  0.13238632741E+04  0.17770000000E+01 0.  1.
        -15    1    5    5    0    0  0.18660213034E+02  0.43372633280E+02  0.45570083439E+02  0.65644337927E+02  0.17770000000E+01 0. -1.
          3    1    6    6  503    0  0.17380288309E+03 -0.90699653981E+01  0.41922146337E+02  0.17901724162E+03  0.00000000000E+00 0. -1.
         -3    1    6    6    0  503  0.30569245291E+03  0.30058554666E+02  0.19299128801E+03  0.36276304900E+03  0.00000000000E+00 0.  1.
<mgrwt>
<rscale>  0 0.15462872E+04</rscale>
<asrwt>0</asrwt>
<pdfrwt beam="1">  1        1 0.20122997E+00 0.15462872E+04</pdfrwt>
<pdfrwt beam="2">  1       -1 0.32916893E+00 0.15462872E+04</pdfrwt>
<totfact> 0.17942251E-01</totfact>
</mgrwt>
</event>
<event>
12    1  0.9321077E-008  0.4671636E+03  0.7818608E-02  0.1022724E+00
         -2   -1    0    0    0  501 -0.00000000000E+00  0.00000000000E+00  0.18513659395E+03  0.18513659395E+03  0.00000000000E+00 0. -1.
          2   -1    0    0  501    0  0.00000000000E+00 -0.00000000000E+00 -0.15961680541E+04  0.15961680541E+04  0.00000000000E+00 0.  1.
         23    2    1    2    0    0 -0.23847380566E+03 -0.12764733642E+03 -0.81420959845E+02  0.29691155945E+03  0.91452189429E+02 0.  0.
    5000000    2    1    2    0    0  0.23847380566E+03  0.12764733642E+03 -0.13296105003E+04  0.14843930886E+04  0.60199265818E+03 0.  0.
         23    2    4    4    0    0  0.10089740195E+03  0.35632304556E+03 -0.76460400545E+03  0.85449796268E+03  0.91657430475E+02 0.  0.
         23    2    4    4    0    0  0.13757640372E+03 -0.22867570914E+03 -0.56500649489E+03  0.62989512596E+03  0.79471275489E+02 0.  0.
          2    1    3    3  502    0 -0.92211472789E+02 -0.98117124867E+02 -0.54650424349E+02  0.14531550085E+03  0.00000000000E+00 0.  1.
         -2    1    3    3    0  502 -0.14626233287E+03 -0.29530211549E+02 -0.26770535496E+02  0.15159605860E+03  0.00000000000E+00 0. -1.
         15    1    5    5    0    0 -0.33844533220E+01  0.15141374757E+03 -0.29323632077E+03  0.33004283817E+03  0.17770000000E+01 0.  1.
        -15    1    5    5    0    0  0.10428185527E+03  0.20490929799E+03 -0.47136768468E+03  0.52445512452E+03  0.17770000000E+01 0. -1.
          1    1    6    6  503    0  0.34069864608E+02 -0.88483836623E+02 -0.28227527648E+03  0.29777420427E+03  0.00000000000E+00 0. -1.
         -1    1    6    6    0  503  0.10350653911E+03 -0.14019187252E+03 -0.28273121841E+03  0.33212092169E+03  0.00000000000E+00 0.  1.
<mgrwt>
<rscale>  0 0.46716356E+03</rscale>
<asrwt>0</asrwt>
<pdfrwt beam="1">  1        2 0.24556432E+00 0.46716356E+03</pdfrwt>
<pdfrwt beam="2">  1       -2 0.28482553E-01 0.46716356E+03</pdfrwt>
<totfact> 0.13289361E+02</totfact>
</mgrwt>
</event>
<event>
12    1  0.9321077E-008  0.1412727E+04  0.7818608E-02  0.8944657E-01
         -2   -1    0    0    0  501 -0.00000000000E+00  0.00000000000E+00  0.27977242239E+04  0.27977242239E+04  0.00000000000E+00 0.  1.
          2   -1    0    0  501    0  0.00000000000E+00 -0.00000000000E+00 -0.18257951620E+04  0.18257951620E+04  0.00000000000E+00 0. -1.
         23    2    1    2    0    0 -0.13345640477E+04  0.24989636085E+03  0.22732969398E+04  0.26494484096E+04  0.90490387551E+02 0.  0.
    5000000    2    1    2    0    0  0.13345640477E+04 -0.24989636085E+03 -0.13013678779E+04  0.19740709762E+04  0.59990705718E+03 0.  0.
         23    2    4    4    0    0  0.44765700694E+03 -0.35501010012E+03 -0.41108949360E+03  0.70964824413E+03  0.90427272442E+02 0.  0.
         23    2    4    4    0    0  0.88690704072E+03  0.10511373927E+03 -0.89027838426E+03  0.12644227321E+04  0.92283513957E+02 0.  0.
          3    1    3    3  502    0 -0.99336861438E+03  0.19674843839E+03  0.16189784380E+04  0.19096026641E+04  0.00000000000E+00 0. -1.
         -3    1    3    3    0  502 -0.34119543328E+03  0.53147922465E+02  0.65431850183E+03  0.73984574554E+03  0.00000000000E+00 0.  1.
         15    1    5    5    0    0  0.59043728166E+02 -0.40802267910E+02 -0.92078478504E+02  0.11675868634E+03  0.17770000000E+01 0. -1.
        -15    1    5    5    0    0  0.38861327877E+03 -0.31420783221E+03 -0.31901101509E+03  0.59288955779E+03  0.17770000000E+01 0.  1.
          3    1    6    6  503    0  0.41655982891E+03  0.13681928414E+02 -0.37292159698E+03  0.55926720244E+03  0.00000000000E+00 0. -1.
         -3    1    6    6    0  503  0.47034721181E+03  0.91431810852E+02 -0.51735678727E+03  0.70515552968E+03  0.00000000000E+00 0.  1.
<mgrwt>
<rscale>  0 0.14127269E+04</rscale>
<asrwt>0</asrwt>
<pdfrwt beam="1">  1        2 0.28089156E+00 0.14127269E+04</pdfrwt>
<pdfrwt beam="2">  1       -2 0.43041912E+00 0.14127269E+04</pdfrwt>
<totfact> 0.37160045E-02</totfact>
</mgrwt>
</event>
<event>
12    1  0.9321077E-008  0.1370204E+04  0.7818608E-02  0.8975674E-01
          2   -1    0    0  501    0  0.00000000000E+00  0.00000000000E+00  0.19770887562E+04  0.19770887562E+04  0.00000000000E+00 0. -1.
         -2   -1    0    0    0  501 -0.00000000000E+00 -0.00000000000E+00 -0.11403426967E+04  0.11403426967E+04  0.00000000000E+00 0.  1.
         23    2    1    2    0    0  0.11935367202E+04 -0.62631131417E+03  0.92941379264E+03  0.16397545366E+04  0.90494075376E+02 0.  0.
    5000000    2    1    2    0    0 -0.11935367202E+04  0.62631131417E+03 -0.92667733093E+02  0.14776769163E+04  0.59845300197E+03 0.  0.
         23    2    4    4    0    0 -0.11212750832E+04  0.52571821736E+03  0.82385403850E+02  0.12445201597E+04  0.91682151427E+02 0.  0.
         23    2    4    4    0    0 -0.72261636985E+02  0.10059309681E+03 -0.17505313694E+03  0.23315675661E+03  0.91530088450E+02 0.  0.
          2    1    3    3  502    0  0.69194143870E+03 -0.39562430443E+03  0.50769303253E+03  0.94501521687E+03  0.00000000000E+00 0. -1.
         -2    1    3    3    0  502  0.50159528145E+03 -0.23068700975E+03  0.42172076011E+03  0.69473931971E+03  0.00000000000E+00 0.  1.
         15    1    5    5    0    0 -0.46225226984E+03  0.23806665068E+03 -0.63648343743E+01  0.51999669228E+03  0.17770000000E+01 0.  1.
        -15    1    5    5    0    0 -0.65902281333E+03  0.28765156668E+03  0.88750238224E+02  0.72452346740E+03  0.17770000000E+01 0. -1.
          3    1    6    6  503    0 -0.22387626846E+02 -0.14579718778E+02 -0.18459331157E+02  0.32473388216E+02  0.00000000000E+00 0. -1.
         -3    1    6    6    0  503 -0.49874010138E+02  0.11517281559E+03 -0.15659380579E+03  0.20068336839E+03  0.00000000000E+00 0.  1.
<mgrwt>
<rscale>  0 0.13702036E+04</rscale>
<asrwt>0</asrwt>
<pdfrwt beam="1">  1        2 0.30416750E+00 0.13702036E+04</pdfrwt>
<pdfrwt beam="2">  1       -2 0.17543734E+00 0.13702036E+04</pdfrwt>
<totfact> 0.12801153E+00</totfact>
</mgrwt>
</event>
<event>
12    1  0.9321077E-008  0.8218781E+03  0.7818608E-02  0.9528878E-01
         -2   -1    0    0    0  501 -0.00000000000E+00  0.00000000000E+00  0.57738753872E+03  0.57738753872E+03  0.00000000000E+00 0.  1.
          2   -1    0    0  501    0  0.00000000000E+00 -0.00000000000E+00 -0.14101826830E+04  0.14101826830E+04  0.00000000000E+00 0. -1.
         23    2    1    2    0    0 -0.53670871842E+03 -0.50679774359E+03 -0.31441869247E+02  0.74438878658E+03  0.90696599211E+02 0.  0.
    5000000    2    1    2    0    0  0.53670871842E+03  0.50679774359E+03 -0.80135327507E+03  0.12431814352E+04  0.59869258219E+03 0.  0.
         23    2    4    4    0    0  0.38338553605E+03  0.19562752498E+02 -0.51801995499E+03  0.65110914927E+03  0.90726401641E+02 0.  0.
         23    2    4    4    0    0  0.15332318237E+03  0.48723499109E+03 -0.28333332008E+03  0.59207228591E+03  0.96777511217E+02 0.  0.
          2    1    3    3  502    0 -0.12007728935E+03 -0.12629556025E+03 -0.45018246322E+02  0.17998823977E+03  0.00000000000E+00 0. -1.
         -2    1    3    3    0  502 -0.41663142908E+03 -0.38050218334E+03  0.13576377075E+02  0.56440054681E+03  0.00000000000E+00 0.  1.
         15    1    5    5    0    0  0.32440816072E+03  0.39530757676E+01 -0.47946306008E+03  0.57891645793E+03  0.17770000000E+01 0.  1.
        -15    1    5    5    0    0  0.58977375335E+02  0.15609676730E+02 -0.38556894906E+02  0.72192691340E+02  0.17770000000E+01 0. -1.
          4    1    6    6  503    0  0.26936839365E+02  0.14805721711E+02 -0.14112671946E+02  0.33822628813E+02  0.00000000000E+00 0. -1.
         -4    1    6    6    0  503  0.12638634300E+03  0.47242926938E+03 -0.26922064813E+03  0.55824965710E+03  0.00000000000E+00 0.  1.
<mgrwt>
<rscale>  0 0.82187813E+03</rscale>
<asrwt>0</asrwt>
<pdfrwt beam="1">  1        2 0.21695118E+00 0.82187813E+03</pdfrwt>
<pdfrwt beam="2">  1       -2 0.88828853E-01 0.82187813E+03</pdfrwt>
<totfact> 0.15769477E+01</totfact>
</mgrwt>
</event>
<event>
12    1  0.9321077E-008  0.1032525E+04  0.7818608E-02  0.9273574E-01
          2   -1    0    0  501    0  0.00000000000E+00  0.00000000000E+00  0.10222312675E+04  0.10222312675E+04  0.00000000000E+00 0. -1.
         -2   -1    0    0    0  501 -0.00000000000E+00 -0.00000000000E+00 -0.11749732243E+04  0.11749732243E+04  0.00000000000E+00 0.  1.
         23    2    1    2    0    0 -0.11165454563E+03  0.10045691404E+04 -0.27654335068E+02  0.10150892759E+04  0.89529773785E+02 0.  0.
    5000000    2    1    2    0    0  0.11165454563E+03 -0.10045691404E+04 -0.12508762169E+03  0.11821152159E+04  0.60010297042E+03 0.  0.
         23    2    4    4    0    0  0.16916194989E+03 -0.31109245808E+03  0.19177587050E+03  0.41230377237E+03  0.88442825831E+02 0.  0.
         23    2    4    4    0    0 -0.57507404261E+02 -0.69347668236E+03 -0.31686349219E+03  0.76981144354E+03  0.89387781076E+02 0.  0.
          2    1    3    3  502    0 -0.92393379898E+02  0.76859158683E+03  0.16225694370E+02  0.77429505820E+03  0.00000000000E+00 0. -1.
         -2    1    3    3    0  502 -0.19261165733E+02  0.23597755361E+03 -0.43880029438E+02  0.24079421774E+03  0.00000000000E+00 0.  1.
         15    1    5    5    0    0  0.36024748230E+02 -0.62849247879E+02  0.83387402177E+02  0.11047364851E+03  0.17770000000E+01 0. -1.
        -15    1    5    5    0    0  0.13313720166E+03 -0.24824321020E+03  0.10838846832E+03  0.30183012386E+03  0.17770000000E+01 0.  1.
          4    1    6    6  503    0 -0.50621104371E+02 -0.19457512415E+03 -0.67983792515E+02  0.21223517897E+03  0.00000000000E+00 0. -1.
         -4    1    6    6    0  503 -0.68862998896E+01 -0.49890155821E+03 -0.24887969967E+03  0.55757626458E+03  0.00000000000E+00 0.  1.
<mgrwt>
<rscale>  0 0.10325247E+04</rscale>
<asrwt>0</asrwt>
<pdfrwt beam="1">  1        2 0.15726635E+00 0.10325247E+04</pdfrwt>
<pdfrwt beam="2">  1       -2 0.18076511E+00 0.10325247E+04</pdfrwt>
<totfact> 0.43143053E+00</totfact>
</mgrwt>
</event>
<event>
12    1  0.9321077E-008  0.1358887E+04  0.7818608E-02  0.8984128E-01
         -2   -1    0    0    0  501 -0.00000000000E+00  0.00000000000E+00  0.24676890921E+04  0.24676890921E+04  0.00000000000E+00 0.  1.
          2   -1    0    0  501    0  0.00000000000E+00 -0.00000000000E+00 -0.84480668029E+03  0.84480668029E+03  0.00000000000E+00 0. -1.
         23    2    1    2    0    0 -0.26195354188E+03  0.12748666548E+04  0.13055045101E+04  0.18446524994E+04  0.67053501721E+02 0.  0.
    5000000    2    1    2    0    0  0.26195354188E+03 -0.12748666548E+04  0.31737790178E+03  0.14678432730E+04  0.59994207711E+03 0.  0.
         23    2    4    4    0    0  0.40356212009E+03 -0.10916735517E+04  0.17513204726E+03  0.11805985926E+04  0.92348658030E+02 0.  0.
         23    2    4    4    0    0 -0.14160857821E+03 -0.18319310312E+03  0.14224585451E+03  0.28724468039E+03  0.93074813095E+02 0.  0.
          3    1    3    3  502    0 -0.20128764351E+03  0.10703679442E+04  0.10673917547E+04  0.15249686585E+04  0.00000000000E+00 0. -1.
         -3    1    3    3    0  502 -0.60665898366E+02  0.20449871063E+03  0.23811275539E+03  0.31968384093E+03  0.00000000000E+00 0.  1.
         15    1    5    5    0    0  0.24289827644E+03 -0.77882973981E+03  0.12509187160E+03  0.82536444700E+03  0.17770000000E+01 0. -1.
        -15    1    5    5    0    0  0.16066384365E+03 -0.31284381190E+03  0.50040175666E+02  0.35523414562E+03  0.17770000000E+01 0.  1.
          1    1    6    6  503    0 -0.10622577622E+03 -0.18395594877E+03  0.13314722037E+03  0.25070279000E+03  0.00000000000E+00 0. -1.
         -1    1    6    6    0  503 -0.35382801988E+02  0.76284564848E+00  0.90986341418E+01  0.36541890390E+02  0.00000000000E+00 0.  1.
<mgrwt>
<rscale>  0 0.13588870E+04</rscale>
<asrwt>0</asrwt>
<pdfrwt beam="1">  1        2 0.12997026E+00 0.13588870E+04</pdfrwt>
<pdfrwt beam="2">  1       -2 0.37964447E+00 0.13588870E+04</pdfrwt>
<totfact> 0.31178695E-01</totfact>
</mgrwt>
</event>
<event>
12    1  0.9321077E-008  0.3846810E+03  0.7818608E-02  0.1049217E+00
          1   -1    0    0  501    0  0.00000000000E+00  0.00000000000E+00  0.86277674815E+03  0.86277674815E+03  0.00000000000E+00 0. -1.
         -1   -1    0    0    0  501 -0.00000000000E+00 -0.00000000000E+00 -0.53842959614E+03  0.53842959614E+03  0.00000000000E+00 0.  1.
         23    2    1    2    0    0 -0.24175831553E+03 -0.50287675370E+02  0.63082250610E+03  0.68376098826E+03  0.92823065205E+02 0.  0.
    5000000    2    1    2    0    0  0.24175831553E+03  0.50287675370E+02 -0.30647535409E+03  0.71744535603E+03  0.59985395123E+03 0.  0.
         23    2    4    4    0    0  0.34840007837E+03  0.14594217043E+03 -0.37453854977E+03  0.53938340434E+03  0.89295016070E+02 0.  0.
         23    2    4    4    0    0 -0.10664176284E+03 -0.95654495061E+02  0.68063195677E+02  0.17806195169E+03  0.80939557865E+02 0.  0.
          2    1    3    3  502    0 -0.85974096844E+02 -0.16722787829E+02  0.11936048131E+03  0.14804769995E+03  0.00000000000E+00 0. -1.
         -2    1    3    3    0  502 -0.15578421869E+03 -0.33564887540E+02  0.51146202479E+03  0.53571328831E+03  0.00000000000E+00 0.  1.
         15    1    5    5    0    0  0.27601559157E+03  0.10843638397E+03 -0.23757910430E+03  0.37998690069E+03  0.17770000000E+01 0.  1.
        -15    1    5    5    0    0  0.72384486800E+02  0.37505786457E+02 -0.13695944546E+03  0.15939650365E+03  0.17770000000E+01 0. -1.
          3    1    6    6  503    0 -0.91922917232E+02 -0.73386889598E+02  0.14887230294E+02  0.11856259066E+03  0.00000000000E+00 0. -1.
         -3    1    6    6    0  503 -0.14718845608E+02 -0.22267605463E+02  0.53175965383E+02  0.59499361035E+02  0.00000000000E+00 0.  1.
<mgrwt>
<rscale>  0 0.38468104E+03</rscale>
<asrwt>0</asrwt>
<pdfrwt beam="1">  1        1 0.13273488E+00 0.38468104E+03</pdfrwt>
<pdfrwt beam="2">  1       -1 0.82835322E-01 0.38468104E+03</pdfrwt>
<totfact> 0.30652073E+01</totfact>
</mgrwt>
</event>
<event>
12    1  0.9321077E-008  0.3802794E+03  0.7818608E-02  0.1050831E+00
          2   -1    0    0  501    0  0.00000000000E+00  0.00000000000E+00  0.40602295627E+04  0.40602295627E+04  0.00000000000E+00 0. -1.
         -2   -1    0    0    0  501 -0.00000000000E+00 -0.00000000000E+00 -0.45117008787E+02  0.45117008787E+02  0.00000000000E+00 0.  1.
         23    2    1    2    0    0 -0.95866804536E+02 -0.14467000242E+03  0.15521191524E+04  0.15643598810E+04  0.89599777833E+02 0.  0.
    5000000    2    1    2    0    0  0.95866804536E+02  0.14467000242E+03  0.24629934015E+04  0.25409866905E+04  0.60013082872E+03 0.  0.
         23    2    4    4    0    0  0.15998657363E+03  0.32812498930E+03  0.19307109178E+04  0.19670033189E+04  0.90530085152E+02 0.  0.
         23    2    4    4    0    0 -0.64119769098E+02 -0.18345498688E+03  0.53228248374E+03  0.57398337157E+03  0.91461419983E+02 0.  0.
          3    1    3    3  502    0 -0.71717868628E+02 -0.89238527753E+02  0.63413474604E+03  0.64438640865E+03  0.00000000000E+00 0. -1.
         -3    1    3    3    0  502 -0.24148935908E+02 -0.55431474671E+02  0.91798440636E+03  0.91997347234E+03  0.00000000000E+00 0.  1.
         15    1    5    5    0    0  0.47879145512E+02  0.17495375411E+03  0.11020433961E+04  0.11168724337E+04  0.17770000000E+01 0. -1.
        -15    1    5    5    0    0  0.11210742812E+03  0.15317123519E+03  0.82866752169E+03  0.85013088520E+03  0.17770000000E+01 0.  1.
          4    1    6    6  503    0 -0.60755033520E+02 -0.44287963769E+02  0.17039384990E+03  0.18624355537E+03  0.00000000000E+00 0. -1.
         -4    1    6    6    0  503 -0.33647355783E+01 -0.13916702311E+03  0.36188863384E+03  0.38773981620E+03  0.00000000000E+00 0.  1.
<mgrwt>
<rscale>  0 0.38027943E+03</rscale>
<asrwt>0</asrwt>
<pdfrwt beam="1">  1        2 0.62465042E+00 0.38027943E+03</pdfrwt>
<pdfrwt beam="2">  1       -2 0.69410815E-02 0.38027943E+03</pdfrwt>
<totfact> 0.45436111E+01</totfact>
</mgrwt>
</event>
<event>
12    1  0.9321077E-008  0.1998662E+04  0.7818608E-02  0.8607247E-01
         -1   -1    0    0    0  501 -0.00000000000E+00  0.00000000000E+00  0.22439819304E+04  0.22439819304E+04  0.00000000000E+00 0.  1.
          1   -1    0    0  501    0  0.00000000000E+00 -0.00000000000E+00 -0.25072989070E+04  0.25072989070E+04  0.00000000000E+00 0. -1.
         23    2    1    2    0    0 -0.18536762074E+04 -0.66111906185E+03 -0.13848633068E+04  0.24079801401E+04  0.85604210995E+02 0.  0.
    5000000    2    1    2    0    0  0.18536762074E+04  0.66111906185E+03  0.11215463303E+04  0.23433006973E+04  0.59999840963E+03 0.  0.
         23    2    4    4    0    0  0.87097353658E+03  0.59331599327E+02  0.30997125924E+03  0.93084301086E+03  0.90947178090E+02 0.  0.
         23    2    4    4    0    0  0.98270267078E+03  0.60178746253E+03  0.81157507101E+03  0.14124576865E+04  0.92357625577E+02 0.  0.
          4    1    3    3  502    0 -0.88606329367E+03 -0.27131241383E+03 -0.64261220117E+03  0.11276830350E+04  0.00000000000E+00 0.  1.
         -4    1    3    3    0  502 -0.96761291369E+03 -0.38980664803E+03 -0.74225110566E+03  0.12802971051E+04  0.00000000000E+00 0. -1.
         15    1    5    5    0    0  0.36542920267E+03 -0.53725408184E+01  0.16472059033E+03  0.40087828199E+03  0.17770000000E+01 0. -1.
        -15    1    5    5    0    0  0.50554433391E+03  0.64704140146E+02  0.14525066891E+03  0.52996472887E+03  0.17770000000E+01 0.  1.
          4    1    6    6  503    0  0.97738580679E+03  0.59828098221E+03  0.81400460584E+03  0.14056410094E+04  0.00000000000E+00 0. -1.
         -4    1    6    6    0  503  0.53168639854E+01  0.35064803192E+01 -0.24295348292E+01  0.68166770757E+01  0.00000000000E+00 0.  1.
<mgrwt>
<rscale>  0 0.19986616E+04</rscale>
<asrwt>0</asrwt>
<pdfrwt beam="1">  1        1 0.38573829E+00 0.19986616E+04</pdfrwt>
<pdfrwt beam="2">  1       -1 0.34522799E+00 0.19986616E+04</pdfrwt>
<totfact> 0.19819339E-02</totfact>
</mgrwt>
</event>
<event>
12    1  0.9321077E-008  0.1185684E+04  0.7818608E-02  0.9125480E-01
          2   -1    0    0  501    0  0.00000000000E+00  0.00000000000E+00  0.26573091470E+04  0.26573091470E+04  0.00000000000E+00 0. -1.
         -2   -1    0    0    0  501 -0.00000000000E+00 -0.00000000000E+00 -0.58440445045E+03  0.58440445045E+03  0.00000000000E+00 0.  1.
         23    2    1    2    0    0  0.11707768203E+04 -0.44865459603E+02  0.94491623748E+03  0.15079918354E+04  0.91877131174E+02 0.  0.
    5000000    2    1    2    0    0 -0.11707768203E+04  0.44865459603E+02  0.11279884591E+04  0.17337217621E+04  0.60058464194E+03 0.  0.
         23    2    4    4    0    0 -0.91990647046E+03 -0.22318639815E+02  0.11284419414E+04  0.14589295450E+04  0.91477680204E+02 0.  0.
         23    2    4    4    0    0 -0.25087034985E+03  0.67184099418E+02 -0.45348230303E+00  0.27479221715E+03  0.89782633693E+02 0.  0.
          1    1    3    3  502    0  0.97388595839E+03 -0.17625716669E+02  0.74713118094E+03  0.12275868716E+04  0.00000000000E+00 0. -1.
         -1    1    3    3    0  502  0.19689086192E+03 -0.27239742934E+02  0.19778505655E+03  0.28040496375E+03  0.00000000000E+00 0.  1.
         15    1    5    5    0    0 -0.47230568930E+03 -0.54163729407E+02  0.55482368018E+03  0.73064276329E+03  0.17770000000E+01 0. -1.
        -15    1    5    5    0    0 -0.44760078115E+03  0.31845089592E+02  0.57361826122E+03  0.72828678167E+03  0.17770000000E+01 0.  1.
          1    1    6    6  503    0 -0.12739599114E+03 -0.11640070281E+02  0.69544570993E+01  0.12811555045E+03  0.00000000000E+00 0. -1.
         -1    1    6    6    0  503 -0.12347435871E+03  0.78824169699E+02 -0.74079394023E+01  0.14667666670E+03  0.00000000000E+00 0.  1.
<mgrwt>
<rscale>  0 0.11856841E+04</rscale>
<asrwt>0</asrwt>
<pdfrwt beam="1">  1        2 0.40881679E+00 0.11856841E+04</pdfrwt>
<pdfrwt beam="2">  1       -2 0.89908378E-01 0.11856841E+04</pdfrwt>
<totfact> 0.29478446E+00</totfact>
</mgrwt>
</event>
<event>
12    1  0.9321077E-008  0.8226959E+03  0.7818608E-02  0.9527734E-01
         -2   -1    0    0    0  501 -0.00000000000E+00  0.00000000000E+00  0.66201297289E+03  0.66201297289E+03  0.00000000000E+00 0.  1.
          2   -1    0    0  501    0  0.00000000000E+00 -0.00000000000E+00 -0.14480073170E+04  0.14480073170E+04  0.00000000000E+00 0. -1.
         23    2    1    2    0    0 -0.62307670511E+03  0.38654768804E+03  0.17427088870E+03  0.76101848695E+03  0.10552297974E+03 0.  0.
    5000000    2    1    2    0    0  0.62307670511E+03 -0.38654768804E+03 -0.96026523276E+03  0.13490018029E+04  0.60004404123E+03 0.  0.
         23    2    4    4    0    0  0.39875345845E+02  0.12586955252E+03 -0.16406994830E+03  0.23244683915E+03  0.98383929780E+02 0.  0.
         23    2    4    4    0    0  0.58320135926E+03 -0.51241724055E+03 -0.79619528446E+03  0.11165549638E+04  0.10036335102E+03 0.  0.
          1    1    3    3  502    0 -0.36427087791E+03  0.25988154450E+03  0.61863443703E+02  0.45172865233E+03  0.00000000000E+00 0. -1.
         -1    1    3    3    0  502 -0.25880582719E+03  0.12666614353E+03  0.11240744500E+03  0.30928983462E+03  0.00000000000E+00 0.  1.
         15    1    5    5    0    0  0.40016507662E+02  0.12479062399E+03 -0.91488067953E+02  0.15983505569E+03  0.17770000000E+01 0. -1.
        -15    1    5    5    0    0 -0.14116181765E+00  0.10789285270E+01 -0.72581880346E+02  0.72611783459E+02  0.17770000000E+01 0.  1.
          1    1    6    6  503    0  0.26186461956E+03 -0.21584881871E+03 -0.27933448424E+03  0.43953560220E+03  0.00000000000E+00 0. -1.
         -1    1    6    6    0  503  0.32133673970E+03 -0.29656842184E+03 -0.51686080022E+03  0.67701936155E+03  0.00000000000E+00 0.  1.
<mgrwt>
<rscale>  0 0.82269594E+03</rscale>
<asrwt>0</asrwt>
<pdfrwt beam="1">  1        2 0.22277036E+00 0.82269594E+03</pdfrwt>
<pdfrwt beam="2">  1       -2 0.10184815E+00 0.82269594E+03</pdfrwt>
<totfact> 0.10896601E+01</totfact>
</mgrwt>
</event>
<event>
12    1  0.9321077E-008  0.1614794E+04  0.7818608E-02  0.8811510E-01
         -2   -1    0    0    0  501 -0.00000000000E+00  0.00000000000E+00  0.21211206028E+04  0.21211206028E+04  0.00000000000E+00 0.  1.
          2   -1    0    0  501    0  0.00000000000E+00 -0.00000000000E+00 -0.12806564303E+04  0.12806564303E+04  0.00000000000E+00 0. -1.
         23    2    1    2    0    0 -0.14898977033E+04 -0.54587208585E+03  0.54237375530E+03  0.16793825822E+04  0.91570009174E+02 0.  0.
    5000000    2    1    2    0    0  0.14898977033E+04  0.54587208585E+03  0.29809041722E+03  0.17223944509E+04  0.60001103931E+03 0.  0.
         23    2    4    4    0    0  0.82992022651E+03  0.51229067726E+03  0.37908267937E+03  0.10504303934E+04  0.92146694113E+02 0.  0.
         23    2    4    4    0    0  0.65997747676E+03  0.33581408588E+02 -0.80992262150E+02  0.67196405747E+03  0.90983334595E+02 0.  0.
          1    1    3    3  502    0 -0.11064409922E+04 -0.43027231287E+03  0.37125550748E+03  0.12438555319E+04  0.00000000000E+00 0. -1.
         -1    1    3    3    0  502 -0.38345671109E+03 -0.11559977298E+03  0.17111824782E+03  0.43552705028E+03  0.00000000000E+00 0.  1.
         15    1    5    5    0    0  0.21593880088E+03  0.13051379562E+03  0.14208631526E+03  0.28957744264E+03  0.17770000000E+01 0. -1.
        -15    1    5    5    0    0  0.61398142563E+03  0.38177688164E+03  0.23699636410E+03  0.76085295077E+03  0.17770000000E+01 0.  1.
          1    1    6    6  503    0  0.22799468635E+03 -0.30027896425E+02 -0.16087568219E+02  0.23052561988E+03  0.00000000000E+00 0. -1.
         -1    1    6    6    0  503  0.43198279041E+03  0.63609305013E+02 -0.64904693931E+02  0.44143843759E+03  0.00000000000E+00 0.  1.
<mgrwt>
<rscale>  0 0.16147944E+04</rscale>
<asrwt>0</asrwt>
<pdfrwt beam="1">  1        2 0.19702407E+00 0.16147944E+04</pdfrwt>
<pdfrwt beam="2">  1       -2 0.32632624E+00 0.16147944E+04</pdfrwt>
<totfact> 0.34639961E-01</totfact>
</mgrwt>
</event>
<event>
12    1  0.9321077E-008  0.8433951E+03  0.7818608E-02  0.9499245E-01
          1   -1    0    0  501    0  0.00000000000E+00  0.00000000000E+00  0.92453092938E+03  0.92453092938E+03  0.00000000000E+00 0. -1.
         -1   -1    0    0    0  501 -0.00000000000E+00 -0.00000000000E+00 -0.95642495574E+03  0.95642495574E+03  0.00000000000E+00 0.  1.
         23    2    1    2    0    0  0.70858855690E+03 -0.35777448755E+03 -0.29566259879E+03  0.85153868196E+03  0.87186166568E+02 0.  0.
    5000000    2    1    2    0    0 -0.70858855690E+03  0.35777448755E+03  0.26376857243E+03  0.10294172032E+04  0.60002132583E+03 0.  0.
         23    2    4    4    0    0 -0.69783866067E+03  0.40303882885E+03  0.36260924347E+03  0.88826258794E+03  0.90032592922E+02 0.  0.
         23    2    4    4    0    0 -0.10749896229E+02 -0.45264341306E+02 -0.98840671040E+02  0.14115461522E+03  0.89390862423E+02 0.  0.
          1    1    3    3  502    0  0.31660148580E+03 -0.14953281826E+03 -0.85473262291E+02  0.36041953764E+03  0.00000000000E+00 0. -1.
         -1    1    3    3    0  502  0.39198707111E+03 -0.20824166928E+03 -0.21018933650E+03  0.49111914432E+03  0.00000000000E+00 0.  1.
         15    1    5    5    0    0 -0.50526034587E+03  0.28025115790E+03  0.21589152464E+03  0.61679902461E+03  0.17770000000E+01 0. -1.
        -15    1    5    5    0    0 -0.19257831480E+03  0.12278767095E+03  0.14671771883E+03  0.27146356333E+03  0.17770000000E+01 0.  1.
          3    1    6    6  503    0 -0.53182951282E+01  0.20212984132E+02 -0.62863606245E+02  0.66247128094E+02  0.00000000000E+00 0. -1.
         -3    1    6    6    0  503 -0.54316011013E+01 -0.65477325438E+02 -0.35977064795E+02  0.74907487131E+02  0.00000000000E+00 0.  1.
<mgrwt>
<rscale>  0 0.84339508E+03</rscale>
<asrwt>0</asrwt>
<pdfrwt beam="1">  1        1 0.14223553E+00 0.84339508E+03</pdfrwt>
<pdfrwt beam="2">  1       -1 0.14714230E+00 0.84339508E+03</pdfrwt>
<totfact> 0.65194664E+00</totfact>
</mgrwt>
</event>
<event>
12    1  0.9321077E-008  0.1166268E+04  0.7818608E-02  0.9142906E-01
         -2   -1    0    0    0  501 -0.00000000000E+00  0.00000000000E+00  0.69721455215E+03  0.69721455215E+03  0.00000000000E+00 0.  1.
          2   -1    0    0  501    0  0.00000000000E+00 -0.00000000000E+00 -0.22381482311E+04  0.22381482311E+04  0.00000000000E+00 0. -1.
         23    2    1    2    0    0 -0.28733887510E+03  0.10840759105E+04 -0.31426308453E+03  0.11682487614E+04  0.90882745269E+02 0.  0.
    5000000    2    1    2    0    0  0.28733887510E+03 -0.10840759105E+04 -0.12266705944E+04  0.17671140219E+04  0.60015582163E+03 0.  0.
         23    2    4    4    0    0  0.16532127659E+03 -0.85028005551E+02 -0.43243330551E+02  0.21100053244E+03  0.89946388654E+02 0.  0.
         23    2    4    4    0    0  0.12201759851E+03 -0.99904790491E+03 -0.11834272639E+04  0.15561134894E+04  0.89465593399E+02 0.  0.
          1    1    3    3  502    0 -0.81790046877E+02  0.32391677351E+03 -0.51035383518E+02  0.33795901867E+03  0.00000000000E+00 0. -1.
         -1    1    3    3    0  502 -0.20554882823E+03  0.76015913695E+03 -0.26322770101E+03  0.83028974271E+03  0.00000000000E+00 0.  1.
         15    1    5    5    0    0  0.10956653288E+03 -0.96452310798E+02 -0.13090496191E+02  0.14656872861E+03  0.17770000000E+01 0.  1.
        -15    1    5    5    0    0  0.55754743711E+02  0.11424305247E+02 -0.30152834360E+02  0.64431803836E+02  0.17770000000E+01 0. -1.
          2    1    6    6  503    0  0.12253575696E+03 -0.82777791478E+03 -0.10206151709E+04  0.13198055216E+04  0.00000000000E+00 0. -1.
         -2    1    6    6    0  503 -0.51815845077E+00 -0.17126999013E+03 -0.16281209302E+03  0.23630796779E+03  0.00000000000E+00 0.  1.
<mgrwt>
<rscale>  0 0.11662678E+04</rscale>
<asrwt>0</asrwt>
<pdfrwt beam="1">  1        2 0.34433050E+00 0.11662678E+04</pdfrwt>
<pdfrwt beam="2">  1       -2 0.10726378E+00 0.11662678E+04</pdfrwt>
<totfact> 0.33745213E+00</totfact>
</mgrwt>
</event>
<event>
12    1  0.9321077E-008  0.4459506E+03  0.7818608E-02  0.1028937E+00
         -1   -1    0    0    0  501 -0.00000000000E+00  0.00000000000E+00  0.97690227647E+03  0.97690227647E+03  0.00000000000E+00 0.  1.
          1   -1    0    0  501    0  0.00000000000E+00 -0.00000000000E+00 -0.33926655522E+03  0.33926655522E+03  0.00000000000E+00 0. -1.
         23    2    1    2    0    0 -0.40201104642E+03 -0.35942020451E+02  0.13075316445E+03  0.43308898782E+03  0.86976842196E+02 0.  0.
    5000000    2    1    2    0    0  0.40201104642E+03  0.35942020451E+02  0.50688255680E+03  0.88307984388E+03  0.59999614498E+03 0.  0.
         23    2    4    4    0    0  0.35017975831E+03 -0.39129482477E+02  0.30252105128E+01  0.36280808932E+03  0.86392003396E+02 0.  0.
         23    2    4    4    0    0  0.51831288114E+02  0.75071502928E+02  0.50385734629E+03  0.52027175456E+03  0.92131754563E+02 0.  0.
          1    1    3    3  502    0 -0.17698162725E+03  0.25263510661E+02  0.42615252169E+02  0.18378465952E+03  0.00000000000E+00 0. -1.
         -1    1    3    3    0  502 -0.22502941917E+03 -0.61205531112E+02  0.88137912277E+02  0.24930432830E+03  0.00000000000E+00 0.  1.
         15    1    5    5    0    0  0.67572331143E+02 -0.14423529959E+02  0.34727734501E+02  0.77351350506E+02  0.17770000000E+01 0. -1.
        -15    1    5    5    0    0  0.28260742717E+03 -0.24705952517E+02 -0.31702523988E+02  0.28545673882E+03  0.17770000000E+01 0.  1.
          2    1    6    6  503    0  0.75404089856E+02  0.41435407104E+02  0.28950227352E+03  0.30201694672E+03  0.00000000000E+00 0. -1.
         -2    1    6    6    0  503 -0.23572801741E+02  0.33636095823E+02  0.21435507277E+03  0.21825480784E+03  0.00000000000E+00 0.  1.
<mgrwt>
<rscale>  0 0.44595056E+03</rscale>
<asrwt>0</asrwt>
<pdfrwt beam="1">  1        1 0.52194855E-01 0.44595056E+03</pdfrwt>
<pdfrwt beam="2">  1       -1 0.15029266E+00 0.44595056E+03</pdfrwt>
<totfact> 0.27522677E+01</totfact>
</mgrwt>
</event>
<event>
12    1  0.9321077E-008  0.1266804E+04  0.7818608E-02  0.9056312E-01
         -2   -1    0    0    0  501 -0.00000000000E+00  0.00000000000E+00  0.94794204556E+03  0.94794204556E+03  0.00000000000E+00 0.  1.
          2   -1    0    0  501    0  0.00000000000E+00 -0.00000000000E+00 -0.21713594515E+04  0.21713594515E+04  0.00000000000E+00 0. -1.
         23    2    1    2    0    0 -0.12319751212E+04  0.44878478397E+02  0.64212294305E+02  0.12384185562E+04  0.98896534696E+02 0.  0.
    5000000    2    1    2    0    0  0.12319751212E+04 -0.44878478397E+02 -0.12876297002E+04  0.18808829408E+04  0.59996134473E+03 0.  0.
         23    2    4    4    0    0  0.96471383615E+03 -0.18988096551E+03 -0.11961157585E+04  0.15509434478E+04  0.89471245749E+02 0.  0.
         23    2    4    4    0    0  0.26726128503E+03  0.14500248711E+03 -0.91513941734E+02  0.32993949304E+03  0.89615577831E+02 0.  0.
          1    1    3    3  502    0 -0.44155349512E+03  0.57601118424E+02  0.46723004495E-01  0.44529471149E+03  0.00000000000E+00 0. -1.
         -1    1    3    3    0  502 -0.79042162606E+03 -0.12722640027E+02  0.64165571301E+02  0.79312384471E+03  0.00000000000E+00 0.  1.
         15    1    5    5    0    0  0.71585711954E+03 -0.13269998290E+03 -0.94359952149E+03  0.11918237771E+04  0.17770000000E+01 0.  1.
        -15    1    5    5    0    0  0.24885671661E+03 -0.57180982608E+02 -0.25251623698E+03  0.35911967064E+03  0.17770000000E+01 0. -1.
          1    1    6    6  503    0  0.17659429745E+03  0.51061104649E+02 -0.74199164320E+02  0.19823798396E+03  0.00000000000E+00 0. -1.
         -1    1    6    6    0  503  0.90666987580E+02  0.93941382462E+02 -0.17314777414E+02  0.13170150908E+03  0.00000000000E+00 0.  1.
<mgrwt>
<rscale>  0 0.12668039E+04</rscale>
<asrwt>0</asrwt>
<pdfrwt beam="1">  1        2 0.33405530E+00 0.12668039E+04</pdfrwt>
<pdfrwt beam="2">  1       -2 0.14583724E+00 0.12668039E+04</pdfrwt>
<totfact> 0.16732782E+00</totfact>
</mgrwt>
</event>
<event>
12    1  0.9321077E-008  0.6121971E+03  0.7818608E-02  0.9880419E-01
         -2   -1    0    0    0  501 -0.00000000000E+00  0.00000000000E+00  0.60254755424E+03  0.60254755424E+03  0.00000000000E+00 0.  1.
          2   -1    0    0  501    0  0.00000000000E+00 -0.00000000000E+00 -0.76865098636E+03  0.76865098636E+03  0.00000000000E+00 0. -1.
         23    2    1    2    0    0  0.18897743383E+03 -0.50603676976E+03 -0.29052632874E+01  0.54777985613E+03  0.90932103117E+02 0.  0.
    5000000    2    1    2    0    0 -0.18897743383E+03  0.50603676976E+03 -0.16319816883E+03  0.82341868447E+03  0.59966574420E+03 0.  0.
         23    2    4    4    0    0 -0.30578909452E+03  0.39306177812E+03  0.83895387786E+02  0.51402224243E+03  0.95790907042E+02 0.  0.
         23    2    4    4    0    0  0.11681166069E+03  0.11297499164E+03 -0.24709355661E+03  0.30939644204E+03  0.90898953870E+02 0.  0.
          1    1    3    3  502    0  0.10807679039E+03 -0.17990795673E+03 -0.23205778048E+02  0.21115390987E+03  0.00000000000E+00 0. -1.
         -1    1    3    3    0  502  0.80900643434E+02 -0.32612881303E+03  0.20300514760E+02  0.33662594626E+03  0.00000000000E+00 0.  1.
         15    1    5    5    0    0 -0.82398378909E+02  0.18171642139E+03  0.28890592800E+02  0.20161392494E+03  0.17770000000E+01 0.  1.
        -15    1    5    5    0    0 -0.22339071561E+03  0.21134535673E+03  0.55004794986E+02  0.31240831748E+03  0.17770000000E+01 0. -1.
          2    1    6    6  503    0  0.12044444131E+03  0.11561506519E+03 -0.19331131192E+03  0.25542703470E+03  0.00000000000E+00 0. -1.
         -2    1    6    6    0  503 -0.36327806209E+01 -0.26400735464E+01 -0.53782244697E+02  0.53969407334E+02  0.00000000000E+00 0.  1.
<mgrwt>
<rscale>  0 0.61219715E+03</rscale>
<asrwt>0</asrwt>
<pdfrwt beam="1">  1        2 0.11825400E+00 0.61219715E+03</pdfrwt>
<pdfrwt beam="2">  1       -2 0.92699624E-01 0.61219715E+03</pdfrwt>
<totfact> 0.36798435E+01</totfact>
</mgrwt>
</event>
<event>
12    1  0.9321077E-008  0.6763630E+03  0.7818608E-02  0.9758531E-01
          1   -1    0    0  501    0  0.00000000000E+00  0.00000000000E+00  0.34339071039E+03  0.34339071039E+03  0.00000000000E+00 0. -1.
         -1   -1    0    0    0  501 -0.00000000000E+00 -0.00000000000E+00 -0.17769956418E+04  0.17769956418E+04  0.00000000000E+00 0.  1.
         23    2    1    2    0    0 -0.22879425605E+02 -0.66200996172E+03 -0.61081700627E+03  0.90555900735E+03  0.90327421657E+02 0.  0.
    5000000    2    1    2    0    0  0.22879425605E+02  0.66200996172E+03 -0.82278792514E+03  0.12148273448E+04  0.60003737426E+03 0.  0.
         23    2    4    4    0    0 -0.23462443487E+02  0.48173929665E+03 -0.15260619229E+03  0.51351931576E+03  0.88262118348E+02 0.  0.
         23    2    4    4    0    0  0.46341869092E+02  0.18027066507E+03 -0.67018173285E+03  0.70130802909E+03  0.89690105956E+02 0.  0.
          1    1    3    3  502    0 -0.35883455259E+02 -0.24477416661E+03 -0.27420325483E+03  0.36930940952E+03  0.00000000000E+00 0. -1.
         -1    1    3    3    0  502  0.13004029654E+02 -0.41723579511E+03 -0.33661375144E+03  0.53624959783E+03  0.00000000000E+00 0.  1.
         15    1    5    5    0    0  0.21236083570E+02  0.35245810145E+03 -0.10044337456E+03  0.36710994776E+03  0.17770000000E+01 0. -1.
        -15    1    5    5    0    0 -0.44698527057E+02  0.12928119520E+03 -0.52162817728E+02  0.14640936799E+03  0.17770000000E+01 0.  1.
          3    1    6    6  503    0 -0.95464346871E+01  0.98422336560E+02 -0.23450952833E+03  0.25450502869E+03  0.00000000000E+00 0. -1.
         -3    1    6    6    0  503  0.55888303779E+02  0.81848328508E+02 -0.43567220452E+03  0.44680300040E+03  0.00000000000E+00 0.  1.
<mgrwt>
<rscale>  0 0.67636295E+03</rscale>
<asrwt>0</asrwt>
<pdfrwt beam="1">  1        1 0.52829340E-01 0.67636295E+03</pdfrwt>
<pdfrwt beam="2">  1       -1 0.27338395E+00 0.67636295E+03</pdfrwt>
<totfact> 0.38098627E+00</totfact>
</mgrwt>
</event>
<event>
12    1  0.9321077E-008  0.1437160E+04  0.7818608E-02  0.8927351E-01
         -2   -1    0    0    0  501 -0.00000000000E+00  0.00000000000E+00  0.20935415596E+04  0.20935415596E+04  0.00000000000E+00 0.  1.
          2   -1    0    0  501    0  0.00000000000E+00 -0.00000000000E+00 -0.10417203740E+04  0.10417203740E+04  0.00000000000E+00 0. -1.
         23    2    1    2    0    0 -0.11982293660E+04 -0.69476956693E+03  0.20120964260E+03  0.14026394905E+04  0.91944848682E+02 0.  0.
    5000000    2    1    2    0    0  0.11982293660E+04  0.69476956693E+03  0.85061154303E+03  0.17326224431E+04  0.59998514021E+03 0.  0.
         23    2    4    4    0    0  0.22831596672E+03 -0.74564872961E+02  0.68155700469E+02  0.26566919302E+03  0.90812001830E+02 0.  0.
         23    2    4    4    0    0  0.96991339933E+03  0.76933443989E+03  0.78245584256E+03  0.14669532501E+04  0.84304269237E+02 0.  0.
          3    1    3    3  502    0 -0.74174882836E+03 -0.38532382481E+03  0.98055672888E+02  0.84159413574E+03  0.00000000000E+00 0. -1.
         -3    1    3    3    0  502 -0.45648053769E+03 -0.30944574212E+03  0.10315396971E+03  0.56104535474E+03  0.00000000000E+00 0.  1.
         15    1    5    5    0    0  0.20883514929E+02  0.11956415135E+02 -0.12120908789E+02  0.27002800180E+02  0.17770000000E+01 0. -1.
        -15    1    5    5    0    0  0.20743245179E+03 -0.86521288096E+02  0.80276609258E+02  0.23866639284E+03  0.17770000000E+01 0.  1.
          4    1    6    6  503    0  0.15824336757E+03  0.13304334333E+03  0.95240951890E+02  0.22762322707E+03  0.00000000000E+00 0. -1.
         -4    1    6    6    0  503  0.81167003176E+03  0.63629109656E+03  0.68721489067E+03  0.12393300230E+04  0.00000000000E+00 0.  1.
<mgrwt>
<rscale>  0 0.14371597E+04</rscale>
<asrwt>0</asrwt>
<pdfrwt beam="1">  1        2 0.16026467E+00 0.14371597E+04</pdfrwt>
<pdfrwt beam="2">  1       -2 0.32208332E+00 0.14371597E+04</pdfrwt>
<totfact> 0.52525978E-01</totfact>
</mgrwt>
</event>
<event>
12    1  0.9321077E-008  0.1521540E+04  0.7818608E-02  0.8870254E-01
          2   -1    0    0  501    0  0.00000000000E+00  0.00000000000E+00  0.22643417419E+04  0.22643417419E+04  0.00000000000E+00 0. -1.
         -2   -1    0    0    0  501 -0.00000000000E+00 -0.00000000000E+00 -0.11339054821E+04  0.11339054821E+04  0.00000000000E+00 0.  1.
         23    2    1    2    0    0 -0.12564155775E+04  0.78336355901E+03  0.10132024549E+04  0.17963622388E+04  0.89997274143E+02 0.  0.
    5000000    2    1    2    0    0  0.12564155775E+04 -0.78336355901E+03  0.11723380497E+03  0.16018849852E+04  0.60004430812E+03 0.  0.
         23    2    4    4    0    0  0.86557909343E+02  0.68394922892E+02  0.51335743103E+02  0.15044759532E+03  0.88481541977E+02 0.  0.
         23    2    4    4    0    0  0.11698576682E+04 -0.85175848190E+03  0.65898061870E+02  0.14514373899E+04  0.90931110478E+02 0.  0.
          2    1    3    3  502    0 -0.24332577616E+03  0.19365979439E+03  0.20216383641E+03  0.37092016130E+03  0.00000000000E+00 0. -1.
         -2    1    3    3    0  502 -0.10130898014E+04  0.58970376462E+03  0.81103861848E+03  0.14254420775E+04  0.00000000000E+00 0.  1.
         15    1    5    5    0    0  0.60605842613E+02  0.58380622267E+02 -0.83411847469E+01  0.84581902953E+02  0.17770000000E+01 0. -1.
        -15    1    5    5    0    0  0.25952066730E+02  0.10014300625E+02  0.59676927849E+02  0.65865692368E+02  0.17770000000E+01 0.  1.
          3    1    6    6  503    0  0.28698143468E+03 -0.23399637305E+03 -0.17262669486E+02  0.37068942015E+03  0.00000000000E+00 0.  1.
         -3    1    6    6    0  503  0.88287623349E+03 -0.61776210885E+03  0.83160731356E+02  0.10807479697E+04  0.00000000000E+00 0. -1.
<mgrwt>
<rscale>  0 0.15215400E+04</rscale>
<asrwt>0</asrwt>
<pdfrwt beam="1">  1        2 0.34836027E+00 0.15215400E+04</pdfrwt>
<pdfrwt beam="2">  1       -2 0.17444700E+00 0.15215400E+04</pdfrwt>
<totfact> 0.88446928E-01</totfact>
</mgrwt>
</event>
<event>
12    1  0.9321077E-008  0.8221122E+03  0.7818608E-02  0.9528551E-01
         -2   -1    0    0    0  501 -0.00000000000E+00  0.00000000000E+00  0.12800250108E+04  0.12800250108E+04  0.00000000000E+00 0.  1.
          2   -1    0    0  501    0  0.00000000000E+00 -0.00000000000E+00 -0.24660460225E+04  0.24660460225E+04  0.00000000000E+00 0. -1.
         23    2    1    2    0    0  0.78498394832E+03  0.16168920350E+03  0.10336693456E+04  0.13110680303E+04  0.89910323070E+02 0.  0.
    5000000    2    1    2    0    0 -0.78498394832E+03 -0.16168920350E+03 -0.22196903574E+04  0.24350030030E+04  0.59989261070E+03 0.  0.
         23    2    4    4    0    0 -0.51104803869E+03 -0.22177870078E+03 -0.19690981378E+04  0.20480464484E+04  0.82406847499E+02 0.  0.
         23    2    4    4    0    0 -0.27393590963E+03  0.60089497279E+02 -0.25059221956E+03  0.38695655459E+03  0.91034522976E+02 0.  0.
          1    1    3    3  502    0  0.14131549772E+03  0.65117455152E+02  0.20319914660E+03  0.25593015852E+03  0.00000000000E+00 0. -1.
         -1    1    3    3    0  502  0.64366845060E+03  0.96571748344E+02  0.83047019904E+03  0.10551378717E+04  0.00000000000E+00 0.  1.
         15    1    5    5    0    0 -0.26277391730E+03 -0.12180012844E+03 -0.87524518018E+03  0.92192336236E+03  0.17770000000E+01 0.  1.
        -15    1    5    5    0    0 -0.24827412139E+03 -0.99978572340E+02 -0.10938529576E+04  0.11261230861E+04  0.17770000000E+01 0. -1.
          2    1    6    6  503    0 -0.14976881797E+03  0.31310563945E+02 -0.76145003306E+02  0.17090673415E+03  0.00000000000E+00 0. -1.
         -2    1    6    6    0  503 -0.12416709166E+03  0.28778933334E+02 -0.17444721625E+03  0.21604982044E+03  0.00000000000E+00 0.  1.
<mgrwt>
<rscale>  0 0.82211219E+03</rscale>
<asrwt>0</asrwt>
<pdfrwt beam="1">  1        2 0.37939169E+00 0.82211219E+03</pdfrwt>
<pdfrwt beam="2">  1       -2 0.19692693E+00 0.82211219E+03</pdfrwt>
<totfact> 0.52795523E-01</totfact>
</mgrwt>
</event>
<event>
12    1  0.9321077E-008  0.5700791E+03  0.7818608E-02  0.9969504E-01
         -2   -1    0    0    0  501 -0.00000000000E+00  0.00000000000E+00  0.76575675687E+03  0.76575675687E+03  0.00000000000E+00 0.  1.
          2   -1    0    0  501    0  0.00000000000E+00 -0.00000000000E+00 -0.10437990219E+04  0.10437990219E+04  0.00000000000E+00 0. -1.
         23    2    1    2    0    0 -0.50409741548E+03 -0.13464334907E+02  0.49251228019E+03  0.71060788599E+03  0.89998493816E+02 0.  0.
    5000000    2    1    2    0    0  0.50409741548E+03  0.13464334907E+02 -0.77055454519E+03  0.10989478927E+04  0.59969714960E+03 0.  0.
         23    2    4    4    0    0 -0.75532531603E+01 -0.62665355938E+02 -0.49242120891E+03  0.50446214546E+03  0.89551162778E+02 0.  0.
         23    2    4    4    0    0  0.51165066864E+03  0.76129690845E+02 -0.27813333628E+03  0.59448574728E+03  0.92048978354E+02 0.  0.
          2    1    3    3  502    0 -0.16423728245E+03 -0.31485175914E+02  0.11869785679E+03  0.20507165200E+03  0.00000000000E+00 0. -1.
         -2    1    3    3    0  502 -0.33986013303E+03  0.18020841007E+02  0.37381442340E+03  0.50553623399E+03  0.00000000000E+00 0.  1.
         15    1    5    5    0    0 -0.46304309014E+02 -0.46760207095E+02 -0.25457646426E+03  0.26295045139E+03  0.17770000000E+01 0.  1.
        -15    1    5    5    0    0  0.38751055854E+02 -0.15905148842E+02 -0.23784474465E+03  0.24151169408E+03  0.17770000000E+01 0. -1.
          1    1    6    6  503    0  0.20490199837E+03 -0.13251271414E+02 -0.12243869923E+03  0.23906413407E+03  0.00000000000E+00 0. -1.
         -1    1    6    6    0  503  0.30674867028E+03  0.89380962258E+02 -0.15569463704E+03  0.35542161321E+03  0.00000000000E+00 0.  1.
<mgrwt>
<rscale>  0 0.57007908E+03</rscale>
<asrwt>0</asrwt>
<pdfrwt beam="1">  1        2 0.16058447E+00 0.57007908E+03</pdfrwt>
<pdfrwt beam="2">  1       -2 0.11780873E+00 0.57007908E+03</pdfrwt>
<totfact> 0.13676661E+01</totfact>
</mgrwt>
</event>
<event>
12    1  0.9321077E-008  0.1355245E+04  0.7818608E-02  0.8986867E-01
         -1   -1    0    0    0  501 -0.00000000000E+00  0.00000000000E+00  0.16099123648E+04  0.16099123648E+04  0.00000000000E+00 0.  1.
          1   -1    0    0  501    0  0.00000000000E+00 -0.00000000000E+00 -0.11919641761E+04  0.11919641761E+04  0.00000000000E+00 0. -1.
         23    2    1    2    0    0  0.22655392905E+02 -0.13073963546E+04  0.37444810826E+03  0.13624791928E+04  0.79622045272E+02 0.  0.
    5000000    2    1    2    0    0 -0.22655392905E+02  0.13073963546E+04  0.43500080356E+02  0.14393973481E+04  0.60014496084E+03 0.  0.
         23    2    4    4    0    0 -0.63706072763E+02  0.24286865721E+02  0.93309400120E+02  0.15143666580E+03  0.97867788593E+02 0.  0.
         23    2    4    4    0    0  0.41050679858E+02  0.12831094889E+04 -0.49809319764E+02  0.12879606823E+04  0.91140727338E+02 0.  0.
          4    1    3    3  502    0  0.40538545365E+01 -0.15757768969E+03  0.18667318264E+02  0.15873131637E+03  0.00000000000E+00 0. -1.
         -4    1    3    3    0  502  0.18601538369E+02 -0.11498186649E+04  0.35578079000E+03  0.12037478764E+04  0.00000000000E+00 0.  1.
         15    1    5    5    0    0 -0.80282929727E+02 -0.87903762336E+01  0.74510508007E+02  0.10989810304E+03  0.17770000000E+01 0. -1.
        -15    1    5    5    0    0  0.16576856964E+02  0.33077241955E+02  0.18798892113E+02  0.41538562756E+02  0.17770000000E+01 0.  1.
          3    1    6    6  503    0  0.20810208132E+02  0.11684064462E+04 -0.65539205687E+02  0.11704281591E+04  0.00000000000E+00 0. -1.
         -3    1    6    6    0  503  0.20240471725E+02  0.11470304269E+03  0.15729885923E+02  0.11753252320E+03  0.00000000000E+00 0.  1.
<mgrwt>
<rscale>  0 0.13552447E+04</rscale>
<asrwt>0</asrwt>
<pdfrwt beam="1">  1        1 0.18337910E+00 0.13552447E+04</pdfrwt>
<pdfrwt beam="2">  1       -1 0.24767882E+00 0.13552447E+04</pdfrwt>
<totfact> 0.75347436E-01</totfact>
</mgrwt>
</event>
<event>
12    1  0.9321077E-008  0.6684559E+03  0.7818608E-02  0.9772751E-01
         -1   -1    0    0    0  501 -0.00000000000E+00  0.00000000000E+00  0.58168692805E+03  0.58168692805E+03  0.00000000000E+00 0.  1.
          1   -1    0    0  501    0  0.00000000000E+00 -0.00000000000E+00 -0.17335693737E+04  0.17335693737E+04  0.00000000000E+00 0. -1.
         23    2    1    2    0    0 -0.40048349451E+03  0.42852637443E+03  0.28091346107E+03  0.65479207654E+03  0.76278489339E+02 0.  0.
    5000000    2    1    2    0    0  0.40048349451E+03 -0.42852637443E+03 -0.14327959067E+04  0.16604642252E+04  0.60017951474E+03 0.  0.
         23    2    4    4    0    0 -0.10045489349E+03 -0.12209085916E+03 -0.66402545294E+03  0.68869685512E+03  0.91521541591E+02 0.  0.
         23    2    4    4    0    0  0.50093838800E+03 -0.30643551527E+03 -0.76877045381E+03  0.97176737011E+03  0.92096782652E+02 0.  0.
          4    1    3    3  502    0 -0.29410550202E+03  0.27176918564E+03  0.16806407867E+03  0.43428339955E+03  0.00000000000E+00 0. -1.
         -4    1    3    3    0  502 -0.10637799249E+03  0.15675718879E+03  0.11284938239E+03  0.22050867700E+03  0.00000000000E+00 0.  1.
         15    1    5    5    0    0 -0.13958615388E+02 -0.14026413265E+02 -0.27607160910E+03  0.27678561070E+03  0.17770000000E+01 0. -1.
        -15    1    5    5    0    0 -0.86496278104E+02 -0.10806444590E+03 -0.38795384384E+03  0.41191124441E+03  0.17770000000E+01 0.  1.
          2    1    6    6  503    0  0.14318843513E+03 -0.11023098808E+03 -0.30073989198E+03  0.35085364658E+03  0.00000000000E+00 0.  1.
         -2    1    6    6    0  503  0.35774995287E+03 -0.19620452719E+03 -0.46803056182E+03  0.62091372353E+03  0.00000000000E+00 0. -1.
<mgrwt>
<rscale>  0 0.66845590E+03</rscale>
<asrwt>0</asrwt>
<pdfrwt beam="1">  1        1 0.26670298E+00 0.66845590E+03</pdfrwt>
<pdfrwt beam="2">  1       -1 0.89490296E-01 0.66845590E+03</pdfrwt>
<totfact> 0.58618853E+00</totfact>
</mgrwt>
</event>
<event>
12    1  0.9321077E-008  0.8213142E+03  0.7818608E-02  0.9529668E-01
         -2   -1    0    0    0  501 -0.00000000000E+00  0.00000000000E+00  0.36516600791E+03  0.36516600791E+03  0.00000000000E+00 0.  1.
          2   -1    0    0  501    0  0.00000000000E+00 -0.00000000000E+00 -0.20669446193E+04  0.20669446193E+04  0.00000000000E+00 0. -1.
         23    2    1    2    0    0  0.12918353807E+03  0.70087965207E+03 -0.36675211172E+03  0.80415675227E+03  0.65117567373E+02 0.  0.
    5000000    2    1    2    0    0 -0.12918353807E+03 -0.70087965207E+03 -0.13350264997E+04  0.16279538750E+04  0.60001449228E+03 0.  0.
         23    2    4    4    0    0 -0.27948781051E+03 -0.69263894644E+03 -0.10193893244E+04  0.12670563117E+04  0.91733069276E+02 0.  0.
         23    2    4    4    0    0  0.15030427244E+03 -0.82407056230E+01 -0.31563717525E+03  0.36089756322E+03  0.89224106573E+02 0.  0.
          4    1    3    3  502    0  0.12767331417E+03  0.54728784104E+03 -0.28331195773E+03  0.62935691106E+03  0.00000000000E+00 0. -1.
         -4    1    3    3    0  502  0.15102239046E+01  0.15359181103E+03 -0.83440153990E+02  0.17479984122E+03  0.00000000000E+00 0.  1.
         15    1    5    5    0    0 -0.70234206226E+02 -0.29193880442E+03 -0.42080170982E+03  0.51695100926E+03  0.17770000000E+01 0.  1.
        -15    1    5    5    0    0 -0.20925360428E+03 -0.40070014202E+03 -0.59858761462E+03  0.75010530249E+03  0.17770000000E+01 0. -1.
          4    1    6    6  503    0  0.53482183856E+01  0.25363254579E+02 -0.40092430824E+02  0.47742026896E+02  0.00000000000E+00 0. -1.
         -4    1    6    6    0  503  0.14495605405E+03 -0.33603960202E+02 -0.27554474443E+03  0.31315553632E+03  0.00000000000E+00 0.  1.
<mgrwt>
<rscale>  0 0.82131422E+03</rscale>
<asrwt>0</asrwt>
<pdfrwt beam="1">  1        2 0.31799148E+00 0.82131422E+03</pdfrwt>
<pdfrwt beam="2">  1       -2 0.56179385E-01 0.82131422E+03</pdfrwt>
<totfact> 0.18706447E+01</totfact>
</mgrwt>
</event>
<event>
12    1  0.9321077E-008  0.1215554E+04  0.7818608E-02  0.9099350E-01
          1   -1    0    0  501    0  0.00000000000E+00  0.00000000000E+00  0.39907775071E+04  0.39907775071E+04  0.00000000000E+00 0. -1.
         -1   -1    0    0    0  501 -0.00000000000E+00 -0.00000000000E+00 -0.44456481012E+03  0.44456481012E+03  0.00000000000E+00 0.  1.
         23    2    1    2    0    0 -0.72894063590E+02 -0.11523477832E+04  0.25358662327E+04  0.27879000207E+04  0.92466304757E+02 0.  0.
    5000000    2    1    2    0    0  0.72894063590E+02  0.11523477832E+04  0.10103464643E+04  0.16474422965E+04  0.60003931894E+03 0.  0.
         23    2    4    4    0    0  0.17206631706E+03  0.69394391493E+02  0.11774292173E+03  0.23768251515E+03  0.90593506137E+02 0.  0.
         23    2    4    4    0    0 -0.99172253469E+02  0.10829533917E+04  0.89260354255E+03  0.14097597813E+04  0.89768437088E+02 0.  0.
          3    1    3    3  502    0 -0.84024732222E+02 -0.77235897377E+03  0.16402111434E+04  0.18149080238E+04  0.00000000000E+00 0. -1.
         -3    1    3    3    0  502  0.11130668632E+02 -0.37998880946E+03  0.89565508929E+03  0.97299199692E+03  0.00000000000E+00 0.  1.
         15    1    5    5    0    0  0.14431432379E+03  0.51227800721E+02  0.48099179667E+02  0.16052289690E+03  0.17770000000E+01 0. -1.
        -15    1    5    5    0    0  0.27751993274E+02  0.18166590772E+02  0.69643742060E+02  0.77159618247E+02  0.17770000000E+01 0.  1.
          4    1    6    6  503    0 -0.14242273304E+02  0.24960859843E+03  0.15913929485E+03  0.29636566928E+03  0.00000000000E+00 0. -1.
         -4    1    6    6    0  503 -0.84929980164E+02  0.83334479331E+03  0.73346424770E+03  0.11133941120E+04  0.00000000000E+00 0.  1.
<mgrwt>
<rscale>  0 0.12155539E+04</rscale>
<asrwt>0</asrwt>
<pdfrwt beam="1">  1        1 0.61396575E+00 0.12155539E+04</pdfrwt>
<pdfrwt beam="2">  1       -1 0.68394589E-01 0.12155539E+04</pdfrwt>
<totfact> 0.21475191E-01</totfact>
</mgrwt>
</event>
<event>
12    1  0.9321077E-008  0.9046701E+03  0.7818608E-02  0.9419762E-01
         -1   -1    0    0    0  501 -0.00000000000E+00  0.00000000000E+00  0.40269452819E+03  0.40269452819E+03  0.00000000000E+00 0.  1.
          1   -1    0    0  501    0  0.00000000000E+00 -0.00000000000E+00 -0.27414588267E+04  0.27414588267E+04  0.00000000000E+00 0. -1.
         23    2    1    2    0    0  0.80701072693E+03  0.40199288064E+03 -0.15792073719E+04  0.18213700110E+04  0.10309318156E+03 0.  0.
    5000000    2    1    2    0    0 -0.80701072693E+03 -0.40199288064E+03 -0.75955692659E+03  0.13227833439E+04  0.59997038311E+03 0.  0.
         23    2    4    4    0    0 -0.35610661756E+03 -0.19259794559E+03 -0.54548645742E+01  0.41521251908E+03  0.92009720865E+02 0.  0.
         23    2    4    4    0    0 -0.45090410937E+03 -0.20939493505E+03 -0.75410206202E+03  0.90757082479E+03  0.88623514913E+02 0.  0.
          3    1    3    3  502    0  0.17586689541E+03  0.13602266207E+03 -0.36930398259E+03  0.43106468315E+03  0.00000000000E+00 0. -1.
         -3    1    3    3    0  502  0.63114383152E+03  0.26597021857E+03 -0.12099033893E+04  0.13903053279E+04  0.00000000000E+00 0.  1.
         15    1    5    5    0    0 -0.26467446407E+03 -0.14717891264E+03 -0.44088085518E+02  0.30604104507E+03  0.17770000000E+01 0. -1.
        -15    1    5    5    0    0 -0.91432153492E+02 -0.45419032950E+02  0.38633220944E+02  0.10917147400E+03  0.17770000000E+01 0.  1.
          4    1    6    6  503    0 -0.28905599144E+03 -0.13527322600E+03 -0.40434539415E+03  0.51511883059E+03  0.00000000000E+00 0. -1.
         -4    1    6    6    0  503 -0.16184811792E+03 -0.74121709055E+02 -0.34975666787E+03  0.39245199420E+03  0.00000000000E+00 0.  1.
<mgrwt>
<rscale>  0 0.90467010E+03</rscale>
<asrwt>0</asrwt>
<pdfrwt beam="1">  1        1 0.42176289E+00 0.90467010E+03</pdfrwt>
<pdfrwt beam="2">  1       -1 0.61953006E-01 0.90467010E+03</pdfrwt>
<totfact> 0.25166990E+00</totfact>
</mgrwt>
</event>
<event>
12    1  0.9321077E-008  0.6677360E+03  0.7818608E-02  0.9774056E-01
         -1   -1    0    0    0  501 -0.00000000000E+00  0.00000000000E+00  0.32107574424E+03  0.32107574424E+03  0.00000000000E+00 0.  1.
          1   -1    0    0  501    0  0.00000000000E+00 -0.00000000000E+00 -0.14657582742E+04  0.14657582742E+04  0.00000000000E+00 0. -1.
         23    2    1    2    0    0 -0.37476576437E+03 -0.38837935552E+03 -0.60657167850E+03  0.81684977908E+03  0.89590504418E+02 0.  0.
    5000000    2    1    2    0    0  0.37476576437E+03  0.38837935552E+03 -0.53811085142E+03  0.96998423933E+03  0.60001519497E+03 0.  0.
         23    2    4    4    0    0  0.15180187975E+03 -0.13805581937E+03 -0.11198214069E+03  0.25113735853E+03  0.91797347781E+02 0.  0.
         23    2    4    4    0    0  0.22296388462E+03  0.52643517490E+03 -0.42612871073E+03  0.71884688080E+03  0.91149726890E+02 0.  0.
          3    1    3    3  502    0 -0.18802465038E+03 -0.21522373642E+03 -0.25698211427E+03  0.38433622380E+03  0.00000000000E+00 0. -1.
         -3    1    3    3    0  502 -0.18674111399E+03 -0.17315561910E+03 -0.34958956424E+03  0.43251355528E+03  0.00000000000E+00 0.  1.
         15    1    5    5    0    0  0.53252640853E+02 -0.43573653453E+01 -0.51878626733E+02  0.74494161055E+02  0.17770000000E+01 0.  1.
        -15    1    5    5    0    0  0.98549238896E+02 -0.13369845403E+03 -0.60103513957E+02  0.17664319748E+03  0.17770000000E+01 0. -1.
          1    1    6    6  503    0  0.17535067511E+03  0.33418570333E+03 -0.24130053296E+03  0.44794407104E+03  0.00000000000E+00 0. -1.
         -1    1    6    6    0  503  0.47613209508E+02  0.19224947157E+03 -0.18482817778E+03  0.27090280976E+03  0.00000000000E+00 0.  1.
<mgrwt>
<rscale>  0 0.66773597E+03</rscale>
<asrwt>0</asrwt>
<pdfrwt beam="1">  1        1 0.22550128E+00 0.66773597E+03</pdfrwt>
<pdfrwt beam="2">  1       -1 0.49396268E-01 0.66773597E+03</pdfrwt>
<totfact> 0.29599506E+01</totfact>
</mgrwt>
</event>
<event>
12    1  0.9321077E-008  0.8252269E+03  0.7818608E-02  0.9524203E-01
          2   -1    0    0  501    0  0.00000000000E+00  0.00000000000E+00  0.29160791353E+04  0.29160791353E+04  0.00000000000E+00 0. -1.
         -2   -1    0    0    0  501 -0.00000000000E+00 -0.00000000000E+00 -0.40728624499E+03  0.40728624499E+03  0.00000000000E+00 0.  1.
         23    2    1    2    0    0 -0.79330585772E+03 -0.84461747165E+02  0.22949102956E+03  0.83505304926E+03  0.90440542929E+02 0.  0.
    5000000    2    1    2    0    0  0.79330585772E+03  0.84461747165E+02  0.22793018608E+04  0.24883123311E+04  0.60001109468E+03 0.  0.
         23    2    4    4    0    0  0.17080774085E+03 -0.71570496433E+02  0.13300873204E+03  0.24600510538E+03  0.92355664594E+02 0.  0.
         23    2    4    4    0    0  0.62249811687E+03  0.15603224360E+03  0.21462931288E+04  0.22423072257E+04  0.97557845880E+02 0.  0.
          2    1    3    3  502    0 -0.67850268376E+03 -0.72259727629E+02  0.22855189408E+03  0.71959942218E+03  0.00000000000E+00 0. -1.
         -2    1    3    3    0  502 -0.11480317396E+03 -0.12202019536E+02  0.93913547925E+00  0.11545362708E+03  0.00000000000E+00 0.  1.
         15    1    5    5    0    0  0.86447476050E+02 -0.85161365510E+02  0.82133911444E+02  0.14654269490E+03  0.17770000000E+01 0. -1.
        -15    1    5    5    0    0  0.84360264801E+02  0.13590869077E+02  0.50874820592E+02  0.99462410482E+02  0.17770000000E+01 0.  1.
          3    1    6    6  503    0  0.56652989415E+03  0.11948924193E+03  0.18462534706E+04  0.19349123178E+04  0.00000000000E+00 0. -1.
         -3    1    6    6    0  503  0.55968222716E+02  0.36543001667E+02  0.30003965820E+03  0.30739490792E+03  0.00000000000E+00 0.  1.
<mgrwt>
<rscale>  0 0.82522688E+03</rscale>
<asrwt>0</asrwt>
<pdfrwt beam="1">  1        2 0.44862755E+00 0.82522688E+03</pdfrwt>
<pdfrwt beam="2">  1       -2 0.62659424E-01 0.82522688E+03</pdfrwt>
<totfact> 0.48639079E+00</totfact>
</mgrwt>
</event>
<event>
12    1  0.9321077E-008  0.7516969E+03  0.7818608E-02  0.9632692E-01
         -1   -1    0    0    0  501 -0.00000000000E+00  0.00000000000E+00  0.74368437671E+03  0.74368437671E+03  0.00000000000E+00 0.  1.
          1   -1    0    0  501    0  0.00000000000E+00 -0.00000000000E+00 -0.10107817961E+04  0.10107817961E+04  0.00000000000E+00 0. -1.
         23    2    1    2    0    0 -0.10756886543E+03 -0.69300659685E+03  0.17615214319E+03  0.73059226281E+03  0.10443310221E+03 0.  0.
    5000000    2    1    2    0    0  0.10756886543E+03  0.69300659685E+03 -0.44324956257E+03  0.10238739100E+04  0.60001533708E+03 0.  0.
         23    2    4    4    0    0  0.24452473202E+03  0.36514161769E+03 -0.47764338999E+03  0.65548896433E+03  0.91661490387E+02 0.  0.
         23    2    4    4    0    0 -0.13695586659E+03  0.32786497917E+03  0.34393827417E+02  0.36838494566E+03  0.90951519312E+02 0.  0.
          4    1    3    3  502    0 -0.10148587061E+03 -0.65478407457E+03  0.19029362917E+03  0.68938612660E+03  0.00000000000E+00 0. -1.
         -4    1    3    3    0  502 -0.60829948198E+01 -0.38222522285E+02 -0.14141485984E+02  0.41206136214E+02  0.00000000000E+00 0.  1.
         15    1    5    5    0    0  0.12551535958E+03  0.24747681964E+03 -0.33948492863E+03  0.43846557019E+03  0.17770000000E+01 0.  1.
        -15    1    5    5    0    0  0.11900937244E+03  0.11766479805E+03 -0.13815846136E+03  0.21702339414E+03  0.17770000000E+01 0. -1.
          1    1    6    6  503    0 -0.32309359688E+02  0.12315984678E+03  0.52596868276E+02  0.13776310513E+03  0.00000000000E+00 0. -1.
         -1    1    6    6    0  503 -0.10464650690E+03  0.20470513238E+03 -0.18203040859E+02  0.23062184053E+03  0.00000000000E+00 0.  1.
<mgrwt>
<rscale>  0 0.75169688E+03</rscale>
<asrwt>0</asrwt>
<pdfrwt beam="1">  1        1 0.15550489E+00 0.75169688E+03</pdfrwt>
<pdfrwt beam="2">  1       -1 0.11441298E+00 0.75169688E+03</pdfrwt>
<totfact> 0.10643870E+01</totfact>
</mgrwt>
</event>
<event>
12    1  0.9321077E-008  0.5729245E+03  0.7818608E-02  0.9963228E-01
          2   -1    0    0  501    0  0.00000000000E+00  0.00000000000E+00  0.12482125785E+04  0.12482125785E+04  0.00000000000E+00 0. -1.
         -2   -1    0    0    0  501 -0.00000000000E+00 -0.00000000000E+00 -0.41529485181E+03  0.41529485181E+03  0.00000000000E+00 0.  1.
         23    2    1    2    0    0  0.31817881691E+03 -0.42558510345E+03  0.64243698411E+03  0.83963044191E+03  0.99466379363E+02 0.  0.
    5000000    2    1    2    0    0 -0.31817881691E+03  0.42558510345E+03  0.19048074255E+03  0.82387698836E+03  0.60010827262E+03 0.  0.
         23    2    4    4    0    0 -0.11717194163E+03 -0.13410005199E+02  0.28747700675E+03  0.32360569484E+03  0.90379888124E+02 0.  0.
         23    2    4    4    0    0 -0.20100687528E+03  0.43899510865E+03 -0.96996264209E+02  0.50027129352E+03  0.87992173071E+02 0.  0.
          3    1    3    3  502    0  0.97769322708E+02 -0.71262707280E+02  0.17854899238E+03  0.21567790010E+03  0.00000000000E+00 0. -1.
         -3    1    3    3    0  502  0.22040949420E+03 -0.35432239617E+03  0.46388799174E+03  0.62395254182E+03  0.00000000000E+00 0.  1.
         15    1    5    5    0    0 -0.69804793203E+01  0.95808846430E+01 -0.27595450778E+01  0.12300132525E+02  0.17770000000E+01 0.  1.
        -15    1    5    5    0    0 -0.11019146231E+03 -0.22990889842E+02  0.29023655183E+03  0.31130556232E+03  0.17770000000E+01 0. -1.
          3    1    6    6  503    0 -0.29033373803E+02  0.75610685287E+02 -0.50789896186E+02  0.95600868608E+02  0.00000000000E+00 0. -1.
         -3    1    6    6    0  503 -0.17197350148E+03  0.36338442337E+03 -0.46206368022E+02  0.40467042492E+03  0.00000000000E+00 0.  1.
<mgrwt>
<rscale>  0 0.57292447E+03</rscale>
<asrwt>0</asrwt>
<pdfrwt beam="1">  1        2 0.19203270E+00 0.57292447E+03</pdfrwt>
<pdfrwt beam="2">  1       -2 0.63891516E-01 0.57292447E+03</pdfrwt>
<totfact> 0.41756280E+01</totfact>
</mgrwt>
</event>
<event>
12    1  0.9321077E-008  0.9742718E+03  0.7818608E-02  0.9337222E-01
         -2   -1    0    0    0  501 -0.00000000000E+00  0.00000000000E+00  0.93281870842E+03  0.93281870842E+03  0.00000000000E+00 0. -1.
          2   -1    0    0  501    0  0.00000000000E+00 -0.00000000000E+00 -0.12481062446E+04  0.12481062446E+04  0.00000000000E+00 0.  1.
         23    2    1    2    0    0  0.61017351995E+03 -0.68509966356E+03  0.23872642188E+03  0.95267756614E+03  0.94503793888E+02 0.  0.
    5000000    2    1    2    0    0 -0.61017351995E+03  0.68509966356E+03 -0.55401395807E+03  0.12282473869E+04  0.59998908675E+03 0.  0.
         23    2    4    4    0    0 -0.63193249227E+03  0.42794020921E+03 -0.22470270794E+03  0.79995061793E+03  0.83415746289E+02 0.  0.
         23    2    4    4    0    0  0.21758972312E+02  0.25715945435E+03 -0.32931125013E+03  0.42829676897E+03  0.91584851416E+02 0.  0.
          3    1    3    3  502    0  0.36205988141E+03 -0.47102850251E+03  0.13907486383E+03  0.61016147506E+03  0.00000000000E+00 0. -1.
         -3    1    3    3    0  502  0.24811363854E+03 -0.21407116105E+03  0.99651558041E+02  0.34251609107E+03  0.00000000000E+00 0.  1.
         15    1    5    5    0    0 -0.85208137687E+02  0.59516552572E+02 -0.16544771729E+01  0.10396413700E+03  0.17770000000E+01 0.  1.
        -15    1    5    5    0    0 -0.54672435458E+03  0.36842365664E+03 -0.22304823077E+03  0.69598648093E+03  0.17770000000E+01 0. -1.
          2    1    6    6  503    0  0.21953481626E+02  0.34735403715E+02 -0.10340209494E+03  0.11126768114E+03  0.00000000000E+00 0. -1.
         -2    1    6    6    0  503 -0.19450931419E+00  0.22242405063E+03 -0.22590915519E+03  0.31702908783E+03  0.00000000000E+00 0.  1.
<mgrwt>
<rscale>  0 0.97427177E+03</rscale>
<asrwt>0</asrwt>
<pdfrwt beam="1">  1        2 0.19201635E+00 0.97427177E+03</pdfrwt>
<pdfrwt beam="2">  1       -2 0.14351057E+00 0.97427177E+03</pdfrwt>
<totfact> 0.59366378E+00</totfact>
</mgrwt>
</event>
<event>
12    1  0.9321077E-008  0.3985447E+03  0.7818608E-02  0.1044285E+00
         -2   -1    0    0    0  501 -0.00000000000E+00  0.00000000000E+00  0.31606856552E+03  0.31606856552E+03  0.00000000000E+00 0.  1.
          2   -1    0    0  501    0  0.00000000000E+00 -0.00000000000E+00 -0.68029549410E+03  0.68029549410E+03  0.00000000000E+00 0. -1.
         23    2    1    2    0    0 -0.16540697457E+03  0.44207502993E+02  0.99994862358E+02  0.21871153715E+03  0.92314643626E+02 0.  0.
    5000000    2    1    2    0    0  0.16540697457E+03 -0.44207502993E+02 -0.46422179094E+03  0.77765252247E+03  0.59993983362E+03 0.  0.
         23    2    4    4    0    0 -0.26811815923E+02  0.24471546534E+03 -0.22949754307E+03  0.34846438040E+03  0.90298226344E+02 0.  0.
         23    2    4    4    0    0  0.19221879049E+03 -0.28892296833E+03 -0.23472424788E+03  0.42918814207E+03  0.93179631401E+02 0.  0.
          2    1    3    3  502    0 -0.72763214462E+02 -0.59625882912E+01 -0.64825772911E+00  0.73009986139E+02  0.00000000000E+00 0. -1.
         -2    1    3    3    0  502 -0.92643760107E+02  0.50170091284E+02  0.10064312009E+03  0.14570155101E+03  0.00000000000E+00 0.  1.
         15    1    5    5    0    0 -0.55376773240E+02  0.12342792429E+03 -0.96339535421E+02  0.16608884166E+03  0.17770000000E+01 0. -1.
        -15    1    5    5    0    0  0.28564957317E+02  0.12128754105E+03 -0.13315800765E+03  0.18237553873E+03  0.17770000000E+01 0.  1.
          2    1    6    6  503    0 -0.82651538867E+01 -0.31307694243E+02 -0.27952280915E+02  0.42776331025E+02  0.00000000000E+00 0. -1.
         -2    1    6    6    0  503  0.20048394438E+03 -0.25761527409E+03 -0.20677196696E+03  0.38641181105E+03  0.00000000000E+00 0.  1.
<mgrwt>
<rscale>  0 0.39854475E+03</rscale>
<asrwt>0</asrwt>
<pdfrwt beam="1">  1        2 0.10466084E+00 0.39854475E+03</pdfrwt>
<pdfrwt beam="2">  1       -2 0.48625933E-01 0.39854475E+03</pdfrwt>
<totfact> 0.17588275E+02</totfact>
</mgrwt>
</event>
<event>
12    1  0.9321077E-008  0.1140896E+04  0.7818608E-02  0.9166223E-01
          2   -1    0    0  501    0  0.00000000000E+00  0.00000000000E+00  0.11965205333E+04  0.11965205333E+04  0.00000000000E+00 0.  1.
         -2   -1    0    0    0  501 -0.00000000000E+00 -0.00000000000E+00 -0.11582622634E+04  0.11582622634E+04  0.00000000000E+00 0. -1.
         23    2    1    2    0    0 -0.57345314134E+03 -0.92064950915E+03 -0.15562414562E+03  0.11001212214E+04  0.97998995059E+02 0.  0.
    5000000    2    1    2    0    0  0.57345314134E+03  0.92064950915E+03  0.19388241552E+03  0.12546615753E+04  0.60011769975E+03 0.  0.
         23    2    4    4    0    0  0.64211034574E+03  0.71327320945E+03  0.25719471229E+02  0.96448855674E+03  0.92262221196E+02 0.  0.
         23    2    4    4    0    0 -0.68657204399E+02  0.20737629970E+03  0.16816294429E+03  0.29017301859E+03  0.90569660992E+02 0.  0.
          3    1    3    3  502    0 -0.29914491856E+03 -0.44073740845E+03 -0.12114139085E+03  0.54627134474E+03  0.00000000000E+00 0. -1.
         -3    1    3    3    0  502 -0.27430822277E+03 -0.47991210070E+03 -0.34482754771E+02  0.55384987664E+03  0.00000000000E+00 0.  1.
         15    1    5    5    0    0  0.18035350704E+03  0.21153523137E+03  0.48684703697E+02  0.28221959485E+03  0.17770000000E+01 0. -1.
        -15    1    5    5    0    0  0.46175683869E+03  0.50173797808E+03 -0.22965232468E+02  0.68226896189E+03  0.17770000000E+01 0.  1.
          1    1    6    6  503    0  0.22414741258E+02  0.36099411778E+02  0.29881458419E+02  0.51946989457E+02  0.00000000000E+00 0. -1.
         -1    1    6    6    0  503 -0.91071945657E+02  0.17127688792E+03  0.13828148587E+03  0.23822602913E+03  0.00000000000E+00 0.  1.
<mgrwt>
<rscale>  0 0.11408963E+04</rscale>
<asrwt>0</asrwt>
<pdfrwt beam="1">  1        2 0.18408008E+00 0.11408963E+04</pdfrwt>
<pdfrwt beam="2">  1       -2 0.17819420E+00 0.11408963E+04</pdfrwt>
<totfact> 0.34701112E+00</totfact>
</mgrwt>
</event>
<event>
12    1  0.9321077E-008  0.1643066E+04  0.7818608E-02  0.8794519E-01
         -2   -1    0    0    0  501 -0.00000000000E+00  0.00000000000E+00  0.18958577377E+04  0.18958577377E+04  0.00000000000E+00 0.  1.
          2   -1    0    0  501    0  0.00000000000E+00 -0.00000000000E+00 -0.14312168717E+04  0.14312168717E+04  0.00000000000E+00 0. -1.
         23    2    1    2    0    0 -0.75246371785E+02 -0.15889021602E+04  0.26531426537E+03  0.16153522637E+04  0.93269422779E+02 0.  0.
    5000000    2    1    2    0    0  0.75246371785E+02  0.15889021602E+04  0.19932660068E+03  0.17117223457E+04  0.59999183645E+03 0.  0.
         23    2    4    4    0    0 -0.24787050188E+03  0.62745415417E+03  0.10945701098E+03  0.68950882294E+03  0.91121229047E+02 0.  0.
         23    2    4    4    0    0  0.32311687366E+03  0.96144800603E+03  0.89869589700E+02  0.10222135227E+04  0.89761687598E+02 0.  0.
          4    1    3    3  502    0 -0.90628353404E+02 -0.11396876764E+04  0.16960038404E+03  0.11557966034E+04  0.00000000000E+00 0. -1.
         -4    1    3    3    0  502  0.15381981619E+02 -0.44921448382E+03  0.95713881333E+02  0.45955566030E+03  0.00000000000E+00 0.  1.
         15    1    5    5    0    0 -0.26447014019E+02  0.13903585451E+03 -0.30179714862E+01  0.14157216983E+03  0.17770000000E+01 0. -1.
        -15    1    5    5    0    0 -0.22142348786E+03  0.48841829966E+03  0.11247498247E+03  0.54793665312E+03  0.17770000000E+01 0.  1.
          1    1    6    6  503    0  0.26044949549E+03  0.70515536538E+03  0.33785294361E+02  0.75247556448E+03  0.00000000000E+00 0. -1.
         -1    1    6    6    0  503  0.62667378171E+02  0.25629264066E+03  0.56084295339E+02  0.26973795826E+03  0.00000000000E+00 0.  1.
<mgrwt>
<rscale>  0 0.16430657E+04</rscale>
<asrwt>0</asrwt>
<pdfrwt beam="1">  1        2 0.22018721E+00 0.16430657E+04</pdfrwt>
<pdfrwt beam="2">  1       -2 0.29167042E+00 0.16430657E+04</pdfrwt>
<totfact> 0.46075348E-01</totfact>
</mgrwt>
</event>
<event>
12    1  0.9321077E-008  0.9495185E+03  0.7818608E-02  0.9365714E-01
         -2   -1    0    0    0  501 -0.00000000000E+00  0.00000000000E+00  0.13216416298E+04  0.13216416298E+04  0.00000000000E+00 0.  1.
          2   -1    0    0  501    0  0.00000000000E+00 -0.00000000000E+00 -0.97217031104E+03  0.97217031104E+03  0.00000000000E+00 0. -1.
         23    2    1    2    0    0 -0.61882868453E+03 -0.60855651439E+03  0.76431017808E+03  0.11600755775E+04  0.91188404784E+02 0.  0.
    5000000    2    1    2    0    0  0.61882868453E+03  0.60855651439E+03 -0.41483885931E+03  0.11337363634E+04  0.59998074169E+03 0.  0.
         23    2    4    4    0    0  0.37152648893E+03  0.15973654768E+02 -0.27205428373E+03  0.46976654303E+03  0.91542241798E+02 0.  0.
         23    2    4    4    0    0  0.24730219560E+03  0.59258285962E+03 -0.14278457558E+03  0.66396982032E+03  0.90308724990E+02 0.  0.
          4    1    3    3  502    0 -0.37775248713E+03 -0.42227381390E+03  0.46468031454E+03  0.73276183727E+03  0.00000000000E+00 0. -1.
         -4    1    3    3    0  502 -0.24107619740E+03 -0.18628270049E+03  0.29962986354E+03  0.42731374022E+03  0.00000000000E+00 0.  1.
         15    1    5    5    0    0  0.26477202913E+03  0.46729739775E+02 -0.21831916964E+03  0.34634421252E+03  0.17770000000E+01 0. -1.
        -15    1    5    5    0    0  0.10675445980E+03 -0.30756085008E+02 -0.53735114088E+02  0.12342233051E+03  0.17770000000E+01 0.  1.
          1    1    6    6  503    0  0.20910222175E+03  0.39871476937E+03 -0.85805312842E+02  0.45832276636E+03  0.00000000000E+00 0. -1.
         -1    1    6    6    0  503  0.38199973851E+02  0.19386809025E+03 -0.56979262743E+02  0.20564705396E+03  0.00000000000E+00 0.  1.
<mgrwt>
<rscale>  0 0.94951847E+03</rscale>
<asrwt>0</asrwt>
<pdfrwt beam="1">  1        2 0.14956466E+00 0.94951847E+03</pdfrwt>
<pdfrwt beam="2">  1       -2 0.20332948E+00 0.94951847E+03</pdfrwt>
<totfact> 0.33147862E+00</totfact>
</mgrwt>
</event>
<event>
12    1  0.9321077E-008  0.5694806E+03  0.7818608E-02  0.9970829E-01
          1   -1    0    0  501    0  0.00000000000E+00  0.00000000000E+00  0.59430447685E+03  0.59430447685E+03  0.00000000000E+00 0. -1.
         -1   -1    0    0    0  501 -0.00000000000E+00 -0.00000000000E+00 -0.11623663274E+04  0.11623663274E+04  0.00000000000E+00 0.  1.
         23    2    1    2    0    0  0.48755161951E+03 -0.90922803414E+02  0.30295796528E+03  0.58838756273E+03  0.91885022609E+02 0.  0.
    5000000    2    1    2    0    0 -0.48755161951E+03  0.90922803414E+02 -0.87101981579E+03  0.11682832415E+04  0.60019719674E+03 0.  0.
         23    2    4    4    0    0 -0.12277857660E+03  0.22267110231E+03 -0.78623449661E+02  0.28132741308E+03  0.91139825740E+02 0.  0.
         23    2    4    4    0    0 -0.36477304291E+03 -0.13174829890E+03 -0.79239636613E+03  0.88695582841E+03  0.91551370281E+02 0.  0.
          3    1    3    3  502    0  0.13241050269E+03 -0.36617741405E+02  0.13199379590E+03  0.19051446760E+03  0.00000000000E+00 0. -1.
         -3    1    3    3    0  502  0.35514111682E+03 -0.54305062009E+02  0.17096416937E+03  0.39787309513E+03  0.00000000000E+00 0.  1.
         15    1    5    5    0    0 -0.64722380181E+02  0.11936343416E+03 -0.88996134612E+02  0.16235789360E+03  0.17770000000E+01 0. -1.
        -15    1    5    5    0    0 -0.58056196418E+02  0.10330766816E+03  0.10372684951E+02  0.11896951948E+03  0.17770000000E+01 0.  1.
          1    1    6    6  503    0 -0.59042115654E+02 -0.25811234780E+02 -0.22215614984E+03  0.23131265891E+03  0.00000000000E+00 0. -1.
         -1    1    6    6    0  503 -0.30573092726E+03 -0.10593706412E+03 -0.57024021629E+03  0.65564316950E+03  0.00000000000E+00 0.  1.
<mgrwt>
<rscale>  0 0.56948063E+03</rscale>
<asrwt>0</asrwt>
<pdfrwt beam="1">  1        1 0.91431459E-01 0.56948063E+03</pdfrwt>
<pdfrwt beam="2">  1       -1 0.17882559E+00 0.56948063E+03</pdfrwt>
<totfact> 0.78243820E+00</totfact>
</mgrwt>
</event>
<event>
12    1  0.9321077E-008  0.6304758E+03  0.7818608E-02  0.9844121E-01
          2   -1    0    0  501    0  0.00000000000E+00  0.00000000000E+00  0.13726625638E+04  0.13726625638E+04  0.00000000000E+00 0.  1.
         -2   -1    0    0    0  501 -0.00000000000E+00 -0.00000000000E+00 -0.50669121802E+03  0.50669121802E+03  0.00000000000E+00 0. -1.
         23    2    1    2    0    0 -0.44632620387E+03  0.25505318417E+03 -0.19393528726E+03  0.55733483233E+03  0.93552192217E+02 0.  0.
    5000000    2    1    2    0    0  0.44632620387E+03 -0.25505318417E+03  0.10599066331E+04  0.13220189495E+04  0.60006068444E+03 0.  0.
         23    2    4    4    0    0  0.56429470797E+03 -0.21565486162E+03  0.69141981199E+03  0.92240985282E+03  0.88560958602E+02 0.  0.
         23    2    4    4    0    0 -0.11796850410E+03 -0.39398322556E+02  0.36848682106E+03  0.39960909667E+03  0.91848228417E+02 0.  0.
          4    1    3    3  502    0 -0.22209276642E+03  0.13156195361E+03 -0.14706722189E+03  0.29709007436E+03  0.00000000000E+00 0. -1.
         -4    1    3    3    0  502 -0.22423343746E+03  0.12349123056E+03 -0.46868065372E+02  0.26024475797E+03  0.00000000000E+00 0.  1.
         15    1    5    5    0    0  0.46738747477E+03 -0.17859354890E+03  0.61868712570E+03  0.79569065881E+03  0.17770000000E+01 0. -1.
        -15    1    5    5    0    0  0.96907233208E+02 -0.37061312720E+02  0.72732686290E+02  0.12671919402E+03  0.17770000000E+01 0.  1.
          2    1    6    6  503    0 -0.63865906703E+02 -0.57217675611E+02  0.29143843445E+03  0.30379117419E+03  0.00000000000E+00 0. -1.
         -2    1    6    6    0  503 -0.54102597397E+02  0.17819353055E+02  0.77048386615E+02  0.95817922480E+02  0.00000000000E+00 0.  1.
<mgrwt>
<rscale>  0 0.63047584E+03</rscale>
<asrwt>0</asrwt>
<pdfrwt beam="1">  1        2 0.21117885E+00 0.63047584E+03</pdfrwt>
<pdfrwt beam="2">  1       -2 0.77952496E-01 0.63047584E+03</pdfrwt>
<totfact> 0.22799452E+01</totfact>
</mgrwt>
</event>
<event>
12    1  0.9321077E-008  0.1389772E+04  0.7818608E-02  0.8961256E-01
          1   -1    0    0  501    0  0.00000000000E+00  0.00000000000E+00  0.26563826396E+04  0.26563826396E+04  0.00000000000E+00 0. -1.
         -1   -1    0    0    0  501 -0.00000000000E+00 -0.00000000000E+00 -0.11030260387E+04  0.11030260387E+04  0.00000000000E+00 0.  1.
         23    2    1    2    0    0  0.24070938746E+03  0.13320221256E+04  0.18045078786E+04  0.22576243457E+04  0.91624505173E+02 0.  0.
    5000000    2    1    2    0    0 -0.24070938746E+03 -0.13320221256E+04 -0.25115127768E+03  0.15017843326E+04  0.60004605239E+03 0.  0.
         23    2    4    4    0    0  0.11524855361E+03 -0.17963685637E+03 -0.17940318299E+03  0.29007308211E+03  0.80032878372E+02 0.  0.
         23    2    4    4    0    0 -0.35595794107E+03 -0.11523852692E+04 -0.71748094695E+02  0.12117112505E+04  0.91643335145E+02 0.  0.
          1    1    3    3  502    0  0.16436940234E+03  0.68248771866E+03  0.89826122851E+03  0.11400350965E+04  0.00000000000E+00 0. -1.
         -1    1    3    3    0  502  0.76339985122E+02  0.64953440694E+03  0.90624665011E+03  0.11175892492E+04  0.00000000000E+00 0.  1.
         15    1    5    5    0    0  0.62202830312E+02 -0.11143103220E+03 -0.55899074317E+02  0.13933388415E+03  0.17770000000E+01 0. -1.
        -15    1    5    5    0    0  0.53045723297E+02 -0.68205824178E+02 -0.12350410867E+03  0.15073919795E+03  0.17770000000E+01 0.  1.
          2    1    6    6  503    0 -0.12029912382E+03 -0.54190601803E+03 -0.25095980210E+02  0.55566520477E+03  0.00000000000E+00 0. -1.
         -2    1    6    6    0  503 -0.23565881726E+03 -0.61047925119E+03 -0.46652114485E+02  0.65604604569E+03  0.00000000000E+00 0.  1.
<mgrwt>
<rscale>  0 0.13897717E+04</rscale>
<asrwt>0</asrwt>
<pdfrwt beam="1">  1        1 0.40867425E+00 0.13897717E+04</pdfrwt>
<pdfrwt beam="2">  1       -1 0.16969631E+00 0.13897717E+04</pdfrwt>
<totfact> 0.25054046E-01</totfact>
</mgrwt>
</event>
<event>
12    1  0.1026023E-007  0.8196300E+03  0.7818608E-02  0.9532030E-01
         -1   -1    0    0    0  501 -0.00000000000E+00  0.00000000000E+00  0.69517081860E+03  0.69517081860E+03  0.00000000000E+00 0.  1.
          1   -1    0    0  501    0  0.00000000000E+00 -0.00000000000E+00 -0.19626261234E+04  0.19626261234E+04  0.00000000000E+00 0. -1.
         23    2    1    2    0    0  0.63178048692E+03  0.41520859792E+03  0.29890260424E+03  0.81793443058E+03  0.90162089949E+02 0.  0.
    5000000    2    1    2    0    0 -0.63178048692E+03 -0.41520859792E+03 -0.15663579091E+04  0.18398625115E+04  0.60006016224E+03 0.  0.
         23    2    4    4    0    0 -0.17242497326E+02 -0.22100629996E+03 -0.15021053688E+03  0.28120296236E+03  0.85853435061E+02 0.  0.
         23    2    4    4    0    0 -0.61453798959E+03 -0.19420229796E+03 -0.14161473722E+04  0.15586595491E+04  0.92599876013E+02 0.  0.
          2    1    3    3  502    0  0.34733048672E+03  0.26039009629E+03  0.13272760299E+03  0.45393621341E+03  0.00000000000E+00 0.  1.
         -2    1    3    3    0  502  0.28445000019E+03  0.15481850164E+03  0.16617500125E+03  0.36399821716E+03  0.00000000000E+00 0. -1.
         15    1    5    5    0    0 -0.46959321422E+02 -0.16345633812E+03 -0.12743441293E+03  0.21252256272E+03  0.17770000000E+01 0.  1.
        -15    1    5    5    0    0  0.29716824096E+02 -0.57549961839E+02 -0.22776123953E+02  0.68680399630E+02  0.17770000000E+01 0. -1.
          3    1    6    6  503    0 -0.49625654109E+03 -0.13567920157E+03 -0.10456220652E+04  0.11653346745E+04  0.00000000000E+00 0. -1.
         -3    1    6    6    0  503 -0.11828144850E+03 -0.58523096390E+02 -0.37052530698E+03  0.39332487461E+03  0.00000000000E+00 0.  1.
<mgrwt>
<rscale>  0 0.81963002E+03</rscale>
<asrwt>0</asrwt>
<pdfrwt beam="1">  1        1 0.30194248E+00 0.81963002E+03</pdfrwt>
<pdfrwt beam="2">  1       -1 0.10694936E+00 0.81963002E+03</pdfrwt>
<totfact> 0.26773832E+00</totfact>
</mgrwt>
</event>
<event>
12    1  0.9321077E-008  0.1203690E+04  0.7818608E-02  0.9109633E-01
          2   -1    0    0  501    0  0.00000000000E+00  0.00000000000E+00  0.31388769714E+04  0.31388769714E+04  0.00000000000E+00 0.  1.
         -2   -1    0    0    0  501 -0.00000000000E+00 -0.00000000000E+00 -0.57615547498E+03  0.57615547498E+03  0.00000000000E+00 0. -1.
         23    2    1    2    0    0  0.11224162307E+04  0.21559314227E+03  0.43503549158E+03  0.12263932219E+04  0.92118716328E+02 0.  0.
    5000000    2    1    2    0    0 -0.11224162307E+04 -0.21559314227E+03  0.21276860048E+04  0.24886392244E+04  0.59998237990E+03 0.  0.
         23    2    4    4    0    0 -0.89761011214E+03  0.57347436169E+02  0.17049966174E+04  0.19298757954E+04  0.91730466985E+02 0.  0.
         23    2    4    4    0    0 -0.22480611858E+03 -0.27294057844E+03  0.42268938741E+03  0.55876342898E+03  0.92281639690E+02 0.  0.
          2    1    3    3  502    0  0.23496825573E+03  0.81690747335E+02  0.81417244249E+02  0.26174840413E+03  0.00000000000E+00 0. -1.
         -2    1    3    3    0  502  0.88744797499E+03  0.13390239494E+03  0.35361824734E+03  0.96464481782E+03  0.00000000000E+00 0.  1.
         15    1    5    5    0    0 -0.31776587685E+03  0.53156258994E+02  0.54772049111E+03  0.63545388068E+03  0.17770000000E+01 0. -1.
        -15    1    5    5    0    0 -0.57984423530E+03  0.41911771755E+01  0.11572761263E+04  0.12944219147E+04  0.17770000000E+01 0.  1.
          2    1    6    6  503    0 -0.11049935822E+03 -0.18237452905E+03  0.19859748670E+03  0.29139584543E+03  0.00000000000E+00 0. -1.
         -2    1    6    6    0  503 -0.11430676036E+03 -0.90566049394E+02  0.22409190071E+03  0.26736758355E+03  0.00000000000E+00 0.  1.
<mgrwt>
<rscale>  0 0.12036899E+04</rscale>
<asrwt>0</asrwt>
<pdfrwt beam="1">  1        2 0.48290414E+00 0.12036899E+04</pdfrwt>
<pdfrwt beam="2">  1       -2 0.88639305E-01 0.12036899E+04</pdfrwt>
<totfact> 0.15461333E+00</totfact>
</mgrwt>
</event>
<event>
12    1  0.9321077E-008  0.5689582E+03  0.7818608E-02  0.9971987E-01
          1   -1    0    0  501    0  0.00000000000E+00  0.00000000000E+00  0.11707218628E+04  0.11707218628E+04  0.00000000000E+00 0. -1.
         -1   -1    0    0    0  501 -0.00000000000E+00 -0.00000000000E+00 -0.38681451776E+03  0.38681451776E+03  0.00000000000E+00 0.  1.
         23    2    1    2    0    0 -0.36527767353E+03 -0.38451329021E+03  0.38965232682E+03  0.66512847293E+03  0.96377905057E+02 0.  0.
    5000000    2    1    2    0    0  0.36527767353E+03  0.38451329021E+03  0.39425501824E+03  0.89240790765E+03  0.59973044370E+03 0.  0.
         23    2    4    4    0    0  0.70149133738E+02  0.25637741011E+03  0.47172278084E+03  0.54907870452E+03  0.91185330021E+02 0.  0.
         23    2    4    4    0    0  0.29512853979E+03  0.12813588010E+03 -0.77467762603E+02  0.34332920313E+03  0.91400375873E+02 0.  0.
          2    1    3    3  502    0 -0.16403002336E+03 -0.17643563053E+03  0.23668510550E+03  0.33772062337E+03  0.00000000000E+00 0. -1.
         -2    1    3    3    0  502 -0.20124765017E+03 -0.20807765968E+03  0.15296722132E+03  0.32740784957E+03  0.00000000000E+00 0.  1.
         15    1    5    5    0    0  0.45385890946E+01  0.14827616026E+03  0.31093658112E+03  0.34451579600E+03  0.17770000000E+01 0.  1.
        -15    1    5    5    0    0  0.65610544643E+02  0.10810124985E+03  0.16078619973E+03  0.20456290851E+03  0.17770000000E+01 0. -1.
          1    1    6    6  503    0  0.17938051610E+02  0.36665838445E+02  0.18213526270E+01  0.40859206182E+02  0.00000000000E+00 0. -1.
         -1    1    6    6    0  503  0.27719048818E+03  0.91470041651E+02 -0.79289115230E+02  0.30246999694E+03  0.00000000000E+00 0.  1.
<mgrwt>
<rscale>  0 0.56895818E+03</rscale>
<asrwt>0</asrwt>
<pdfrwt beam="1">  1        1 0.18011105E+00 0.56895818E+03</pdfrwt>
<pdfrwt beam="2">  1       -1 0.59509926E-01 0.56895818E+03</pdfrwt>
<totfact> 0.33825687E+01</totfact>
</mgrwt>
</event>
<event>
12    1  0.9321077E-008  0.1619135E+04  0.7818608E-02  0.8808878E-01
         -1   -1    0    0    0  501 -0.00000000000E+00  0.00000000000E+00  0.14019674672E+04  0.14019674672E+04  0.00000000000E+00 0.  1.
          1   -1    0    0  501    0  0.00000000000E+00 -0.00000000000E+00 -0.27829355540E+04  0.27829355540E+04  0.00000000000E+00 0. -1.
         23    2    1    2    0    0 -0.36668598528E+03 -0.15511792953E+04  0.47414507159E+03  0.16666253624E+04  0.11050217969E+03 0.  0.
    5000000    2    1    2    0    0  0.36668598528E+03  0.15511792953E+04 -0.18551131584E+04  0.25182776588E+04  0.59971803241E+03 0.  0.
         23    2    4    4    0    0  0.17596590533E+03  0.16341448280E+03 -0.11110256727E+03  0.27952215355E+03  0.90114154523E+02 0.  0.
         23    2    4    4    0    0  0.19072007995E+03  0.13877648125E+04 -0.17440105911E+04  0.22387555052E+04  0.90487273184E+02 0.  0.
          4    1    3    3  502    0 -0.16623453381E+03 -0.52834755617E+03  0.20002231105E+03  0.58889216777E+03  0.00000000000E+00 0.  1.
         -4    1    3    3    0  502 -0.20045145148E+03 -0.10228317391E+04  0.27412276054E+03  0.10777331946E+04  0.00000000000E+00 0. -1.
         15    1    5    5    0    0  0.29815566779E+02  0.36255861141E+02  0.13868382197E+02  0.48979028606E+02  0.17770000000E+01 0.  1.
        -15    1    5    5    0    0  0.14615033855E+03  0.12715862166E+03 -0.12497094946E+03  0.23054312495E+03  0.17770000000E+01 0. -1.
          3    1    6    6  503    0  0.12844529835E+03  0.78766273112E+03 -0.92884120070E+03  0.12246047317E+04  0.00000000000E+00 0. -1.
         -3    1    6    6    0  503  0.62274781607E+02  0.60010208135E+03 -0.81516939040E+03  0.10141507736E+04  0.00000000000E+00 0.  1.
<mgrwt>
<rscale>  0 0.16191347E+04</rscale>
<asrwt>0</asrwt>
<pdfrwt beam="1">  1        1 0.42814393E+00 0.16191347E+04</pdfrwt>
<pdfrwt beam="2">  1       -1 0.21568730E+00 0.16191347E+04</pdfrwt>
<totfact> 0.93922956E-02</totfact>
</mgrwt>
</event>
<event>
12    1  0.9321077E-008  0.7709463E+03  0.7818608E-02  0.9603050E-01
          1   -1    0    0  501    0  0.00000000000E+00  0.00000000000E+00  0.80861205779E+03  0.80861205779E+03  0.00000000000E+00 0. -1.
         -1   -1    0    0    0  501 -0.00000000000E+00 -0.00000000000E+00 -0.76666162710E+03  0.76666162710E+03  0.00000000000E+00 0.  1.
         23    2    1    2    0    0 -0.64751410565E+03  0.16398122141E+03  0.87522489404E+02  0.67622630529E+03  0.58800270609E+02 0.  0.
    5000000    2    1    2    0    0  0.64751410565E+03 -0.16398122141E+03 -0.45572058715E+02  0.89904737960E+03  0.60003751569E+03 0.  0.
         23    2    4    4    0    0  0.56542275806E+03  0.11452447836E+03  0.35148464742E+02  0.58393438793E+03  0.83217806740E+02 0.  0.
         23    2    4    4    0    0  0.82091347597E+02 -0.27850569977E+03 -0.80720523457E+02  0.31511299168E+03  0.92065088190E+02 0.  0.
          3    1    3    3  502    0 -0.51571171439E+03  0.11398495474E+03  0.51060022610E+02  0.53062064432E+03  0.00000000000E+00 0. -1.
         -3    1    3    3    0  502 -0.13180239126E+03  0.49996266668E+02  0.36462466794E+02  0.14560566097E+03  0.00000000000E+00 0.  1.
         15    1    5    5    0    0  0.20674832368E+03  0.80385612714E+02  0.27717845512E+02  0.22355794051E+03  0.17770000000E+01 0. -1.
        -15    1    5    5    0    0  0.35867443437E+03  0.34138865645E+02  0.74306192298E+01  0.36037644741E+03  0.17770000000E+01 0.  1.
          1    1    6    6  503    0  0.50527622675E+02 -0.19249001305E+03 -0.98066567712E+02  0.22186143757E+03  0.00000000000E+00 0. -1.
         -1    1    6    6    0  503  0.31563724922E+02 -0.86015686716E+02  0.17346044255E+02  0.93251554108E+02  0.00000000000E+00 0.  1.
<mgrwt>
<rscale>  0 0.77094630E+03</rscale>
<asrwt>0</asrwt>
<pdfrwt beam="1">  1        1 0.12440185E+00 0.77094630E+03</pdfrwt>
<pdfrwt beam="2">  1       -1 0.11794794E+00 0.77094630E+03</pdfrwt>
<totfact> 0.14405471E+01</totfact>
</mgrwt>
</event>
<event>
12    1  0.9321077E-008  0.5187663E+03  0.7818608E-02  0.1008993E+00
          2   -1    0    0  501    0  0.00000000000E+00  0.00000000000E+00  0.95645217103E+03  0.95645217103E+03  0.00000000000E+00 0. -1.
         -2   -1    0    0    0  501 -0.00000000000E+00 -0.00000000000E+00 -0.34008175493E+03  0.34008175493E+03  0.00000000000E+00 0.  1.
         23    2    1    2    0    0 -0.24028686092E+03  0.32183004212E+03  0.15643620516E+03  0.44042703621E+03  0.90506001976E+02 0.  0.
    5000000    2    1    2    0    0  0.24028686092E+03 -0.32183004212E+03  0.45993421094E+03  0.85610688975E+03  0.60005597800E+03 0.  0.
         23    2    4    4    0    0  0.21822229523E+03 -0.43250815342E+03  0.50294032053E+03  0.70487178245E+03  0.95973906691E+02 0.  0.
         23    2    4    4    0    0  0.22064565695E+02  0.11067811130E+03 -0.43006109591E+02  0.15123510730E+03  0.91027703689E+02 0.  0.
          3    1    3    3  502    0 -0.62710887041E+02  0.11416539963E+03  0.10543453505E+02  0.13068113192E+03  0.00000000000E+00 0. -1.
         -3    1    3    3    0  502 -0.17757597388E+03  0.20766464248E+03  0.14589275166E+03  0.30974590429E+03  0.00000000000E+00 0.  1.
         15    1    5    5    0    0  0.99057198410E+02 -0.10101319172E+03  0.15060994644E+03  0.20664584959E+03  0.17770000000E+01 0.  1.
        -15    1    5    5    0    0  0.11916509682E+03 -0.33149496170E+03  0.35233037409E+03  0.49822593285E+03  0.17770000000E+01 0. -1.
          3    1    6    6  503    0 -0.31540002769E+02  0.30773403267E+02  0.38112422574E+01  0.44230076767E+02  0.00000000000E+00 0. -1.
         -3    1    6    6    0  503  0.53604568464E+02  0.79904708031E+02 -0.46817351848E+02  0.10700503053E+03  0.00000000000E+00 0.  1.
<mgrwt>
<rscale>  0 0.51876634E+03</rscale>
<asrwt>0</asrwt>
<pdfrwt beam="1">  1        2 0.14714649E+00 0.51876634E+03</pdfrwt>
<pdfrwt beam="2">  1       -2 0.52320270E-01 0.51876634E+03</pdfrwt>
<totfact> 0.95852541E+01</totfact>
</mgrwt>
</event>
<event>
12    1  0.9321077E-008  0.1016368E+04  0.7818608E-02  0.9290773E-01
         -2   -1    0    0    0  501 -0.00000000000E+00  0.00000000000E+00  0.70911679811E+03  0.70911679811E+03  0.00000000000E+00 0.  1.
          2   -1    0    0  501    0  0.00000000000E+00 -0.00000000000E+00 -0.17396334747E+04  0.17396334747E+04  0.00000000000E+00 0. -1.
         23    2    1    2    0    0  0.64126311830E+03  0.71774229236E+03 -0.81343985123E+02  0.96983610726E+03  0.87136937656E+02 0.  0.
    5000000    2    1    2    0    0 -0.64126311830E+03 -0.71774229236E+03 -0.94917269144E+03  0.14789141655E+04  0.59990493053E+03 0.  0.
         23    2    4    4    0    0 -0.25450917127E+03 -0.18434791926E+02 -0.55025653522E+02  0.27595889997E+03  0.89502693330E+02 0.  0.
         23    2    4    4    0    0 -0.38675394703E+03 -0.69930750043E+03 -0.89414703792E+03  0.12029552655E+04  0.94830637406E+02 0.  0.
          1    1    3    3  502    0  0.36149340387E+03  0.38547154522E+03 -0.86208424276E+02  0.53544158004E+03  0.00000000000E+00 0. -1.
         -1    1    3    3    0  502  0.27976971443E+03  0.33227074714E+03  0.48644391527E+01  0.43439452723E+03  0.00000000000E+00 0.  1.
         15    1    5    5    0    0 -0.14745654021E+03 -0.54295960769E+02 -0.25000018167E+02  0.15912146695E+03  0.17770000000E+01 0. -1.
        -15    1    5    5    0    0 -0.10705263107E+03  0.35861168843E+02 -0.30025635355E+02  0.11683743303E+03  0.17770000000E+01 0.  1.
          3    1    6    6  503    0 -0.34145797303E+03 -0.63799359176E+03 -0.76524699211E+03  0.10532009919E+04  0.00000000000E+00 0. -1.
         -3    1    6    6    0  503 -0.45295973993E+02 -0.61313908670E+02 -0.12890004581E+03  0.14975427361E+03  0.00000000000E+00 0.  1.
<mgrwt>
<rscale>  0 0.10163676E+04</rscale>
<asrwt>0</asrwt>
<pdfrwt beam="1">  1        2 0.26763591E+00 0.10163676E+04</pdfrwt>
<pdfrwt beam="2">  1       -2 0.10909489E+00 0.10163676E+04</pdfrwt>
<totfact> 0.62166985E+00</totfact>
</mgrwt>
</event>
<event>
12    1  0.9321077E-008  0.3960620E+03  0.7818608E-02  0.1045152E+00
         -2   -1    0    0    0  501 -0.00000000000E+00  0.00000000000E+00  0.18547400781E+03  0.18547400781E+03  0.00000000000E+00 0.  1.
          2   -1    0    0  501    0  0.00000000000E+00 -0.00000000000E+00 -0.17249550228E+04  0.17249550228E+04  0.00000000000E+00 0. -1.
         23    2    1    2    0    0  0.21177692311E+03 -0.10479670522E+03 -0.82469300567E+01  0.24900458395E+03  0.78124620877E+02 0.  0.
    5000000    2    1    2    0    0 -0.21177692311E+03  0.10479670522E+03 -0.15312340849E+04  0.16614244466E+04  0.59985127699E+03 0.  0.
         23    2    4    4    0    0 -0.21792259841E+02 -0.17739328245E+03 -0.19573502449E+03  0.28020344201E+03  0.90876233719E+02 0.  0.
         23    2    4    4    0    0 -0.18998466327E+03  0.28218998768E+03 -0.13354990604E+04  0.13812210046E+04  0.92132305990E+02 0.  0.
          2    1    3    3  502    0  0.19634872761E+02 -0.36310106388E+02  0.14513132432E+02  0.43755948935E+02  0.00000000000E+00 0. -1.
         -2    1    3    3    0  502  0.19214205035E+03 -0.68486598833E+02 -0.22760062489E+02  0.20524863502E+03  0.00000000000E+00 0.  1.
         15    1    5    5    0    0 -0.55060547557E+02 -0.82104293679E+02 -0.10843242384E+03  0.14674306528E+03  0.17770000000E+01 0. -1.
        -15    1    5    5    0    0  0.33268287716E+02 -0.95288988776E+02 -0.87302600646E+02  0.13346037673E+03  0.17770000000E+01 0.  1.
          1    1    6    6  503    0 -0.90558332519E+02  0.76351001793E+02 -0.57661453587E+03  0.58865491593E+03  0.00000000000E+00 0. -1.
         -1    1    6    6    0  503 -0.99426330751E+02  0.20583898588E+03 -0.75888452452E+03  0.79256608867E+03  0.00000000000E+00 0.  1.
<mgrwt>
<rscale>  0 0.39606196E+03</rscale>
<asrwt>0</asrwt>
<pdfrwt beam="1">  1        2 0.26537771E+00 0.39606196E+03</pdfrwt>
<pdfrwt beam="2">  1       -2 0.28534461E-01 0.39606196E+03</pdfrwt>
<totfact> 0.11420176E+02</totfact>
</mgrwt>
</event>
<event>
12    1  0.1828202E-007  0.1856567E+04  0.7818608E-02  0.8676783E-01
          2   -1    0    0  501    0  0.00000000000E+00  0.00000000000E+00  0.18175662065E+04  0.18175662065E+04  0.00000000000E+00 0. -1.
         -2   -1    0    0    0  501 -0.00000000000E+00 -0.00000000000E+00 -0.19454816410E+04  0.19454816410E+04  0.00000000000E+00 0.  1.
         23    2    1    2    0    0  0.13804638017E+04  0.12034180990E+04 -0.39381242077E+02  0.18340237396E+04  0.90535994433E+02 0.  0.
    5000000    2    1    2    0    0 -0.13804638017E+04 -0.12034180990E+04 -0.88534192459E+02  0.19290241080E+04  0.59950002260E+03 0.  0.
         23    2    4    4    0    0 -0.81989526597E+03 -0.42990141757E+03  0.14483617854E+03  0.94133934519E+03  0.89993156417E+02 0.  0.
         23    2    4    4    0    0 -0.56056853576E+03 -0.77351668141E+03 -0.23337037100E+03  0.98768476279E+03  0.92164640118E+02 0.  0.
          2    1    3    3  502    0  0.51351425044E+03  0.44669293444E+03 -0.58406765395E+02  0.68311259198E+03  0.00000000000E+00 0. -1.
         -2    1    3    3    0  502  0.86694955129E+03  0.75672516454E+03  0.19025523319E+02  0.11509111476E+04  0.00000000000E+00 0.  1.
         15    1    5    5    0    0 -0.31619533237E+03 -0.15248969480E+03  0.97574984650E+02  0.36435783317E+03  0.17770000000E+01 0. -1.
        -15    1    5    5    0    0 -0.50369993360E+03 -0.27741172277E+03  0.47261193888E+02  0.57698151202E+03  0.17770000000E+01 0.  1.
          2    1    6    6  503    0 -0.10397213922E+03 -0.16222053913E+03 -0.84050878738E+02  0.21021479317E+03  0.00000000000E+00 0. -1.
         -2    1    6    6    0  503 -0.45659639654E+03 -0.61129614227E+03 -0.14931949226E+03  0.77746996962E+03  0.00000000000E+00 0.  1.
<mgrwt>
<rscale>  0 0.18565668E+04</rscale>
<asrwt>0</asrwt>
<pdfrwt beam="1">  1        2 0.27962557E+00 0.18565668E+04</pdfrwt>
<pdfrwt beam="2">  1       -2 0.29930487E+00 0.18565668E+04</pdfrwt>
<totfact> 0.24502385E-01</totfact>
</mgrwt>
</event>
<event>
12    1  0.9321077E-008  0.5663481E+03  0.7818608E-02  0.9977793E-01
          2   -1    0    0  501    0  0.00000000000E+00  0.00000000000E+00  0.69700239458E+03  0.69700239458E+03  0.00000000000E+00 0. -1.
         -2   -1    0    0    0  501 -0.00000000000E+00 -0.00000000000E+00 -0.10459042942E+04  0.10459042942E+04  0.00000000000E+00 0.  1.
         23    2    1    2    0    0 -0.39609993814E+03 -0.19049377209E+03  0.46112219943E+03  0.64319488919E+03  0.88785947487E+02 0.  0.
    5000000    2    1    2    0    0  0.39609993814E+03  0.19049377209E+03 -0.81002409909E+03  0.10997117996E+04  0.60003663468E+03 0.  0.
         23    2    4    4    0    0  0.49801350658E+03  0.63603470327E+02 -0.74483947787E+03  0.90240794743E+03  0.86552883331E+02 0.  0.
         23    2    4    4    0    0 -0.10191356844E+03  0.12689030176E+03 -0.65184621219E+02  0.19730385221E+03  0.90511055342E+02 0.  0.
          3    1    3    3  502    0 -0.18962969464E+03 -0.85189013329E+02  0.15540687804E+03  0.25955324468E+03  0.00000000000E+00 0. -1.
         -3    1    3    3    0  502 -0.20647024350E+03 -0.10530475876E+03  0.30571532140E+03  0.38364164451E+03  0.00000000000E+00 0.  1.
         15    1    5    5    0    0  0.35865043257E+03  0.10918114425E+02 -0.49230229037E+03  0.60919130069E+03  0.17770000000E+01 0.  1.
        -15    1    5    5    0    0  0.13936307402E+03  0.52685355902E+02 -0.25253718751E+03  0.29321664674E+03  0.17770000000E+01 0. -1.
          2    1    6    6  503    0  0.15755125282E+02  0.25068427564E+02 -0.18213790813E+02  0.34761936208E+02  0.00000000000E+00 0. -1.
         -2    1    6    6    0  503 -0.11766869373E+03  0.10182187420E+03 -0.46970830407E+02  0.16254191600E+03  0.00000000000E+00 0.  1.
<mgrwt>
<rscale>  0 0.56634806E+03</rscale>
<asrwt>0</asrwt>
<pdfrwt beam="1">  1        2 0.10723114E+00 0.56634806E+03</pdfrwt>
<pdfrwt beam="2">  1       -2 0.16090835E+00 0.56634806E+03</pdfrwt>
<totfact> 0.10624951E+01</totfact>
</mgrwt>
</event>
<event>
12    1  0.9321077E-008  0.7883215E+03  0.7818608E-02  0.9577077E-01
         -2   -1    0    0    0  501 -0.00000000000E+00  0.00000000000E+00  0.95197229412E+03  0.95197229412E+03  0.00000000000E+00 0.  1.
          2   -1    0    0  501    0  0.00000000000E+00 -0.00000000000E+00 -0.66529342000E+03  0.66529342000E+03  0.00000000000E+00 0. -1.
         23    2    1    2    0    0 -0.31454315239E+03 -0.59479511789E+03  0.21823139120E+03  0.71321101275E+03  0.91249008895E+02 0.  0.
    5000000    2    1    2    0    0  0.31454315239E+03  0.59479511789E+03  0.68447482920E+02  0.90405470138E+03  0.59992601059E+03 0.  0.
         23    2    4    4    0    0  0.74550716037E+02  0.63068231588E+03  0.34984219184E+02  0.64261604146E+03  0.91725069253E+02 0.  0.
         23    2    4    4    0    0  0.23999243635E+03 -0.35887197989E+02  0.33463263736E+02  0.26143865992E+03  0.91357114628E+02 0.  0.
          1    1    3    3  502    0 -0.23840354803E+03 -0.36402414525E+03  0.15708536892E+03  0.46262905569E+03  0.00000000000E+00 0. -1.
         -1    1    3    3    0  502 -0.76139604358E+02 -0.23077097263E+03  0.61146022280E+02  0.25058195706E+03  0.00000000000E+00 0.  1.
         15    1    5    5    0    0 -0.21126942874E+02  0.12542449036E+03  0.24687229189E+00  0.12720404543E+03  0.17770000000E+01 0. -1.
        -15    1    5    5    0    0  0.95677658911E+02  0.50525782551E+03  0.34737346892E+02  0.51541199603E+03  0.17770000000E+01 0.  1.
          2    1    6    6  503    0  0.44969812605E+02 -0.42553475922E+02  0.22917511834E+02  0.66017381858E+02  0.00000000000E+00 0. -1.
         -2    1    6    6    0  503  0.19502262375E+03  0.66662779325E+01  0.10545751902E+02  0.19542127806E+03  0.00000000000E+00 0.  1.
<mgrwt>
<rscale>  0 0.78832145E+03</rscale>
<asrwt>0</asrwt>
<pdfrwt beam="1">  1        2 0.10235283E+00 0.78832145E+03</pdfrwt>
<pdfrwt beam="2">  1       -2 0.14645728E+00 0.78832145E+03</pdfrwt>
<totfact> 0.14093553E+01</totfact>
</mgrwt>
</event>
<event>
12    1  0.9321077E-008  0.5353152E+03  0.7818608E-02  0.1004951E+00
          4   -1    0    0  501    0  0.00000000000E+00  0.00000000000E+00  0.34094597439E+04  0.34094597439E+04  0.00000000000E+00 0. -1.
         -4   -1    0    0    0  501 -0.00000000000E+00 -0.00000000000E+00 -0.18011612443E+03  0.18011612443E+03  0.00000000000E+00 0.  1.
         23    2    1    2    0    0 -0.32169856144E+03  0.40993127560E+03  0.43665086606E+03  0.68601722758E+03  0.91771687138E+02 0.  0.
    5000000    2    1    2    0    0  0.32169856144E+03 -0.40993127560E+03  0.27926927534E+04  0.29035586408E+04  0.59998862506E+03 0.  0.
         23    2    4    4    0    0  0.25346807038E+03 -0.38726420415E+03  0.27237000526E+04  0.27642728696E+04  0.91885223281E+02 0.  0.
         23    2    4    4    0    0  0.68230491061E+02 -0.22667071448E+02  0.68992700774E+02  0.13928577117E+03  0.97320795581E+02 0.  0.
          2    1    3    3  502    0 -0.10646773338E+03  0.20501979467E+03  0.21110170793E+03  0.31294156891E+03  0.00000000000E+00 0. -1.
         -2    1    3    3    0  502 -0.21523082806E+03  0.20491148093E+03  0.22554915813E+03  0.37307565868E+03  0.00000000000E+00 0.  1.
         15    1    5    5    0    0  0.15851161435E+03 -0.16855064401E+03  0.14700437458E+04  0.14881421383E+04  0.17770000000E+01 0. -1.
        -15    1    5    5    0    0  0.94956456033E+02 -0.21871356014E+03  0.12536563068E+04  0.12761307313E+04  0.17770000000E+01 0.  1.
          4    1    6    6  503    0  0.93697347271E+01  0.43411272627E+00 -0.24604295032E+02  0.26331572621E+02  0.00000000000E+00 0. -1.
         -4    1    6    6    0  503  0.58860756333E+02 -0.23101184174E+02  0.93596995806E+02  0.11295419855E+03  0.00000000000E+00 0.  1.
<mgrwt>
<rscale>  0 0.53531522E+03</rscale>
<asrwt>0</asrwt>
<pdfrwt beam="1">  1        4 0.52453222E+00 0.53531522E+03</pdfrwt>
<pdfrwt beam="2">  1       -4 0.27710175E-01 0.53531522E+03</pdfrwt>
<totfact> 0.21201856E-02</totfact>
</mgrwt>
</event>
<event>
12    1  0.9321077E-008  0.1072458E+04  0.7818608E-02  0.9232460E-01
         -1   -1    0    0    0  501 -0.00000000000E+00  0.00000000000E+00  0.35957222171E+03  0.35957222171E+03  0.00000000000E+00 0.  1.
          1   -1    0    0  501    0  0.00000000000E+00 -0.00000000000E+00 -0.40432657910E+04  0.40432657910E+04  0.00000000000E+00 0. -1.
         23    2    1    2    0    0 -0.69863305311E+03 -0.75061798811E+03 -0.25935962682E+04  0.27904358600E+04  0.90968012458E+02 0.  0.
    5000000    2    1    2    0    0  0.69863305311E+03  0.75061798811E+03 -0.10900973011E+04  0.16124021527E+04  0.60001089097E+03 0.  0.
         23    2    4    4    0    0  0.65260331433E+03  0.76815858091E+03 -0.11149832102E+04  0.15057382482E+04  0.90007898302E+02 0.  0.
         23    2    4    4    0    0  0.46029738781E+02 -0.17540592801E+02  0.24885909188E+02  0.10666390447E+03  0.91276890790E+02 0.  0.
          1    1    3    3  502    0 -0.21390722447E+03 -0.17094191373E+03 -0.68539087205E+03  0.73806374118E+03  0.00000000000E+00 0. -1.
         -1    1    3    3    0  502 -0.48472582863E+03 -0.57967607439E+03 -0.19082053962E+04  0.20523721188E+04  0.00000000000E+00 0.  1.
         15    1    5    5    0    0  0.16997738334E+03  0.14303951260E+03 -0.23880396880E+03  0.32616423203E+03  0.17770000000E+01 0. -1.
        -15    1    5    5    0    0  0.48262593099E+03  0.62511906831E+03 -0.87617924144E+03  0.11795740162E+04  0.17770000000E+01 0.  1.
          2    1    6    6  503    0  0.69270505170E+02 -0.31865771744E+02  0.15608570124E+02  0.77829671442E+02  0.00000000000E+00 0. -1.
         -2    1    6    6    0  503 -0.23240766389E+02  0.14325178943E+02  0.92773390644E+01  0.28834233027E+02  0.00000000000E+00 0.  1.
<mgrwt>
<rscale>  0 0.10724577E+04</rscale>
<asrwt>0</asrwt>
<pdfrwt beam="1">  1        1 0.62204089E+00 0.10724577E+04</pdfrwt>
<pdfrwt beam="2">  1       -1 0.55318803E-01 0.10724577E+04</pdfrwt>
<totfact> 0.30239285E-01</totfact>
</mgrwt>
</event>
<event>
12    1  0.9321077E-008  0.7914647E+03  0.7818608E-02  0.9572454E-01
         -2   -1    0    0    0  501 -0.00000000000E+00  0.00000000000E+00  0.94733123013E+03  0.94733123013E+03  0.00000000000E+00 0.  1.
          2   -1    0    0  501    0  0.00000000000E+00 -0.00000000000E+00 -0.67020840255E+03  0.67020840255E+03  0.00000000000E+00 0. -1.
         23    2    1    2    0    0  0.25596923202E+03  0.62870043677E+03  0.70959686383E+02  0.68847123568E+03  0.90403972950E+02 0.  0.
    5000000    2    1    2    0    0 -0.25596923202E+03 -0.62870043677E+03  0.20616314120E+03  0.92906839699E+03  0.59990029051E+03 0.  0.
         23    2    4    4    0    0  0.85939422311E+02 -0.52049356203E+03  0.10242652242E+03  0.54526510946E+03  0.92323965911E+02 0.  0.
         23    2    4    4    0    0 -0.34190865434E+03 -0.10820687475E+03  0.10373661877E+03  0.38380328753E+03  0.89069758018E+02 0.  0.
          4    1    3    3  502    0  0.21043550602E+03  0.41189825947E+03  0.62851450001E+02  0.46679072733E+03  0.00000000000E+00 0. -1.
         -4    1    3    3    0  502  0.45533726000E+02  0.21680217730E+03  0.81082363815E+01  0.22168050836E+03  0.00000000000E+00 0.  1.
         15    1    5    5    0    0  0.71242286424E+02 -0.20100101998E+03  0.66661403438E+02  0.22343628588E+03  0.17770000000E+01 0. -1.
        -15    1    5    5    0    0  0.14697135887E+02 -0.31949254204E+03  0.35765118987E+02  0.32182882358E+03  0.17770000000E+01 0.  1.
          1    1    6    6  503    0 -0.17249552187E+03 -0.92208955328E+02  0.82631554038E+02  0.21233268761E+03  0.00000000000E+00 0. -1.
         -1    1    6    6    0  503 -0.16941313247E+03 -0.15997919420E+02  0.21105064736E+02  0.17147059992E+03  0.00000000000E+00 0.  1.
<mgrwt>
<rscale>  0 0.79146465E+03</rscale>
<asrwt>0</asrwt>
<pdfrwt beam="1">  1        2 0.10310898E+00 0.79146465E+03</pdfrwt>
<pdfrwt beam="2">  1       -2 0.14574327E+00 0.79146465E+03</pdfrwt>
<totfact> 0.14141023E+01</totfact>
</mgrwt>
</event>
<event>
12    1  0.9321077E-008  0.3736467E+03  0.7818608E-02  0.1053307E+00
         -2   -1    0    0    0  501 -0.00000000000E+00  0.00000000000E+00  0.10628511470E+03  0.10628511470E+03  0.00000000000E+00 0. -1.
          2   -1    0    0  501    0  0.00000000000E+00 -0.00000000000E+00 -0.16043775945E+04  0.16043775945E+04  0.00000000000E+00 0.  1.
         23    2    1    2    0    0 -0.19626855896E+02  0.11870766558E+03 -0.91547114290E+02  0.17666245685E+03  0.91389420525E+02 0.  0.
    5000000    2    1    2    0    0  0.19626855896E+02 -0.11870766558E+03 -0.14065453655E+04  0.15340002524E+04  0.60025843236E+03 0.  0.
         23    2    4    4    0    0 -0.27175724700E+03 -0.67949534730E+02 -0.57375337501E+03  0.64535291919E+03  0.93905880567E+02 0.  0.
         23    2    4    4    0    0  0.29138410290E+03 -0.50758130850E+02 -0.83279199051E+03  0.88864733317E+03  0.93115519722E+02 0.  0.
          4    1    3    3  502    0  0.29857562248E+02  0.87788815387E+02 -0.54979027468E+02  0.10780094430E+03  0.00000000000E+00 0. -1.
         -4    1    3    3    0  502 -0.49484418144E+02  0.30918850193E+02 -0.36568086821E+02  0.68861512546E+02  0.00000000000E+00 0.  1.
         15    1    5    5    0    0 -0.11181146481E+03  0.19421469470E+01 -0.15042346667E+03  0.18744586593E+03  0.17770000000E+01 0. -1.
        -15    1    5    5    0    0 -0.15994578219E+03 -0.69891681677E+02 -0.42332990834E+03  0.45790705327E+03  0.17770000000E+01 0.  1.
          1    1    6    6  503    0  0.19565714733E+03  0.10882133488E+02 -0.50875298838E+03  0.54518780555E+03  0.00000000000E+00 0. -1.
         -1    1    6    6    0  503  0.95726955564E+02 -0.61640264338E+02 -0.32403900213E+03  0.34345952762E+03  0.00000000000E+00 0.  1.
<mgrwt>
<rscale>  0 0.37364666E+03</rscale>
<asrwt>0</asrwt>
<pdfrwt beam="1">  1        2 0.24682732E+00 0.37364666E+03</pdfrwt>
<pdfrwt beam="2">  1       -2 0.16351556E-01 0.37364666E+03</pdfrwt>
<totfact> 0.35214851E+02</totfact>
</mgrwt>
</event>
<event>
12    1  0.9321077E-008  0.1263049E+04  0.7818608E-02  0.9059392E-01
         -1   -1    0    0    0  501 -0.00000000000E+00  0.00000000000E+00  0.87771146121E+03  0.87771146121E+03  0.00000000000E+00 0.  1.
          1   -1    0    0  501    0  0.00000000000E+00 -0.00000000000E+00 -0.20503807851E+04  0.20503807851E+04  0.00000000000E+00 0. -1.
         23    2    1    2    0    0  0.89853258677E+03  0.83727729421E+03 -0.19326338402E+03  0.12465631556E+04  0.90415089984E+02 0.  0.
    5000000    2    1    2    0    0 -0.89853258677E+03 -0.83727729421E+03 -0.97940593990E+03  0.16815290907E+04  0.59992500438E+03 0.  0.
         23    2    4    4    0    0 -0.86403370102E+03 -0.59891708783E+03 -0.57408674518E+03  0.12013755863E+04  0.92042347224E+02 0.  0.
         23    2    4    4    0    0 -0.34498885745E+02 -0.23836020638E+03 -0.40531919472E+03  0.48015350444E+03  0.90873412563E+02 0.  0.
          1    1    3    3  502    0  0.67842208262E+03  0.57695789956E+03 -0.14138981572E+03  0.90173611442E+03  0.00000000000E+00 0. -1.
         -1    1    3    3    0  502  0.22011050415E+03  0.26031939465E+03 -0.51873568307E+02  0.34482704122E+03  0.00000000000E+00 0.  1.
         15    1    5    5    0    0 -0.36849987448E+03 -0.25549864834E+03 -0.19339707923E+03  0.48834138139E+03  0.17770000000E+01 0.  1.
        -15    1    5    5    0    0 -0.49553382654E+03 -0.34341843949E+03 -0.38068966594E+03  0.71303420487E+03  0.17770000000E+01 0. -1.
          1    1    6    6  503    0  0.58406317849E+01 -0.66856333873E+02 -0.19253707926E+03  0.20389803640E+03  0.00000000000E+00 0. -1.
         -1    1    6    6    0  503 -0.40339517530E+02 -0.17150387251E+03 -0.21278211546E+03  0.27625546804E+03  0.00000000000E+00 0.  1.
<mgrwt>
<rscale>  0 0.12630490E+04</rscale>
<asrwt>0</asrwt>
<pdfrwt beam="1">  1        1 0.31544319E+00 0.12630490E+04</pdfrwt>
<pdfrwt beam="2">  1       -1 0.13503253E+00 0.12630490E+04</pdfrwt>
<totfact> 0.12379153E+00</totfact>
</mgrwt>
</event>
<event>
12    1  0.9321077E-008  0.9558840E+03  0.7818608E-02  0.9358299E-01
          2   -1    0    0  501    0  0.00000000000E+00  0.00000000000E+00  0.16166764444E+04  0.16166764444E+04  0.00000000000E+00 0. -1.
         -2   -1    0    0    0  501 -0.00000000000E+00 -0.00000000000E+00 -0.89763142346E+03  0.89763142346E+03  0.00000000000E+00 0.  1.
         23    2    1    2    0    0 -0.89292164743E+03  0.11288140868E+03  0.10472654910E+04  0.13839482953E+04  0.92176974087E+02 0.  0.
    5000000    2    1    2    0    0  0.89292164743E+03 -0.11288140868E+03 -0.32822047005E+03  0.11303595726E+04  0.59994400197E+03 0.  0.
         23    2    4    4    0    0  0.75254299389E+03 -0.25904027060E+03 -0.40227023125E+03  0.89663294395E+03  0.93308508570E+02 0.  0.
         23    2    4    4    0    0  0.14037865353E+03  0.14615886192E+03  0.74049761197E+02  0.23372662863E+03  0.89867627735E+02 0.  0.
          1    1    3    3  502    0 -0.17962733678E+03  0.57939932060E+01  0.16121680568E+03  0.24143406741E+03  0.00000000000E+00 0. -1.
         -1    1    3    3    0  502 -0.71329431065E+03  0.10708741547E+03  0.88604868535E+03  0.11425142279E+04  0.00000000000E+00 0.  1.
         15    1    5    5    0    0  0.12581474903E+03 -0.81153979509E+02 -0.81131303920E+02  0.17029611172E+03  0.17770000000E+01 0.  1.
        -15    1    5    5    0    0  0.62672824487E+03 -0.17788629109E+03 -0.32113892733E+03  0.72633683222E+03  0.17770000000E+01 0. -1.
          4    1    6    6  503    0  0.62611271647E+02  0.10317995650E+03  0.43014736595E+01  0.12076745189E+03  0.00000000000E+00 0.  1.
         -4    1    6    6    0  503  0.77767381886E+02  0.42978905420E+02  0.69748287538E+02  0.11295917674E+03  0.00000000000E+00 0. -1.
<mgrwt>
<rscale>  0 0.95588398E+03</rscale>
<asrwt>0</asrwt>
<pdfrwt beam="1">  1        2 0.24871945E+00 0.95588398E+03</pdfrwt>
<pdfrwt beam="2">  1       -2 0.13809714E+00 0.95588398E+03</pdfrwt>
<totfact> 0.40588142E+00</totfact>
</mgrwt>
</event>
<event>
12    1  0.9321077E-008  0.8395933E+03  0.7818608E-02  0.9504412E-01
          2   -1    0    0  501    0  0.00000000000E+00  0.00000000000E+00  0.13228849649E+04  0.13228849649E+04  0.00000000000E+00 0. -1.
         -2   -1    0    0    0  501 -0.00000000000E+00 -0.00000000000E+00 -0.53953945304E+03  0.53953945304E+03  0.00000000000E+00 0.  1.
         23    2    1    2    0    0  0.72969770588E+03 -0.83652000656E+02  0.32264517229E+03  0.80809991744E+03  0.97309661367E+02 0.  0.
    5000000    2    1    2    0    0 -0.72969770588E+03  0.83652000656E+02  0.46070033957E+03  0.10543245005E+04  0.59991578601E+03 0.  0.
         23    2    4    4    0    0 -0.66906132430E+03  0.27335546770E+03  0.37391247007E+03  0.81860777888E+03  0.89117298929E+02 0.  0.
         23    2    4    4    0    0 -0.60636381575E+02 -0.18970346704E+03  0.86787869499E+02  0.23571672163E+03  0.91466181635E+02 0.  0.
          1    1    3    3  502    0  0.25481991038E+03 -0.90449220421E+01  0.15808697054E+03  0.30001081246E+03  0.00000000000E+00 0. -1.
         -1    1    3    3    0  502  0.47487779550E+03 -0.74607078614E+02  0.16455820175E+03  0.50808910498E+03  0.00000000000E+00 0.  1.
         15    1    5    5    0    0 -0.54636962266E+03  0.25043515503E+03  0.33373993867E+03  0.68747584382E+03  0.17770000000E+01 0.  1.
        -15    1    5    5    0    0 -0.12269170164E+03  0.22920312670E+02  0.40172531402E+02  0.13113193506E+03  0.17770000000E+01 0. -1.
          4    1    6    6  503    0 -0.66528080127E+02 -0.65703684607E+02  0.23673589573E+02  0.96454126192E+02  0.00000000000E+00 0. -1.
         -4    1    6    6    0  503  0.58916985524E+01 -0.12399978244E+03  0.63114279926E+02  0.13926259543E+03  0.00000000000E+00 0.  1.
<mgrwt>
<rscale>  0 0.83959326E+03</rscale>
<asrwt>0</asrwt>
<pdfrwt beam="1">  1        2 0.20352076E+00 0.83959326E+03</pdfrwt>
<pdfrwt beam="2">  1       -2 0.83006070E-01 0.83959326E+03</pdfrwt>
<totfact> 0.20612315E+01</totfact>
</mgrwt>
</event>
<event>
12    1  0.9321077E-008  0.8055783E+03  0.7818608E-02  0.9551978E-01
          2   -1    0    0  501    0  0.00000000000E+00  0.00000000000E+00  0.23159478060E+04  0.23159478060E+04  0.00000000000E+00 0.  1.
         -2   -1    0    0    0  501 -0.00000000000E+00 -0.00000000000E+00 -0.28508661432E+03  0.28508661432E+03  0.00000000000E+00 0. -1.
         23    2    1    2    0    0 -0.62157979352E+03  0.31410792019E+03  0.79585070946E+03  0.10615306597E+04  0.91889958489E+02 0.  0.
    5000000    2    1    2    0    0  0.62157979352E+03 -0.31410792019E+03  0.12350104823E+04  0.15395037607E+04  0.59982973633E+03 0.  0.
         23    2    4    4    0    0  0.29460511225E+03 -0.45529007530E+03  0.69478714695E+03  0.88609418899E+03  0.91392053134E+02 0.  0.
         23    2    4    4    0    0  0.32697468127E+03  0.14118215511E+03  0.54022333533E+03  0.65340957169E+03  0.90873391185E+02 0.  0.
          1    1    3    3  502    0 -0.53427119803E+02  0.57242333945E+02  0.74952625720E+02  0.10839297961E+03  0.00000000000E+00 0. -1.
         -1    1    3    3    0  502 -0.56815267372E+03  0.25686558625E+03  0.72089808374E+03  0.95313768008E+03  0.00000000000E+00 0.  1.
         15    1    5    5    0    0  0.15168026316E+03 -0.17839399101E+03  0.35269198895E+03  0.42335105416E+03  0.17770000000E+01 0.  1.
        -15    1    5    5    0    0  0.14292484910E+03 -0.27689608429E+03  0.34209515800E+03  0.46274313484E+03  0.17770000000E+01 0. -1.
          3    1    6    6  503    0  0.12012561665E+03  0.91009997820E+02  0.17752191293E+03  0.23286694280E+03  0.00000000000E+00 0. -1.
         -3    1    6    6    0  503  0.20684906462E+03  0.50172157289E+02  0.36270142239E+03  0.42054262889E+03  0.00000000000E+00 0.  1.
<mgrwt>
<rscale>  0 0.80557832E+03</rscale>
<asrwt>0</asrwt>
<pdfrwt beam="1">  1        2 0.35629965E+00 0.80557832E+03</pdfrwt>
<pdfrwt beam="2">  1       -2 0.43859481E-01 0.80557832E+03</pdfrwt>
<totfact> 0.22602207E+01</totfact>
</mgrwt>
</event>
<event>
12    1  0.9321077E-008  0.8561340E+03  0.7818608E-02  0.9482141E-01
          2   -1    0    0  501    0  0.00000000000E+00  0.00000000000E+00  0.28980216713E+04  0.28980216713E+04  0.00000000000E+00 0. -1.
         -2   -1    0    0    0  501 -0.00000000000E+00 -0.00000000000E+00 -0.28449024367E+03  0.28449024367E+03  0.00000000000E+00 0.  1.
         23    2    1    2    0    0 -0.73803634239E+03  0.16647092204E+03  0.16545381542E+04  0.18216312830E+04  0.91835814318E+02 0.  0.
    5000000    2    1    2    0    0  0.73803634239E+03 -0.16647092204E+03  0.95899327344E+03  0.13608806320E+04  0.59993148403E+03 0.  0.
         23    2    4    4    0    0  0.29249250925E+03  0.20864702599E+03  0.44651540763E+03  0.57965650838E+03  0.86834377012E+02 0.  0.
         23    2    4    4    0    0  0.44554383313E+03 -0.37511794803E+03  0.51247786582E+03  0.78122412364E+03  0.91949911532E+02 0.  0.
          4    1    3    3  502    0 -0.42097991837E+03  0.50209914130E+02  0.95253983209E+03  0.10426299722E+04  0.00000000000E+00 0. -1.
         -4    1    3    3    0  502 -0.31705642401E+03  0.11626100791E+03  0.70199832211E+03  0.77900131079E+03  0.00000000000E+00 0.  1.
         15    1    5    5    0    0  0.22208589214E+03  0.19648755591E+03  0.38012564478E+03  0.48210804460E+03  0.17770000000E+01 0.  1.
        -15    1    5    5    0    0  0.70406617118E+02  0.12159470082E+02  0.66389762843E+02  0.97548463781E+02  0.17770000000E+01 0. -1.
          2    1    6    6  503    0  0.27427223576E+03 -0.23983834114E+03  0.26065158319E+03  0.44798095608E+03  0.00000000000E+00 0. -1.
         -2    1    6    6    0  503  0.17127159737E+03 -0.13527960689E+03  0.25182628262E+03  0.33324316756E+03  0.00000000000E+00 0.  1.
<mgrwt>
<rscale>  0 0.85613404E+03</rscale>
<asrwt>0</asrwt>
<pdfrwt beam="1">  1        2 0.44584947E+00 0.85613404E+03</pdfrwt>
<pdfrwt beam="2">  1       -2 0.43767732E-01 0.85613404E+03</pdfrwt>
<totfact> 0.10387520E+01</totfact>
</mgrwt>
</event>
<event>
12    1  0.9321077E-008  0.5502287E+03  0.7818608E-02  0.1001441E+00
         -1   -1    0    0    0  501 -0.00000000000E+00  0.00000000000E+00  0.71321587998E+03  0.71321587998E+03  0.00000000000E+00 0.  1.
          1   -1    0    0  501    0  0.00000000000E+00 -0.00000000000E+00 -0.63589792371E+03  0.63589792371E+03  0.00000000000E+00 0. -1.
         23    2    1    2    0    0 -0.38609768204E+03  0.55275310643E+02 -0.33570083732E+03  0.52288497288E+03  0.92665326031E+02 0.  0.
    5000000    2    1    2    0    0  0.38609768204E+03 -0.55275310643E+02  0.41301879359E+03  0.82622883081E+03  0.59995231224E+03 0.  0.
         23    2    4    4    0    0 -0.40705078306E+02  0.18915369179E+03  0.12152618894E+03  0.24717723868E+03  0.94297137854E+02 0.  0.
         23    2    4    4    0    0  0.42680276034E+03 -0.24442900243E+03  0.29149260466E+03  0.57905159213E+03  0.91796918859E+02 0.  0.
          2    1    3    3  502    0 -0.10175115075E+03  0.14440468072E+02 -0.14634834102E+03  0.17882857913E+03  0.00000000000E+00 0.  1.
         -2    1    3    3    0  502 -0.28434653129E+03  0.40834842571E+02 -0.18935249631E+03  0.34405639375E+03  0.00000000000E+00 0. -1.
         15    1    5    5    0    0  0.28516756487E+02  0.52051631514E+02  0.18365996478E+02  0.62153401350E+02  0.17770000000E+01 0. -1.
        -15    1    5    5    0    0 -0.69221834793E+02  0.13710206027E+03  0.10316019246E+03  0.18502383733E+03  0.17770000000E+01 0.  1.
          1    1    6    6  503    0  0.10633348818E+01 -0.12672023532E+02 -0.12533983823E+01  0.12778179407E+02  0.00000000000E+00 0.  1.
         -1    1    6    6    0  503  0.42573942546E+03 -0.23175697890E+03  0.29274600304E+03  0.56627341272E+03  0.00000000000E+00 0. -1.
<mgrwt>
<rscale>  0 0.55022868E+03</rscale>
<asrwt>0</asrwt>
<pdfrwt beam="1">  1        1 0.97830450E-01 0.55022868E+03</pdfrwt>
<pdfrwt beam="2">  1       -1 0.10972552E+00 0.55022868E+03</pdfrwt>
<totfact> 0.25386117E+01</totfact>
</mgrwt>
</event>
<event>
12    1  0.9321077E-008  0.6025010E+03  0.7818608E-02  0.9900231E-01
         -1   -1    0    0    0  501 -0.00000000000E+00  0.00000000000E+00  0.76497338215E+03  0.76497338215E+03  0.00000000000E+00 0.  1.
          1   -1    0    0  501    0  0.00000000000E+00 -0.00000000000E+00 -0.55061971647E+03  0.55061971647E+03  0.00000000000E+00 0. -1.
         23    2    1    2    0    0 -0.35896737143E+03  0.31991726786E+03 -0.73497647264E+02  0.49463835629E+03  0.89780662354E+02 0.  0.
    5000000    2    1    2    0    0  0.35896737143E+03 -0.31991726786E+03  0.28785131295E+03  0.82095474232E+03  0.59991972675E+03 0.  0.
         23    2    4    4    0    0 -0.64360586182E+02  0.96922266592E+02 -0.23206545158E+02  0.14459450668E+03  0.82660854156E+02 0.  0.
         23    2    4    4    0    0  0.42332795761E+03 -0.41683953445E+03  0.31105785810E+03  0.67636023564E+03  0.88002386795E+02 0.  0.
          3    1    3    3  502    0 -0.27157581913E+03  0.26694470951E+03 -0.25286686684E+02  0.38164423223E+03  0.00000000000E+00 0. -1.
         -3    1    3    3    0  502 -0.87391552303E+02  0.52972558348E+02 -0.48210960580E+02  0.11299412406E+03  0.00000000000E+00 0.  1.
         15    1    5    5    0    0  0.33619152335E+01  0.20244249398E+02 -0.36003240374E+02  0.41479189410E+02  0.17770000000E+01 0.  1.
        -15    1    5    5    0    0 -0.67722501415E+02  0.76678017194E+02  0.12796695216E+02  0.10311531727E+03  0.17770000000E+01 0. -1.
          1    1    6    6  503    0  0.30577686242E+03 -0.24985371139E+03  0.22743887139E+03  0.45569156994E+03  0.00000000000E+00 0. -1.
         -1    1    6    6    0  503  0.11755109519E+03 -0.16698582306E+03  0.83618986711E+02  0.22066866570E+03  0.00000000000E+00 0.  1.
<mgrwt>
<rscale>  0 0.60250101E+03</rscale>
<asrwt>0</asrwt>
<pdfrwt beam="1">  1        1 0.84710726E-01 0.60250101E+03</pdfrwt>
<pdfrwt beam="2">  1       -1 0.11768821E+00 0.60250101E+03</pdfrwt>
<totfact> 0.26203191E+01</totfact>
</mgrwt>
</event>
<event>
12    1  0.9321077E-008  0.1766261E+04  0.7818608E-02  0.8724450E-01
         -3   -1    0    0    0  501 -0.00000000000E+00  0.00000000000E+00  0.36717562662E+04  0.36717562662E+04  0.00000000000E+00 0.  1.
          3   -1    0    0  501    0  0.00000000000E+00 -0.00000000000E+00 -0.14810874832E+04  0.14810874832E+04  0.00000000000E+00 0. -1.
         23    2    1    2    0    0  0.42987162959E+03  0.16781032919E+04  0.27364997847E+04  0.32400405467E+04  0.92797610473E+02 0.  0.
    5000000    2    1    2    0    0 -0.42987162959E+03 -0.16781032919E+04 -0.54583100163E+03  0.19128032028E+04  0.60005360931E+03 0.  0.
         23    2    4    4    0    0 -0.53668911564E+03 -0.13886511387E+04 -0.33646371856E+03  0.15290550061E+04  0.91728873061E+02 0.  0.
         23    2    4    4    0    0  0.10681748605E+03 -0.28945215320E+03 -0.20936728307E+03  0.38374819661E+03  0.90749627355E+02 0.  0.
          1    1    3    3  502    0  0.28420813645E+03  0.10245347273E+04  0.16037042843E+04  0.19241395749E+04  0.00000000000E+00 0.  1.
         -1    1    3    3    0  502  0.14566349313E+03  0.65356856453E+03  0.11327955004E+04  0.13159009717E+04  0.00000000000E+00 0. -1.
         15    1    5    5    0    0 -0.45523330434E+03 -0.12348973516E+04 -0.31848735150E+03  0.13541219225E+04  0.17770000000E+01 0. -1.
        -15    1    5    5    0    0 -0.81455811298E+02 -0.15375378711E+03 -0.17976367061E+02  0.17493308362E+03  0.17770000000E+01 0.  1.
          4    1    6    6  503    0  0.68525711673E+02 -0.14954106870E+03 -0.16271275227E+03  0.23137360294E+03  0.00000000000E+00 0. -1.
         -4    1    6    6    0  503  0.38291774379E+02 -0.13991108450E+03 -0.46654530799E+02  0.15237459367E+03  0.00000000000E+00 0.  1.
<mgrwt>
<rscale>  0 0.17662606E+04</rscale>
<asrwt>0</asrwt>
<pdfrwt beam="1">  1        3 0.22785961E+00 0.17662606E+04</pdfrwt>
<pdfrwt beam="2">  1       -3 0.56488558E+00 0.17662606E+04</pdfrwt>
<totfact> 0.31870915E-04</totfact>
</mgrwt>
</event>
<event>
12    1  0.9321077E-008  0.8455195E+03  0.7818608E-02  0.9496370E-01
          2   -1    0    0  501    0  0.00000000000E+00  0.00000000000E+00  0.26322612311E+04  0.26322612311E+04  0.00000000000E+00 0. -1.
         -2   -1    0    0    0  501 -0.00000000000E+00 -0.00000000000E+00 -0.29594012227E+03  0.29594012227E+03  0.00000000000E+00 0.  1.
         23    2    1    2    0    0 -0.33387914647E+02 -0.77481185543E+03  0.94152366424E+03  0.12231942139E+04  0.91044552608E+02 0.  0.
    5000000    2    1    2    0    0  0.33387914647E+02  0.77481185543E+03  0.13947974446E+04  0.17050071395E+04  0.60011771337E+03 0.  0.
         23    2    4    4    0    0 -0.22144366724E+01  0.82867409871E+03  0.13462725575E+04  0.15834488914E+04  0.90304633487E+02 0.  0.
         23    2    4    4    0    0  0.35602351320E+02 -0.53862243282E+02  0.48524887106E+02  0.12155824809E+03  0.90846432730E+02 0.  0.
          1    1    3    3  502    0 -0.32311503145E+02 -0.89712971347E+02  0.12827240711E+03  0.15983197706E+03  0.00000000000E+00 0. -1.
         -1    1    3    3    0  502 -0.10764115024E+01 -0.68509888408E+03  0.81325125713E+03  0.10633622369E+04  0.00000000000E+00 0.  1.
         15    1    5    5    0    0 -0.35351945221E+02  0.58768462289E+03  0.90740073557E+03  0.10816664128E+04  0.17770000000E+01 0. -1.
        -15    1    5    5    0    0  0.33137508549E+02  0.24098947582E+03  0.43887182196E+03  0.50178247854E+03  0.17770000000E+01 0.  1.
          1    1    6    6  503    0  0.17597407598E+02  0.39374393491E+01 -0.22109228194E+02  0.28530512686E+02  0.00000000000E+00 0. -1.
         -1    1    6    6    0  503  0.18004943721E+02 -0.57799682631E+02  0.70634115300E+02  0.93027735406E+02  0.00000000000E+00 0.  1.
<mgrwt>
<rscale>  0 0.84551946E+03</rscale>
<asrwt>0</asrwt>
<pdfrwt beam="1">  1        2 0.40496325E+00 0.84551946E+03</pdfrwt>
<pdfrwt beam="2">  1       -2 0.45529251E-01 0.84551946E+03</pdfrwt>
<totfact> 0.13800859E+01</totfact>
</mgrwt>
</event>
<event>
12    1  0.9321077E-008  0.1289182E+04  0.7818608E-02  0.9038188E-01
          2   -1    0    0  501    0  0.00000000000E+00  0.00000000000E+00  0.19972511584E+04  0.19972511584E+04  0.00000000000E+00 0.  1.
         -2   -1    0    0    0  501 -0.00000000000E+00 -0.00000000000E+00 -0.91590985831E+03  0.91590985831E+03  0.00000000000E+00 0. -1.
         23    2    1    2    0    0  0.92595790597E+03  0.88533206521E+03  0.61295952097E+03  0.14230184977E+04  0.89729378006E+02 0.  0.
    5000000    2    1    2    0    0 -0.92595790597E+03 -0.88533206521E+03  0.46838177910E+03  0.14901425189E+04  0.59994360275E+03 0.  0.
         23    2    4    4    0    0 -0.38342635603E+03 -0.24290197709E+03 -0.97256295155E+02  0.47237440301E+03  0.87530844269E+02 0.  0.
         23    2    4    4    0    0 -0.54253154993E+03 -0.64243008812E+03  0.56563807425E+03  0.10177681159E+04  0.94067029192E+02 0.  0.
          1    1    3    3  502    0  0.35282263612E+03  0.35635653488E+03  0.28625013814E+03  0.57741920136E+03  0.00000000000E+00 0. -1.
         -1    1    3    3    0  502  0.57313526985E+03  0.52897553033E+03  0.32670938283E+03  0.84559929639E+03  0.00000000000E+00 0.  1.
         15    1    5    5    0    0 -0.13663197558E+03 -0.78258472048E+02 -0.76239956091E+02  0.17495249021E+03  0.17770000000E+01 0.  1.
        -15    1    5    5    0    0 -0.24679438046E+03 -0.16464350504E+03 -0.21016339064E+02  0.29742191280E+03  0.17770000000E+01 0. -1.
          2    1    6    6  503    0 -0.83823576616E+02 -0.13381360268E+03  0.14247774109E+03  0.21267905154E+03  0.00000000000E+00 0. -1.
         -2    1    6    6    0  503 -0.45870797332E+03 -0.50861648544E+03  0.42316033316E+03  0.80508906439E+03  0.00000000000E+00 0.  1.
<mgrwt>
<rscale>  0 0.12891820E+04</rscale>
<asrwt>0</asrwt>
<pdfrwt beam="1">  1        2 0.30726941E+00 0.12891820E+04</pdfrwt>
<pdfrwt beam="2">  1       -2 0.14090921E+00 0.12891820E+04</pdfrwt>
<totfact> 0.22847491E+00</totfact>
</mgrwt>
</event>
<event>
12    1  0.9321077E-008  0.1002324E+04  0.7818608E-02  0.9306000E-01
          2   -1    0    0  501    0  0.00000000000E+00  0.00000000000E+00  0.18445306272E+04  0.18445306272E+04  0.00000000000E+00 0.  1.
         -2   -1    0    0    0  501 -0.00000000000E+00 -0.00000000000E+00 -0.10247404649E+04  0.10247404649E+04  0.00000000000E+00 0. -1.
         23    2    1    2    0    0 -0.14485687811E+03  0.90389140435E+03  0.13653514691E+04  0.16462757348E+04  0.89643599649E+02 0.  0.
    5000000    2    1    2    0    0  0.14485687811E+03 -0.90389140435E+03 -0.54556130681E+03  0.12229953573E+04  0.60006442866E+03 0.  0.
         23    2    4    4    0    0 -0.93179453627E+02 -0.80745708473E+03 -0.36394624326E+03  0.89508451156E+03  0.89722129924E+02 0.  0.
         23    2    4    4    0    0  0.23803633173E+03 -0.96434319621E+02 -0.18161506355E+03  0.32791084576E+03  0.92631626509E+02 0.  0.
          2    1    3    3  502    0 -0.26717125917E+02  0.39735701892E+03  0.54703029303E+03  0.67664506707E+03  0.00000000000E+00 0. -1.
         -2    1    3    3    0  502 -0.11813975219E+03  0.50653438543E+03  0.81832117605E+03  0.96963066775E+03  0.00000000000E+00 0.  1.
         15    1    5    5    0    0 -0.56402451116E+02 -0.37520804103E+03 -0.12310075904E+03  0.39889756222E+03  0.17770000000E+01 0. -1.
        -15    1    5    5    0    0 -0.36777002511E+02 -0.43224904370E+03 -0.24084548422E+03  0.49618694934E+03  0.17770000000E+01 0.  1.
          2    1    6    6  503    0  0.15877533102E+03 -0.15160435209E+02 -0.10562437086E+03  0.19130068546E+03  0.00000000000E+00 0. -1.
         -2    1    6    6    0  503  0.79261000713E+02 -0.81273884412E+02 -0.75990692686E+02  0.13661016030E+03  0.00000000000E+00 0.  1.
<mgrwt>
<rscale>  0 0.10023235E+04</rscale>
<asrwt>0</asrwt>
<pdfrwt beam="1">  1        2 0.28377394E+00 0.10023235E+04</pdfrwt>
<pdfrwt beam="2">  1       -2 0.15765238E+00 0.10023235E+04</pdfrwt>
<totfact> 0.21275989E+00</totfact>
</mgrwt>
</event>
<event>
12    1  0.9321077E-008  0.1317878E+04  0.7818608E-02  0.9015506E-01
          2   -1    0    0  501    0  0.00000000000E+00  0.00000000000E+00  0.17218422034E+04  0.17218422034E+04  0.00000000000E+00 0. -1.
         -2   -1    0    0    0  501 -0.00000000000E+00 -0.00000000000E+00 -0.10494439662E+04  0.10494439662E+04  0.00000000000E+00 0.  1.
         23    2    1    2    0    0 -0.12374166565E+04  0.18875970552E+03  0.57258218392E+03  0.13796254994E+04  0.93198460584E+02 0.  0.
    5000000    2    1    2    0    0  0.12374166565E+04 -0.18875970552E+03  0.99816053277E+02  0.13916606702E+04  0.59993830357E+03 0.  0.
         23    2    4    4    0    0  0.12547939311E+04 -0.24271177621E+03  0.12169350774E+03  0.12872988851E+04  0.94404945964E+02 0.  0.
         23    2    4    4    0    0 -0.17377274627E+02  0.53952070690E+02 -0.21877454461E+02  0.10436178504E+03  0.84852599005E+02 0.  0.
          2    1    3    3  502    0 -0.32800205274E+03  0.74382690415E+02  0.19108852868E+03  0.38682419395E+03  0.00000000000E+00 0. -1.
         -2    1    3    3    0  502 -0.90941460378E+03  0.11437701510E+03  0.38149365524E+03  0.99280130547E+03  0.00000000000E+00 0.  1.
         15    1    5    5    0    0  0.16369520507E+03 -0.31747776775E+01  0.29962240669E+02  0.16645447718E+03  0.17770000000E+01 0. -1.
        -15    1    5    5    0    0  0.10910987261E+04 -0.23953699853E+03  0.91731267069E+02  0.11208444079E+04  0.17770000000E+01 0.  1.
          1    1    6    6  503    0  0.55216033292E+01  0.72407042083E+02 -0.16399413695E+02  0.74446011418E+02  0.00000000000E+00 0. -1.
         -1    1    6    6    0  503 -0.22898877956E+02 -0.18454971393E+02 -0.54780407664E+01  0.29915773622E+02  0.00000000000E+00 0.  1.
<mgrwt>
<rscale>  0 0.13178783E+04</rscale>
<asrwt>0</asrwt>
<pdfrwt beam="1">  1        2 0.26489880E+00 0.13178783E+04</pdfrwt>
<pdfrwt beam="2">  1       -2 0.16145292E+00 0.13178783E+04</pdfrwt>
<totfact> 0.22495495E+00</totfact>
</mgrwt>
</event>
<event>
12    1  0.9321077E-008  0.7327114E+03  0.7818608E-02  0.9662871E-01
          1   -1    0    0  501    0  0.00000000000E+00  0.00000000000E+00  0.13863047806E+04  0.13863047806E+04  0.00000000000E+00 0. -1.
         -1   -1    0    0    0  501 -0.00000000000E+00 -0.00000000000E+00 -0.10220828183E+04  0.10220828183E+04  0.00000000000E+00 0.  1.
         23    2    1    2    0    0 -0.47889782818E+03 -0.46173476688E+03 -0.73176674834E+03  0.99283161544E+03  0.87692176772E+02 0.  0.
    5000000    2    1    2    0    0  0.47889782818E+03  0.46173476688E+03  0.10959887106E+04  0.14155559835E+04  0.60005446746E+03 0.  0.
         23    2    4    4    0    0  0.55506662802E+03  0.36398487103E+03  0.60850848842E+03  0.90472028980E+03  0.87477279388E+02 0.  0.
         23    2    4    4    0    0 -0.76168799844E+02  0.97749895848E+02  0.48748022220E+03  0.51083569373E+03  0.89215529735E+02 0.  0.
          4    1    3    3  502    0 -0.24213986536E+03 -0.20959224517E+03 -0.29237642543E+03  0.43364109328E+03  0.00000000000E+00 0. -1.
         -4    1    3    3    0  502 -0.23675796282E+03 -0.25214252171E+03 -0.43939032291E+03  0.55919052216E+03  0.00000000000E+00 0.  1.
         15    1    5    5    0    0  0.48770227455E+03  0.34198879013E+03  0.56805069368E+03  0.82310059500E+03  0.17770000000E+01 0. -1.
        -15    1    5    5    0    0  0.67364353476E+02  0.21996080900E+02  0.40457794734E+02  0.81619694792E+02  0.17770000000E+01 0.  1.
          1    1    6    6  503    0 -0.16029031818E+02  0.59155572829E+02  0.10368337644E+03  0.12044315758E+03  0.00000000000E+00 0. -1.
         -1    1    6    6    0  503 -0.60139768026E+02  0.38594323018E+02  0.38379684576E+03  0.39039253615E+03  0.00000000000E+00 0.  1.
<mgrwt>
<rscale>  0 0.73271135E+03</rscale>
<asrwt>0</asrwt>
<pdfrwt beam="1">  1        1 0.21327766E+00 0.73271135E+03</pdfrwt>
<pdfrwt beam="2">  1       -1 0.15724351E+00 0.73271135E+03</pdfrwt>
<totfact> 0.25244424E+00</totfact>
</mgrwt>
</event>
<event>
12    1  0.9321077E-008  0.5086175E+03  0.7818608E-02  0.1011554E+00
          2   -1    0    0  501    0  0.00000000000E+00  0.00000000000E+00  0.91453569728E+03  0.91453569728E+03  0.00000000000E+00 0. -1.
         -2   -1    0    0    0  501 -0.00000000000E+00 -0.00000000000E+00 -0.38915644899E+03  0.38915644899E+03  0.00000000000E+00 0.  1.
         23    2    1    2    0    0  0.66679451444E+02 -0.36840847738E+03  0.45091391999E+03  0.59290101053E+03  0.89650931901E+02 0.  0.
    5000000    2    1    2    0    0 -0.66679451444E+02  0.36840847738E+03  0.74465328299E+02  0.71079113575E+03  0.59958985823E+03 0.  0.
         23    2    4    4    0    0 -0.26114879106E+03  0.91651478530E+02 -0.11248086593E+03  0.31228475120E+03  0.90945786284E+02 0.  0.
         23    2    4    4    0    0  0.19446933962E+03  0.27675699885E+03  0.18694619422E+03  0.39850638455E+03  0.97188983592E+02 0.  0.
          1    1    3    3  502    0  0.75723703123E+02 -0.27753980342E+03  0.29391779323E+03  0.41127860493E+03  0.00000000000E+00 0. -1.
         -1    1    3    3    0  502 -0.90442516793E+01 -0.90868673953E+02  0.15699612676E+03  0.18162240559E+03  0.00000000000E+00 0.  1.
         15    1    5    5    0    0 -0.14514630668E+03  0.95522989277E+02 -0.51934737455E+02  0.18136280354E+03  0.17770000000E+01 0. -1.
        -15    1    5    5    0    0 -0.11600248437E+03 -0.38715107471E+01 -0.60546128470E+02  0.13092194766E+03  0.17770000000E+01 0.  1.
          2    1    6    6  503    0  0.12010624228E+03  0.23291617804E+03  0.16413870910E+03  0.30921993993E+03  0.00000000000E+00 0. -1.
         -2    1    6    6    0  503  0.74363097338E+02  0.43840820808E+02  0.22807485120E+02  0.89286444617E+02  0.00000000000E+00 0.  1.
<mgrwt>
<rscale>  0 0.50861753E+03</rscale>
<asrwt>0</asrwt>
<pdfrwt beam="1">  1        2 0.14069780E+00 0.50861753E+03</pdfrwt>
<pdfrwt beam="2">  1       -2 0.59870223E-01 0.50861753E+03</pdfrwt>
<totfact> 0.77294499E+01</totfact>
</mgrwt>
</event>
<event>
12    1  0.9321077E-008  0.1842618E+04  0.7818608E-02  0.8683958E-01
         -1   -1    0    0    0  501 -0.00000000000E+00  0.00000000000E+00  0.16310753945E+04  0.16310753945E+04  0.00000000000E+00 0.  1.
          1   -1    0    0  501    0  0.00000000000E+00 -0.00000000000E+00 -0.29500533205E+04  0.29500533205E+04  0.00000000000E+00 0. -1.
         23    2    1    2    0    0 -0.32358450077E+02 -0.18029817862E+04 -0.18730084751E+04  0.26015350200E+04  0.89628800936E+02 0.  0.
    5000000    2    1    2    0    0  0.32358450077E+02  0.18029817862E+04  0.55403054908E+03  0.19795936950E+04  0.60004246313E+03 0.  0.
         23    2    4    4    0    0 -0.19719726973E+03  0.13553313854E+04  0.28636111340E+03  0.14023081023E+04  0.93034396827E+02 0.  0.
         23    2    4    4    0    0  0.22955571981E+03  0.44765040073E+03  0.26766943569E+03  0.57728559273E+03  0.92331029442E+02 0.  0.
          1    1    3    3  502    0 -0.26836386525E+01 -0.13990774640E+04 -0.14085901806E+04  0.19853340396E+04  0.00000000000E+00 0. -1.
         -1    1    3    3    0  502 -0.29674811425E+02 -0.40390432222E+03 -0.46441829450E+03  0.61620098037E+03  0.00000000000E+00 0.  1.
         15    1    5    5    0    0 -0.71033964830E+02  0.43863259062E+03  0.49257924369E+02  0.44707256072E+03  0.17770000000E+01 0.  1.
        -15    1    5    5    0    0 -0.12616330490E+03  0.91669879483E+03  0.23710318903E+03  0.95523554159E+03  0.17770000000E+01 0. -1.
          2    1    6    6  503    0  0.91332338056E+02  0.90809506027E+02  0.68924397599E+02  0.14607715408E+03  0.00000000000E+00 0.  1.
         -2    1    6    6    0  503  0.13822338175E+03  0.35684089470E+03  0.19874503809E+03  0.43120843865E+03  0.00000000000E+00 0. -1.
<mgrwt>
<rscale>  0 0.18426179E+04</rscale>
<asrwt>0</asrwt>
<pdfrwt beam="1">  1        1 0.45385435E+00 0.18426179E+04</pdfrwt>
<pdfrwt beam="2">  1       -1 0.25093468E+00 0.18426179E+04</pdfrwt>
<totfact> 0.40425072E-02</totfact>
</mgrwt>
</event>
<event>
12    1  0.9321077E-008  0.6379016E+03  0.7818608E-02  0.9829750E-01
          2   -1    0    0  501    0  0.00000000000E+00  0.00000000000E+00  0.12086353696E+04  0.12086353696E+04  0.00000000000E+00 0. -1.
         -2   -1    0    0    0  501 -0.00000000000E+00 -0.00000000000E+00 -0.63774352740E+03  0.63774352740E+03  0.00000000000E+00 0.  1.
         23    2    1    2    0    0 -0.12820723823E+03  0.61141155606E+03 -0.22476963858E+03  0.67022935543E+03  0.91786772703E+02 0.  0.
    5000000    2    1    2    0    0  0.12820723823E+03 -0.61141155606E+03  0.79566148079E+03  0.11761495416E+04  0.59999113769E+03 0.  0.
         23    2    4    4    0    0  0.11265357321E+03 -0.27255401777E+03  0.21264709852E+01  0.30858985074E+03  0.90811089290E+02 0.  0.
         23    2    4    4    0    0  0.15553665013E+02 -0.33885753828E+03  0.79353500980E+03  0.86755969083E+03  0.88857513027E+02 0.  0.
          1    1    3    3  502    0 -0.44044372063E+02  0.22850891625E+03 -0.13129113220E+03  0.26719579509E+03  0.00000000000E+00 0. -1.
         -1    1    3    3    0  502 -0.84162866163E+02  0.38290263980E+03 -0.93478506377E+02  0.40303356035E+03  0.00000000000E+00 0.  1.
         15    1    5    5    0    0  0.49801977002E+02 -0.39288631772E+02 -0.18553835266E+02  0.66115323729E+02  0.17770000000E+01 0.  1.
        -15    1    5    5    0    0  0.62851596211E+02 -0.23326538600E+03  0.20680306251E+02  0.24247452701E+03  0.17770000000E+01 0. -1.
          2    1    6    6  503    0  0.20853552786E+02 -0.27108597364E+02  0.43768964850E+02  0.55546998108E+02  0.00000000000E+00 0. -1.
         -2    1    6    6    0  503 -0.52998877721E+01 -0.31174894092E+03  0.74976604496E+03  0.81201269272E+03  0.00000000000E+00 0.  1.
<mgrwt>
<rscale>  0 0.63790160E+03</rscale>
<asrwt>0</asrwt>
<pdfrwt beam="1">  1        2 0.18594390E+00 0.63790160E+03</pdfrwt>
<pdfrwt beam="2">  1       -2 0.98114389E-01 0.63790160E+03</pdfrwt>
<totfact> 0.16720122E+01</totfact>
</mgrwt>
</event>
<event>
12    1  0.9321077E-008  0.1480085E+04  0.7818608E-02  0.8897805E-01
          1   -1    0    0  501    0  0.00000000000E+00  0.00000000000E+00  0.37174803189E+04  0.37174803189E+04  0.00000000000E+00 0. -1.
         -1   -1    0    0    0  501 -0.00000000000E+00 -0.00000000000E+00 -0.71854449769E+03  0.71854449769E+03  0.00000000000E+00 0.  1.
         23    2    1    2    0    0  0.14481516076E+04  0.73872821177E+02  0.22949836011E+04  0.27160637919E+04  0.86327981613E+02 0.  0.
    5000000    2    1    2    0    0 -0.14481516076E+04 -0.73872821177E+02  0.70395222016E+03  0.17199610247E+04  0.60009743041E+03 0.  0.
         23    2    4    4    0    0 -0.12643409531E+04  0.61848974884E+02  0.40231439478E+03  0.13309139657E+04  0.84212650488E+02 0.  0.
         23    2    4    4    0    0 -0.18381065448E+03 -0.13572179606E+03  0.30163782538E+03  0.38904705899E+03  0.90363011153E+02 0.  0.
          2    1    3    3  502    0  0.50399720688E+03 -0.12629023525E+02  0.76897832985E+03  0.91951092901E+03  0.00000000000E+00 0. -1.
         -2    1    3    3    0  502  0.94415440069E+03  0.86501844703E+02  0.15260052712E+04  0.17965528629E+04  0.00000000000E+00 0.  1.
         15    1    5    5    0    0 -0.70175703274E+03  0.57597771472E+02  0.18710693185E+03  0.72855514407E+03  0.17770000000E+01 0. -1.
        -15    1    5    5    0    0 -0.56258392035E+03  0.42512034129E+01  0.21520746293E+03  0.60235882163E+03  0.17770000000E+01 0.  1.
          4    1    6    6  503    0 -0.73836551587E+02 -0.10586760609E+02  0.60936088852E+02  0.96317821690E+02  0.00000000000E+00 0. -1.
         -4    1    6    6    0  503 -0.10997410290E+03 -0.12513503545E+03  0.24070173653E+03  0.29272923730E+03  0.00000000000E+00 0.  1.
<mgrwt>
<rscale>  0 0.14800851E+04</rscale>
<asrwt>0</asrwt>
<pdfrwt beam="1">  1        1 0.57192004E+00 0.14800851E+04</pdfrwt>
<pdfrwt beam="2">  1       -1 0.11054531E+00 0.14800851E+04</pdfrwt>
<totfact> 0.12167870E-01</totfact>
</mgrwt>
</event>
<event>
12    1  0.9321077E-008  0.4126181E+03  0.7818608E-02  0.1039496E+00
         -2   -1    0    0    0  501 -0.00000000000E+00  0.00000000000E+00  0.84579829209E+02  0.84579829209E+02  0.00000000000E+00 0.  1.
          2   -1    0    0  501    0  0.00000000000E+00 -0.00000000000E+00 -0.32398885470E+04  0.32398885470E+04  0.00000000000E+00 0. -1.
         23    2    1    2    0    0  0.26412319756E+03 -0.18035876149E+03 -0.14722088834E+04  0.15092932893E+04  0.90977416899E+02 0.  0.
    5000000    2    1    2    0    0 -0.26412319756E+03  0.18035876149E+03 -0.16830998344E+04  0.18151750869E+04  0.59978762685E+03 0.  0.
         23    2    4    4    0    0 -0.13679292023E+03 -0.96600805663E+02 -0.13076793704E+03  0.23022686178E+03  0.88657407186E+02 0.  0.
         23    2    4    4    0    0 -0.12733027732E+03  0.27695956715E+03 -0.15523318973E+04  0.15849482251E+04  0.96989460652E+02 0.  0.
          3    1    3    3  502    0  0.17957547931E+03 -0.14597118991E+03 -0.87206844470E+03  0.90225180149E+03  0.00000000000E+00 0.  1.
         -3    1    3    3    0  502  0.84547718247E+02 -0.34387571585E+02 -0.60014043872E+03  0.60704148782E+03  0.00000000000E+00 0. -1.
         15    1    5    5    0    0 -0.51672996062E+02  0.39833128998E+01 -0.12926524200E+02  0.53443597003E+02  0.17770000000E+01 0.  1.
        -15    1    5    5    0    0 -0.85119924170E+02 -0.10058411856E+03 -0.11784141284E+03  0.17678326478E+03  0.17770000000E+01 0. -1.
          3    1    6    6  503    0 -0.84379761354E+02  0.76490481829E+02 -0.61506781074E+03  0.62552310089E+03  0.00000000000E+00 0. -1.
         -3    1    6    6    0  503 -0.42950515971E+02  0.20046908533E+03 -0.93726408659E+03  0.95942512423E+03  0.00000000000E+00 0.  1.
<mgrwt>
<rscale>  0 0.41261813E+03</rscale>
<asrwt>0</asrwt>
<pdfrwt beam="1">  1        2 0.49844428E+00 0.41261813E+03</pdfrwt>
<pdfrwt beam="2">  1       -2 0.13012284E-01 0.41261813E+03</pdfrwt>
<totfact> 0.61775371E+01</totfact>
</mgrwt>
</event>
<event>
12    1  0.9321077E-008  0.5286013E+03  0.7818608E-02  0.1006572E+00
         -1   -1    0    0    0  501 -0.00000000000E+00  0.00000000000E+00  0.35006414856E+03  0.35006414856E+03  0.00000000000E+00 0.  1.
          1   -1    0    0  501    0  0.00000000000E+00 -0.00000000000E+00 -0.85877961871E+03  0.85877961871E+03  0.00000000000E+00 0. -1.
         23    2    1    2    0    0  0.35342813868E+03  0.96483537498E+02 -0.80332790297E+02  0.38559201683E+03  0.89483652280E+02 0.  0.
    5000000    2    1    2    0    0 -0.35342813868E+03 -0.96483537498E+02 -0.42838267986E+03  0.82325175045E+03  0.60000933492E+03 0.  0.
         23    2    4    4    0    0 -0.18096853095E+03  0.23644519135E+03 -0.24432601708E+03  0.39559089706E+03  0.90227587287E+02 0.  0.
         23    2    4    4    0    0 -0.17245960774E+03 -0.33292872885E+03 -0.18405666277E+03  0.42766085339E+03  0.91831887795E+02 0.  0.
          4    1    3    3  502    0  0.83436551464E+02 -0.24313005703E+01 -0.47871208594E+02  0.96224851026E+02  0.00000000000E+00 0. -1.
         -4    1    3    3    0  502  0.26999158722E+03  0.98914838068E+02 -0.32461581703E+02  0.28936716580E+03  0.00000000000E+00 0.  1.
         15    1    5    5    0    0 -0.17858121429E+03  0.17650742391E+03 -0.19868758508E+03  0.32019686910E+03  0.17770000000E+01 0.  1.
        -15    1    5    5    0    0 -0.23873166600E+01  0.59937767438E+02 -0.45638432009E+02  0.75394027957E+02  0.17770000000E+01 0. -1.
          1    1    6    6  503    0 -0.30073850068E+02 -0.66795231034E+02  0.16599860091E+01  0.73272060844E+02  0.00000000000E+00 0. -1.
         -1    1    6    6    0  503 -0.14238575767E+03 -0.26613349781E+03 -0.18571664878E+03  0.35438879254E+03  0.00000000000E+00 0.  1.
<mgrwt>
<rscale>  0 0.52860129E+03</rscale>
<asrwt>0</asrwt>
<pdfrwt beam="1">  1        1 0.13211994E+00 0.52860129E+03</pdfrwt>
<pdfrwt beam="2">  1       -1 0.53856024E-01 0.52860129E+03</pdfrwt>
<totfact> 0.71565164E+01</totfact>
</mgrwt>
</event>
<event>
12    1  0.9321077E-008  0.8481325E+03  0.7818608E-02  0.9492847E-01
          2   -1    0    0  501    0  0.00000000000E+00  0.00000000000E+00  0.36101946664E+04  0.36101946664E+04  0.00000000000E+00 0. -1.
         -2   -1    0    0    0  501 -0.00000000000E+00 -0.00000000000E+00 -0.25215793956E+03  0.25215793956E+03  0.00000000000E+00 0.  1.
         23    2    1    2    0    0  0.76314921815E+03  0.26294576641E+03  0.93418018737E+03  0.12381263351E+04  0.93418380783E+02 0.  0.
    5000000    2    1    2    0    0 -0.76314921815E+03 -0.26294576641E+03  0.24238565395E+04  0.26242262709E+04  0.59995482470E+03 0.  0.
         23    2    4    4    0    0 -0.74553828458E+03 -0.27744203997E+03  0.15426142496E+04  0.17380637924E+04  0.91682081561E+02 0.  0.
         23    2    4    4    0    0 -0.17610933569E+02  0.14496273554E+02  0.88124228992E+03  0.88616247853E+03  0.90419455281E+02 0.  0.
          1    1    3    3  502    0  0.34691724969E+03  0.10304386606E+03  0.35240613469E+03  0.50513334896E+03  0.00000000000E+00 0. -1.
         -1    1    3    3    0  502  0.41623196846E+03  0.15990190035E+03  0.58177405269E+03  0.73299298611E+03  0.00000000000E+00 0.  1.
         15    1    5    5    0    0 -0.52016462831E+03 -0.19867509751E+03  0.11663329728E+04  0.12924313506E+04  0.17770000000E+01 0.  1.
        -15    1    5    5    0    0 -0.22537365626E+03 -0.78766942451E+02  0.37628127680E+03  0.44563244177E+03  0.17770000000E+01 0. -1.
          2    1    6    6  503    0  0.67153118063E+01  0.49683073001E+02  0.43756273901E+03  0.44042553710E+03  0.00000000000E+00 0. -1.
         -2    1    6    6    0  503 -0.24326245375E+02 -0.35186799447E+02  0.44367955090E+03  0.44573694143E+03  0.00000000000E+00 0.  1.
<mgrwt>
<rscale>  0 0.84813248E+03</rscale>
<asrwt>0</asrwt>
<pdfrwt beam="1">  1        2 0.55541453E+00 0.84813248E+03</pdfrwt>
<pdfrwt beam="2">  1       -2 0.38793532E-01 0.84813248E+03</pdfrwt>
<totfact> 0.45503730E+00</totfact>
</mgrwt>
</event>
<event>
12    1  0.9321077E-008  0.1172888E+04  0.7818608E-02  0.9136924E-01
         -2   -1    0    0    0  501 -0.00000000000E+00  0.00000000000E+00  0.13017989537E+04  0.13017989537E+04  0.00000000000E+00 0.  1.
          2   -1    0    0  501    0  0.00000000000E+00 -0.00000000000E+00 -0.16260533050E+04  0.16260533050E+04  0.00000000000E+00 0. -1.
         23    2    1    2    0    0 -0.94697080830E+03 -0.68876780810E+03  0.60093743239E+03  0.13193383107E+04  0.91503962007E+02 0.  0.
    5000000    2    1    2    0    0  0.94697080830E+03  0.68876780810E+03 -0.92519178373E+03  0.16085139481E+04  0.60015204675E+03 0.  0.
         23    2    4    4    0    0  0.60004899608E+03  0.45833028061E+03 -0.90375077408E+03  0.11812956807E+04  0.92566623443E+02 0.  0.
         23    2    4    4    0    0  0.34692181222E+03  0.23043752749E+03 -0.21441009645E+02  0.42721826737E+03  0.92733668137E+02 0.  0.
          3    1    3    3  502    0 -0.40533734336E+03 -0.29973361740E+03  0.20825973527E+03  0.54544543326E+03  0.00000000000E+00 0. -1.
         -3    1    3    3    0  502 -0.54163346494E+03 -0.38903419070E+03  0.39267769711E+03  0.77389287739E+03  0.00000000000E+00 0.  1.
         15    1    5    5    0    0  0.37000040948E+02  0.49843938008E+02 -0.10603744451E+03  0.12288416722E+03  0.17770000000E+01 0. -1.
        -15    1    5    5    0    0  0.56304895513E+03  0.40848634260E+03 -0.79771332957E+03  0.10584115135E+04  0.17770000000E+01 0.  1.
          4    1    6    6  503    0  0.18269223382E+03  0.10811752047E+03  0.34181979483E+02  0.21502152975E+03  0.00000000000E+00 0. -1.
         -4    1    6    6    0  503  0.16422957840E+03  0.12232000702E+03 -0.55622989128E+02  0.21219673762E+03  0.00000000000E+00 0.  1.
<mgrwt>
<rscale>  0 0.11728885E+04</rscale>
<asrwt>0</asrwt>
<pdfrwt beam="1">  1        2 0.25016205E+00 0.11728885E+04</pdfrwt>
<pdfrwt beam="2">  1       -2 0.20027676E+00 0.11728885E+04</pdfrwt>
<totfact> 0.13898737E+00</totfact>
</mgrwt>
</event>
<event>
12    1  0.9321077E-008  0.8906097E+03  0.7818608E-02  0.9437396E-01
         -2   -1    0    0    0  501 -0.00000000000E+00  0.00000000000E+00  0.14413875403E+04  0.14413875403E+04  0.00000000000E+00 0.  1.
          2   -1    0    0  501    0  0.00000000000E+00 -0.00000000000E+00 -0.63668193388E+03  0.63668193388E+03  0.00000000000E+00 0. -1.
         23    2    1    2    0    0 -0.94777786997E+02  0.82327256188E+03  0.10539288537E+03  0.83886845510E+03  0.76368086391E+02 0.  0.
    5000000    2    1    2    0    0  0.94777786997E+02 -0.82327256188E+03  0.69931272107E+03  0.12392010191E+04  0.59985026785E+03 0.  0.
         23    2    4    4    0    0 -0.68024774728E+02 -0.77204713875E+03  0.38601821820E+03  0.87087881760E+03  0.93464943880E+02 0.  0.
         23    2    4    4    0    0  0.16280256172E+03 -0.51225423126E+02  0.31329450287E+03  0.36832220150E+03  0.91537317572E+02 0.  0.
          1    1    3    3  502    0  0.61916814973E+01  0.25143726647E+03  0.34957053057E+02  0.25393115494E+03  0.00000000000E+00 0. -1.
         -1    1    3    3    0  502 -0.10096946849E+03  0.57183529541E+03  0.70435832316E+02  0.58493730016E+03  0.00000000000E+00 0.  1.
         15    1    5    5    0    0 -0.36226147433E+02 -0.67204997075E+03  0.35770244111E+03  0.76217956614E+03  0.17770000000E+01 0. -1.
        -15    1    5    5    0    0 -0.31798627294E+02 -0.99997168009E+02  0.28315777089E+02  0.10869925146E+03  0.17770000000E+01 0.  1.
          1    1    6    6  503    0  0.10517257624E+03 -0.38762849733E+02  0.27765386176E+03  0.29942527659E+03  0.00000000000E+00 0. -1.
         -1    1    6    6    0  503  0.57629985486E+02 -0.12462573393E+02  0.35640641112E+02  0.68896924907E+02  0.00000000000E+00 0.  1.
<mgrwt>
<rscale>  0 0.89060973E+03</rscale>
<asrwt>0</asrwt>
<pdfrwt beam="1">  1        2 0.97951067E-01 0.89060973E+03</pdfrwt>
<pdfrwt beam="2">  1       -2 0.22175193E+00 0.89060973E+03</pdfrwt>
<totfact> 0.44752753E+00</totfact>
</mgrwt>
</event>
<event>
12    1  0.9321077E-008  0.1031529E+04  0.7818608E-02  0.9274624E-01
          1   -1    0    0  501    0  0.00000000000E+00  0.00000000000E+00  0.17356276170E+04  0.17356276170E+04  0.00000000000E+00 0. -1.
         -1   -1    0    0    0  501 -0.00000000000E+00 -0.00000000000E+00 -0.62794226211E+03  0.62794226211E+03  0.00000000000E+00 0.  1.
         23    2    1    2    0    0  0.59127664837E+03  0.74994510532E+03  0.50600067278E+03  0.10852797475E+04  0.98841861145E+02 0.  0.
    5000000    2    1    2    0    0 -0.59127664837E+03 -0.74994510532E+03  0.60168468215E+03  0.12782901317E+04  0.59997955639E+03 0.  0.
         23    2    4    4    0    0  0.87602415212E+02 -0.23236066187E+03  0.19351254452E+03  0.32781055328E+03  0.91361882736E+02 0.  0.
         23    2    4    4    0    0 -0.67887906359E+03 -0.51758444345E+03  0.40817213763E+03  0.95047957839E+03  0.89646505397E+02 0.  0.
          1    1    3    3  502    0  0.53818558901E+03  0.62876910580E+03  0.44307164479E+03  0.93877941980E+03  0.00000000000E+00 0. -1.
         -1    1    3    3    0  502  0.53091059364E+02  0.12117599952E+03  0.62929027990E+02  0.14650032767E+03  0.00000000000E+00 0.  1.
         15    1    5    5    0    0  0.63628881809E+02 -0.14771958333E+03  0.17538050134E+03  0.23797308226E+03  0.17770000000E+01 0. -1.
        -15    1    5    5    0    0  0.23973533403E+02 -0.84641078543E+02  0.18132043180E+02  0.89837471022E+02  0.17770000000E+01 0.  1.
          1    1    6    6  503    0 -0.63500267393E+03 -0.47371695011E+03  0.40124287955E+03  0.88804954428E+03  0.00000000000E+00 0. -1.
         -1    1    6    6    0  503 -0.43876389656E+02 -0.43867493340E+02  0.69292580844E+01  0.62430034109E+02  0.00000000000E+00 0.  1.
<mgrwt>
<rscale>  0 0.10315292E+04</rscale>
<asrwt>0</asrwt>
<pdfrwt beam="1">  1        1 0.26701963E+00 0.10315292E+04</pdfrwt>
<pdfrwt beam="2">  1       -1 0.96606503E-01 0.10315292E+04</pdfrwt>
<totfact> 0.46650595E+00</totfact>
</mgrwt>
</event>
<event>
12    1  0.9321077E-008  0.4592775E+03  0.7818608E-02  0.1024991E+00
         -2   -1    0    0    0  501 -0.00000000000E+00  0.00000000000E+00  0.14174072063E+03  0.14174072063E+03  0.00000000000E+00 0. -1.
          2   -1    0    0  501    0  0.00000000000E+00 -0.00000000000E+00 -0.22048608910E+04  0.22048608910E+04  0.00000000000E+00 0.  1.
         23    2    1    2    0    0 -0.32642863845E+03  0.11635437116E+03 -0.11216900481E+04  0.11775853472E+04  0.91786111732E+02 0.  0.
    5000000    2    1    2    0    0  0.32642863845E+03 -0.11635437116E+03 -0.94143012230E+03  0.11690162644E+04  0.60017860312E+03 0.  0.
         23    2    4    4    0    0  0.33236272189E+03 -0.25168482250E+03 -0.33735168523E+03  0.54346154390E+03  0.87943512539E+02 0.  0.
         23    2    4    4    0    0 -0.59340834345E+01  0.13533045134E+03 -0.60407843707E+03  0.62555472053E+03  0.89768623894E+02 0.  0.
          2    1    3    3  502    0 -0.15160833928E+03  0.95304843066E+02 -0.48534437754E+03  0.51732704014E+03  0.00000000000E+00 0. -1.
         -2    1    3    3    0  502 -0.17482029917E+03  0.21049528089E+02 -0.63634567055E+03  0.66025830708E+03  0.00000000000E+00 0.  1.
         15    1    5    5    0    0  0.96018401641E+02 -0.49347813836E+02 -0.46515908565E+02  0.11756541865E+03  0.17770000000E+01 0. -1.
        -15    1    5    5    0    0  0.23634432025E+03 -0.20233700866E+03 -0.29083577666E+03  0.42589612525E+03  0.17770000000E+01 0.  1.
          2    1    6    6  503    0 -0.18368800353E+02  0.16125740806E+02 -0.28119696808E+02  0.37258149331E+02  0.00000000000E+00 0. -1.
         -2    1    6    6    0  503  0.12434716919E+02  0.11920471054E+03 -0.57595874026E+03  0.58829657120E+03  0.00000000000E+00 0.  1.
<mgrwt>
<rscale>  0 0.45927754E+03</rscale>
<asrwt>0</asrwt>
<pdfrwt beam="1">  1        2 0.33920936E+00 0.45927754E+03</pdfrwt>
<pdfrwt beam="2">  1       -2 0.21806265E-01 0.45927754E+03</pdfrwt>
<totfact> 0.10094246E+02</totfact>
</mgrwt>
</event>
<event>
12    1  0.9321077E-008  0.1509149E+04  0.7818608E-02  0.8878392E-01
          2   -1    0    0  501    0  0.00000000000E+00  0.00000000000E+00  0.19992574638E+04  0.19992574638E+04  0.00000000000E+00 0. -1.
         -2   -1    0    0    0  501 -0.00000000000E+00 -0.00000000000E+00 -0.11754376019E+04  0.11754376019E+04  0.00000000000E+00 0.  1.
         23    2    1    2    0    0 -0.14674465818E+04  0.99214892098E+02  0.47658129569E+03  0.15487308639E+04  0.90523434400E+02 0.  0.
    5000000    2    1    2    0    0  0.14674465818E+04 -0.99214892098E+02  0.34723856625E+03  0.16259642019E+04  0.59995158033E+03 0.  0.
         23    2    4    4    0    0  0.42897781126E+02  0.50213058441E+02 -0.68118313219E+02  0.13176065866E+03  0.91428637258E+02 0.  0.
         23    2    4    4    0    0  0.14245488006E+04 -0.14942795054E+03  0.41535687947E+03  0.14942035432E+04  0.91950494448E+02 0.  0.
          4    1    3    3  502    0 -0.58288677317E+03  0.42135342720E+02  0.14307533518E+03  0.60166679232E+03  0.00000000000E+00 0.  1.
         -4    1    3    3    0  502 -0.88455980859E+03  0.57079549379E+02  0.33350596052E+03  0.94706407156E+03  0.00000000000E+00 0. -1.
         15    1    5    5    0    0 -0.36649683398E+01  0.63700244933E+02 -0.32863815692E+02  0.71793741428E+02  0.17770000000E+01 0. -1.
        -15    1    5    5    0    0  0.46562749465E+02 -0.13487186492E+02 -0.35254497527E+02  0.59966917230E+02  0.17770000000E+01 0.  1.
          2    1    6    6  503    0  0.10099309052E+04 -0.14665330379E+03  0.30552573895E+03  0.10652763031E+04  0.00000000000E+00 0. -1.
         -2    1    6    6    0  503  0.41461789546E+03 -0.27746467521E+01  0.10983114052E+03  0.42892724013E+03  0.00000000000E+00 0.  1.
<mgrwt>
<rscale>  0 0.15091486E+04</rscale>
<asrwt>0</asrwt>
<pdfrwt beam="1">  1        2 0.30757807E+00 0.15091486E+04</pdfrwt>
<pdfrwt beam="2">  1       -2 0.18083655E+00 0.15091486E+04</pdfrwt>
<totfact> 0.11249957E+00</totfact>
</mgrwt>
</event>
<event>
12    1  0.9321077E-008  0.6679181E+03  0.7818608E-02  0.9773726E-01
         -2   -1    0    0    0  501 -0.00000000000E+00  0.00000000000E+00  0.57702636013E+03  0.57702636013E+03  0.00000000000E+00 0. -1.
          2   -1    0    0  501    0  0.00000000000E+00 -0.00000000000E+00 -0.12345214757E+04  0.12345214757E+04  0.00000000000E+00 0.  1.
         23    2    1    2    0    0  0.15373140525E+03 -0.56729116215E+03 -0.75908886586E+03  0.96549274533E+03  0.10250720662E+03 0.  0.
    5000000    2    1    2    0    0 -0.15373140525E+03  0.56729116215E+03  0.10159375024E+03  0.84605509054E+03  0.60002943139E+03 0.  0.
         23    2    4    4    0    0 -0.21420742643E+03  0.69208561558E+02 -0.13980781077E+03  0.28156770800E+03  0.95181425225E+02 0.  0.
         23    2    4    4    0    0  0.60476021174E+02  0.49808260059E+03  0.24140156101E+03  0.56448738254E+03  0.92885226174E+02 0.  0.
          3    1    3    3  502    0  0.13101611594E+03 -0.52043758560E+03 -0.63814406096E+03  0.83381553457E+03  0.00000000000E+00 0. -1.
         -3    1    3    3    0  502  0.22715289316E+02 -0.46853576545E+02 -0.12094480490E+03  0.13167721077E+03  0.00000000000E+00 0.  1.
         15    1    5    5    0    0 -0.84527815063E+02 -0.18120480807E+02 -0.65388718851E+02  0.10840731353E+03  0.17770000000E+01 0. -1.
        -15    1    5    5    0    0 -0.12967961136E+03  0.87329042365E+02 -0.74419091918E+02  0.17316039447E+03  0.17770000000E+01 0.  1.
          4    1    6    6  503    0  0.57992955593E+02  0.26921742385E+03  0.88618193459E+02  0.28929982443E+03  0.00000000000E+00 0. -1.
         -4    1    6    6    0  503  0.24830655810E+01  0.22886517674E+03  0.15278336755E+03  0.27518755811E+03  0.00000000000E+00 0.  1.
<mgrwt>
<rscale>  0 0.66791810E+03</rscale>
<asrwt>0</asrwt>
<pdfrwt beam="1">  1        2 0.18992638E+00 0.66791810E+03</pdfrwt>
<pdfrwt beam="2">  1       -2 0.88773287E-01 0.66791810E+03</pdfrwt>
<totfact> 0.20290036E+01</totfact>
</mgrwt>
</event>
<event>
12    1  0.9321077E-008  0.1412369E+04  0.7818608E-02  0.8944914E-01
         -2   -1    0    0    0  501 -0.00000000000E+00  0.00000000000E+00  0.21212974867E+04  0.21212974867E+04  0.00000000000E+00 0. -1.
          2   -1    0    0  501    0  0.00000000000E+00 -0.00000000000E+00 -0.12878839304E+04  0.12878839304E+04  0.00000000000E+00 0.  1.
         23    2    1    2    0    0 -0.67838564264E+03  0.11676538950E+04  0.12824998934E+04  0.18647369722E+04  0.93889829536E+02 0.  0.
    5000000    2    1    2    0    0  0.67838564264E+03 -0.11676538950E+04 -0.44908633708E+03  0.15444444449E+04  0.60000617202E+03 0.  0.
         23    2    4    4    0    0  0.96779975164E+02 -0.72697456947E+03 -0.17999403135E+03  0.76054694843E+03  0.90418035812E+02 0.  0.
         23    2    4    4    0    0  0.58160566747E+03 -0.44067932558E+03 -0.26909230572E+03  0.78389749647E+03  0.98087693087E+02 0.  0.
          1    1    3    3  502    0 -0.27494573338E+03  0.56515522236E+03  0.60621659399E+03  0.87320910467E+03  0.00000000000E+00 0. -1.
         -1    1    3    3    0  502 -0.40343990926E+03  0.60249867269E+03  0.67628329937E+03  0.99152786748E+03  0.00000000000E+00 0.  1.
         15    1    5    5    0    0  0.10548524197E+03 -0.48457513034E+03 -0.13332886570E+03  0.51353669526E+03  0.17770000000E+01 0. -1.
        -15    1    5    5    0    0 -0.87052668017E+01 -0.24239943913E+03 -0.46665165657E+02  0.24701025317E+03  0.17770000000E+01 0.  1.
          1    1    6    6  503    0  0.45012510751E+03 -0.37408106610E+03 -0.24530321264E+03  0.63460454029E+03  0.00000000000E+00 0. -1.
         -1    1    6    6    0  503  0.13148055996E+03 -0.66598259488E+02 -0.23789093078E+02  0.14929295618E+03  0.00000000000E+00 0.  1.
<mgrwt>
<rscale>  0 0.14123686E+04</rscale>
<asrwt>0</asrwt>
<pdfrwt beam="1">  1        2 0.19813599E+00 0.14123686E+04</pdfrwt>
<pdfrwt beam="2">  1       -2 0.32635346E+00 0.14123686E+04</pdfrwt>
<totfact> 0.35029458E-01</totfact>
</mgrwt>
</event>
<event>
12    1  0.9321077E-008  0.6046361E+03  0.7818608E-02  0.9895834E-01
         -1   -1    0    0    0  501 -0.00000000000E+00  0.00000000000E+00  0.67811052973E+03  0.67811052973E+03  0.00000000000E+00 0.  1.
          1   -1    0    0  501    0  0.00000000000E+00 -0.00000000000E+00 -0.73856643943E+03  0.73856643943E+03  0.00000000000E+00 0. -1.
         23    2    1    2    0    0  0.55910159031E+03 -0.83054773387E+02  0.89850273412E+02  0.57943456939E+03  0.90435971250E+02 0.  0.
    5000000    2    1    2    0    0 -0.55910159031E+03  0.83054773387E+02 -0.15030618312E+03  0.83724239977E+03  0.59907445582E+03 0.  0.
         23    2    4    4    0    0 -0.11036579319E+03  0.13389614054E+03 -0.29505979154E+03  0.35415003203E+03  0.90847013410E+02 0.  0.
         23    2    4    4    0    0 -0.44873579713E+03 -0.50841367155E+02  0.14475360843E+03  0.48309236774E+03  0.92065022541E+02 0.  0.
          4    1    3    3  502    0  0.19486762355E+03 -0.71487007002E+02  0.43570737133E+02  0.21209005637E+03  0.00000000000E+00 0.  1.
         -4    1    3    3    0  502  0.36423396677E+03 -0.11567766385E+02  0.46279536279E+02  0.36734451302E+03  0.00000000000E+00 0. -1.
         15    1    5    5    0    0 -0.72028134215E+02  0.12695484747E+03 -0.17486634114E+03  0.22778713837E+03  0.17770000000E+01 0.  1.
        -15    1    5    5    0    0 -0.38337658973E+02  0.69412930673E+01 -0.12019345041E+03  0.12636289366E+03  0.17770000000E+01 0. -1.
          2    1    6    6  503    0 -0.23705269059E+03 -0.39535224074E+02  0.30432106858E+02  0.24224600139E+03  0.00000000000E+00 0. -1.
         -2    1    6    6    0  503 -0.21168310653E+03 -0.11306143081E+02  0.11432150157E+03  0.24084636635E+03  0.00000000000E+00 0.  1.
<mgrwt>
<rscale>  0 0.60463614E+03</rscale>
<asrwt>0</asrwt>
<pdfrwt beam="1">  1        1 0.11362561E+00 0.60463614E+03</pdfrwt>
<pdfrwt beam="2">  1       -1 0.10432470E+00 0.60463614E+03</pdfrwt>
<totfact> 0.22662396E+01</totfact>
</mgrwt>
</event>
<event>
12    1  0.9321077E-008  0.1231319E+04  0.7818608E-02  0.9085876E-01
         -2   -1    0    0    0  501 -0.00000000000E+00  0.00000000000E+00  0.78408890530E+03  0.78408890530E+03  0.00000000000E+00 0.  1.
          2   -1    0    0  501    0  0.00000000000E+00 -0.00000000000E+00 -0.19571773155E+04  0.19571773155E+04  0.00000000000E+00 0. -1.
         23    2    1    2    0    0  0.10107139393E+04  0.57692989611E+03 -0.51921692153E+03  0.12777014660E+04  0.92434044359E+02 0.  0.
    5000000    2    1    2    0    0 -0.10107139393E+04 -0.57692989611E+03 -0.65387148871E+03  0.14635647548E+04  0.60006924252E+03 0.  0.
         23    2    4    4    0    0 -0.12683084415E+03 -0.36596272201E+03 -0.18012667801E+03  0.43490114811E+03  0.81722772653E+02 0.  0.
         23    2    4    4    0    0 -0.88388309511E+03 -0.21096717410E+03 -0.47374481070E+03  0.10286636067E+04  0.89208720222E+02 0.  0.
          1    1    3    3  502    0  0.33320790642E+03  0.16723003758E+03 -0.12482294153E+03  0.39315920579E+03  0.00000000000E+00 0. -1.
         -1    1    3    3    0  502  0.67750603284E+03  0.40969985854E+03 -0.39439397999E+03  0.88454226020E+03  0.00000000000E+00 0.  1.
         15    1    5    5    0    0 -0.11482109296E+03 -0.30918951845E+03 -0.18220448209E+03  0.37680720897E+03  0.17770000000E+01 0.  1.
        -15    1    5    5    0    0 -0.12009751192E+02 -0.56773203564E+02  0.20778040861E+01  0.58093939146E+02  0.17770000000E+01 0. -1.
          2    1    6    6  503    0 -0.36812879067E+03 -0.11418340142E+03 -0.16041425982E+03  0.41747980841E+03  0.00000000000E+00 0. -1.
         -2    1    6    6    0  503 -0.51575430444E+03 -0.96783772685E+02 -0.31333055088E+03  0.61118379831E+03  0.00000000000E+00 0.  1.
<mgrwt>
<rscale>  0 0.12313192E+04</rscale>
<asrwt>0</asrwt>
<pdfrwt beam="1">  1        2 0.30110420E+00 0.12313192E+04</pdfrwt>
<pdfrwt beam="2">  1       -2 0.12062906E+00 0.12313192E+04</pdfrwt>
<totfact> 0.35989161E+00</totfact>
</mgrwt>
</event>
<event>
12    1  0.9321077E-008  0.7489138E+03  0.7818608E-02  0.9637056E-01
         -2   -1    0    0    0  501 -0.00000000000E+00  0.00000000000E+00  0.41168482303E+03  0.41168482303E+03  0.00000000000E+00 0.  1.
          2   -1    0    0  501    0  0.00000000000E+00 -0.00000000000E+00 -0.18764826833E+04  0.18764826833E+04  0.00000000000E+00 0. -1.
         23    2    1    2    0    0 -0.63004526146E+03  0.36288277034E+02 -0.66837906741E+02  0.64119446189E+03  0.91592366741E+02 0.  0.
    5000000    2    1    2    0    0  0.63004526146E+03 -0.36288277034E+02 -0.13979599535E+04  0.16469730444E+04  0.59996192122E+03 0.  0.
         23    2    4    4    0    0 -0.79454690010E+02  0.83164312076E+02 -0.22381859506E+03  0.26706484426E+03  0.89440018879E+02 0.  0.
         23    2    4    4    0    0  0.70949995147E+03 -0.11945258911E+03 -0.11741413585E+04  0.13799082002E+04  0.88767162194E+02 0.  0.
          1    1    3    3  502    0 -0.36736767048E+03 -0.20592587975E+02 -0.20956003644E+02  0.36854065458E+03  0.00000000000E+00 0. -1.
         -1    1    3    3    0  502 -0.26267759098E+03  0.56880865009E+02 -0.45881903096E+02  0.27265380731E+03  0.00000000000E+00 0.  1.
         15    1    5    5    0    0 -0.64335237563E+02  0.80989931528E+01 -0.13504234914E+03  0.14981391882E+03  0.17770000000E+01 0.  1.
        -15    1    5    5    0    0 -0.15119452447E+02  0.75065318923E+02 -0.88776245914E+02  0.11725092543E+03  0.17770000000E+01 0. -1.
          2    1    6    6  503    0  0.29130656855E+03 -0.56888431389E+02 -0.56762935460E+03  0.64054577878E+03  0.00000000000E+00 0. -1.
         -2    1    6    6    0  503  0.41819338292E+03 -0.62564157721E+02 -0.60651200386E+03  0.73936242140E+03  0.00000000000E+00 0.  1.
<mgrwt>
<rscale>  0 0.74891382E+03</rscale>
<asrwt>0</asrwt>
<pdfrwt beam="1">  1        2 0.28868964E+00 0.74891382E+03</pdfrwt>
<pdfrwt beam="2">  1       -2 0.63336127E-01 0.74891382E+03</pdfrwt>
<totfact> 0.18633659E+01</totfact>
</mgrwt>
</event>
<event>
12    1  0.9321077E-008  0.8367251E+03  0.7818608E-02  0.9508329E-01
          2   -1    0    0  501    0  0.00000000000E+00  0.00000000000E+00  0.22160917479E+04  0.22160917479E+04  0.00000000000E+00 0. -1.
         -2   -1    0    0    0  501 -0.00000000000E+00 -0.00000000000E+00 -0.44127223802E+03  0.44127223802E+03  0.00000000000E+00 0.  1.
         23    2    1    2    0    0  0.82325512302E+03  0.98157655659E+02  0.35326779993E+03  0.90577963918E+03  0.90855342895E+02 0.  0.
    5000000    2    1    2    0    0 -0.82325512302E+03 -0.98157655659E+02  0.14215517099E+04  0.17515843467E+04  0.59987876837E+03 0.  0.
         23    2    4    4    0    0 -0.25529507744E+03  0.16749452097E+01  0.67028718918E+02  0.27662449093E+03  0.82763988648E+02 0.  0.
         23    2    4    4    0    0 -0.56796004558E+03 -0.99832600869E+02  0.13545229910E+04  0.14749598558E+04  0.90713182346E+02 0.  0.
          1    1    3    3  502    0  0.58479283086E+03  0.63054338941E+02  0.29400270453E+03  0.65756831961E+03  0.00000000000E+00 0. -1.
         -1    1    3    3    0  502  0.23846229217E+03  0.35103316718E+02  0.59265095402E+02  0.24821131957E+03  0.00000000000E+00 0.  1.
         15    1    5    5    0    0 -0.18171286797E+03  0.34732433217E+02  0.64387337449E+02  0.19589485765E+03  0.17770000000E+01 0. -1.
        -15    1    5    5    0    0 -0.73582209471E+02 -0.33057488008E+02  0.26413814695E+01  0.80729633277E+02  0.17770000000E+01 0.  1.
          4    1    6    6  503    0 -0.23860079623E+02 -0.14129567142E+02  0.11951393107E+03  0.12268874353E+03  0.00000000000E+00 0.  1.
         -4    1    6    6    0  503 -0.54409996596E+03 -0.85703033726E+02  0.12350090599E+04  0.13522711123E+04  0.00000000000E+00 0. -1.
<mgrwt>
<rscale>  0 0.83672508E+03</rscale>
<asrwt>0</asrwt>
<pdfrwt beam="1">  1        2 0.34093719E+00 0.83672508E+03</pdfrwt>
<pdfrwt beam="2">  1       -2 0.67888038E-01 0.83672508E+03</pdfrwt>
<totfact> 0.10325660E+01</totfact>
</mgrwt>
</event>
<event>
12    1  0.9321077E-008  0.9500478E+03  0.7818608E-02  0.9365095E-01
          2   -1    0    0  501    0  0.00000000000E+00  0.00000000000E+00  0.68656997612E+03  0.68656997612E+03  0.00000000000E+00 0. -1.
         -2   -1    0    0    0  501 -0.00000000000E+00 -0.00000000000E+00 -0.14464023509E+04  0.14464023509E+04  0.00000000000E+00 0.  1.
         23    2    1    2    0    0  0.26661739225E+02  0.89986611674E+03 -0.43218915139E+03  0.10025819643E+04  0.88956484457E+02 0.  0.
    5000000    2    1    2    0    0 -0.26661739225E+02 -0.89986611674E+03 -0.32764322343E+03  0.11303903628E+04  0.59996867750E+03 0.  0.
         23    2    4    4    0    0  0.15747017463E+03 -0.71451051459E+03 -0.51422862501E+02  0.73913460567E+03  0.91397610161E+02 0.  0.
         23    2    4    4    0    0 -0.18413191386E+03 -0.18535560215E+03 -0.27622036093E+03  0.39125575710E+03  0.92315322251E+02 0.  0.
          3    1    3    3  502    0 -0.11616658095E+01  0.30908180140E+03 -0.19436789280E+03  0.36511886718E+03  0.00000000000E+00 0. -1.
         -3    1    3    3    0  502  0.27823405034E+02  0.59078431535E+03 -0.23782125859E+03  0.63746309710E+03  0.00000000000E+00 0.  1.
         15    1    5    5    0    0  0.84804333010E+02 -0.41950897338E+03 -0.74503122424E+02  0.43443460570E+03  0.17770000000E+01 0. -1.
        -15    1    5    5    0    0  0.72665841624E+02 -0.29500154121E+03  0.23080259923E+02  0.30469999997E+03  0.17770000000E+01 0.  1.
          3    1    6    6  503    0 -0.18621329837E+03 -0.16964769011E+03 -0.22540863987E+03  0.33803074738E+03  0.00000000000E+00 0. -1.
         -3    1    6    6    0  503  0.20813845136E+01 -0.15707912045E+02 -0.50811721059E+02  0.53225009716E+02  0.00000000000E+00 0.  1.
<mgrwt>
<rscale>  0 0.95004782E+03</rscale>
<asrwt>0</asrwt>
<pdfrwt beam="1">  1        2 0.10562615E+00 0.95004782E+03</pdfrwt>
<pdfrwt beam="2">  1       -2 0.22252344E+00 0.95004782E+03</pdfrwt>
<totfact> 0.40021431E+00</totfact>
</mgrwt>
</event>
<event>
12    1  0.9321077E-008  0.9252645E+03  0.7818608E-02  0.9394539E-01
          1   -1    0    0  501    0  0.00000000000E+00  0.00000000000E+00  0.13256521889E+04  0.13256521889E+04  0.00000000000E+00 0. -1.
         -1   -1    0    0    0  501 -0.00000000000E+00 -0.00000000000E+00 -0.76642303915E+03  0.76642303915E+03  0.00000000000E+00 0.  1.
         23    2    1    2    0    0 -0.81968344377E+03  0.26299679835E+03 -0.70932771573E+02  0.86770552242E+03  0.82662879260E+02 0.  0.
    5000000    2    1    2    0    0  0.81968344377E+03 -0.26299679835E+03  0.63016192135E+03  0.12243697057E+04  0.60077355558E+03 0.  0.
         23    2    4    4    0    0  0.87059627843E+03 -0.26981885855E+03  0.46077109164E+03  0.10252438241E+04  0.89859910076E+02 0.  0.
         23    2    4    4    0    0 -0.50912834661E+02  0.68220601914E+01  0.16939082971E+03  0.19912588160E+03  0.91209683111E+02 0.  0.
          3    1    3    3  502    0 -0.12836912500E+03  0.25421110443E+02 -0.36681284537E+02  0.13590578261E+03  0.00000000000E+00 0. -1.
         -3    1    3    3    0  502 -0.69131431877E+03  0.23757568791E+03 -0.34251487036E+02  0.73179973981E+03  0.00000000000E+00 0.  1.
         15    1    5    5    0    0  0.51334553542E+03 -0.11444912312E+03  0.25089693130E+03  0.58273035650E+03  0.17770000000E+01 0. -1.
        -15    1    5    5    0    0  0.35725074301E+03 -0.15536973542E+03  0.20987416034E+03  0.44251346756E+03  0.17770000000E+01 0.  1.
          2    1    6    6  503    0 -0.14283247027E+02 -0.22205540877E+02  0.33279492449E+01  0.26611509492E+02  0.00000000000E+00 0. -1.
         -2    1    6    6    0  503 -0.36629587634E+02  0.29027601068E+02  0.16606288047E+03  0.17251437211E+03  0.00000000000E+00 0.  1.
<mgrwt>
<rscale>  0 0.92526451E+03</rscale>
<asrwt>0</asrwt>
<pdfrwt beam="1">  1        1 0.20394649E+00 0.92526451E+03</pdfrwt>
<pdfrwt beam="2">  1       -1 0.11791124E+00 0.92526451E+03</pdfrwt>
<totfact> 0.56786676E+00</totfact>
</mgrwt>
</event>
<event>
12    1  0.9321077E-008  0.1150233E+04  0.7818608E-02  0.9157569E-01
          2   -1    0    0  501    0  0.00000000000E+00  0.00000000000E+00  0.82056270204E+03  0.82056270204E+03  0.00000000000E+00 0. -1.
         -2   -1    0    0    0  501 -0.00000000000E+00 -0.00000000000E+00 -0.16679519869E+04  0.16679519869E+04  0.00000000000E+00 0.  1.
         23    2    1    2    0    0  0.33958585755E+02 -0.10866150759E+04 -0.30025987658E+03  0.11315937792E+04  0.91994450557E+02 0.  0.
    5000000    2    1    2    0    0 -0.33958585755E+02  0.10866150759E+04 -0.54712940826E+03  0.13569209097E+04  0.59999854762E+03 0.  0.
         23    2    4    4    0    0  0.23158602145E+03  0.36210203121E+03 -0.69976486399E+02  0.44488292428E+03  0.90962307230E+02 0.  0.
         23    2    4    4    0    0 -0.26554460720E+03  0.72451304469E+03 -0.47715292186E+03  0.91203798544E+03  0.93302120557E+02 0.  0.
          4    1    3    3  502    0 -0.54565042519E+01 -0.87455619765E+03 -0.25763698055E+03  0.91173193979E+03  0.00000000000E+00 0. -1.
         -4    1    3    3    0  502  0.39415090007E+02 -0.21205887824E+03 -0.42622896023E+02  0.21986183941E+03  0.00000000000E+00 0.  1.
         15    1    5    5    0    0  0.12161257602E+03  0.26538095189E+03 -0.32716799816E+02  0.29375196168E+03  0.17770000000E+01 0. -1.
        -15    1    5    5    0    0  0.10997344543E+03  0.96721079312E+02 -0.37259686583E+02  0.15113096260E+03  0.17770000000E+01 0.  1.
          3    1    6    6  503    0 -0.26115038241E+03  0.71735709574E+03 -0.45589112591E+03  0.88917795954E+03  0.00000000000E+00 0. -1.
         -3    1    6    6    0  503 -0.43942247880E+01  0.71559489465E+01 -0.21261795959E+02  0.22860025902E+02  0.00000000000E+00 0.  1.
<mgrwt>
<rscale>  0 0.11502328E+04</rscale>
<asrwt>0</asrwt>
<pdfrwt beam="1">  1        2 0.12624042E+00 0.11502328E+04</pdfrwt>
<pdfrwt beam="2">  1       -2 0.25660800E+00 0.11502328E+04</pdfrwt>
<totfact> 0.19129990E+00</totfact>
</mgrwt>
</event>
<event>
12    1  0.9321077E-008  0.5671010E+03  0.7818608E-02  0.9976114E-01
          2   -1    0    0  501    0  0.00000000000E+00  0.00000000000E+00  0.21372746805E+04  0.21372746805E+04  0.00000000000E+00 0. -1.
         -2   -1    0    0    0  501 -0.00000000000E+00 -0.00000000000E+00 -0.21156068826E+03  0.21156068826E+03  0.00000000000E+00 0.  1.
         23    2    1    2    0    0  0.29778633800E+03  0.41904360529E+03  0.10267278606E+04  0.11519496199E+04  0.92431492621E+02 0.  0.
    5000000    2    1    2    0    0 -0.29778633800E+03 -0.41904360529E+03  0.89898613166E+03  0.11968857489E+04  0.60007098307E+03 0.  0.
         23    2    4    4    0    0 -0.17908297094E+02 -0.28520459636E+03  0.81040475878E+03  0.86361682122E+03  0.86114876518E+02 0.  0.
         23    2    4    4    0    0 -0.27987804091E+03 -0.13383900893E+03  0.88581372875E+02  0.33326892765E+03  0.83527961931E+02 0.  0.
          1    1    3    3  502    0  0.13245352925E+02  0.70788392657E+02  0.16139438839E+03  0.17673308834E+03  0.00000000000E+00 0. -1.
         -1    1    3    3    0  502  0.28454098508E+03  0.34825521263E+03  0.86533347219E+03  0.97521653155E+03  0.00000000000E+00 0.  1.
         15    1    5    5    0    0  0.33125189691E+02 -0.88936726173E+02  0.23084968451E+03  0.24960319314E+03  0.17770000000E+01 0. -1.
        -15    1    5    5    0    0 -0.51033486785E+02 -0.19626787018E+03  0.57955507427E+03  0.61401362809E+03  0.17770000000E+01 0.  1.
          4    1    6    6  503    0 -0.40593423514E+02 -0.42539284344E-01  0.35712994656E+02  0.54067049387E+02  0.00000000000E+00 0. -1.
         -4    1    6    6    0  503 -0.23928461740E+03 -0.13379646965E+03  0.52868378219E+02  0.27920187827E+03  0.00000000000E+00 0.  1.
<mgrwt>
<rscale>  0 0.56710096E+03</rscale>
<asrwt>0</asrwt>
<pdfrwt beam="1">  1        2 0.32881147E+00 0.56710096E+03</pdfrwt>
<pdfrwt beam="2">  1       -2 0.32547800E-01 0.56710096E+03</pdfrwt>
<totfact> 0.52195703E+01</totfact>
</mgrwt>
</event>
<event>
12    1  0.9321077E-008  0.5738956E+03  0.7818608E-02  0.9961095E-01
         -1   -1    0    0    0  501 -0.00000000000E+00  0.00000000000E+00  0.37636939112E+03  0.37636939112E+03  0.00000000000E+00 0.  1.
          1   -1    0    0  501    0  0.00000000000E+00 -0.00000000000E+00 -0.13021238566E+04  0.13021238566E+04  0.00000000000E+00 0. -1.
         23    2    1    2    0    0 -0.37399316944E+03 -0.25248210834E+03 -0.79138096973E+03  0.91583198492E+03  0.94054662520E+02 0.  0.
    5000000    2    1    2    0    0  0.37399316944E+03  0.25248210834E+03 -0.13437349571E+03  0.76266126275E+03  0.59998154933E+03 0.  0.
         23    2    4    4    0    0  0.68565272120E+02 -0.15005623715E+03 -0.16277576207E+03  0.24865348307E+03  0.90080714245E+02 0.  0.
         23    2    4    4    0    0  0.30542789732E+03  0.40253834550E+03  0.28402266359E+02  0.51400777968E+03  0.89855377026E+02 0.  0.
          4    1    3    3  502    0 -0.22917518172E+03 -0.16244999548E+03 -0.39868122864E+03  0.48770686587E+03  0.00000000000E+00 0. -1.
         -4    1    3    3    0  502 -0.14481798772E+03 -0.90032112868E+02 -0.39269974109E+03  0.42812511905E+03  0.00000000000E+00 0.  1.
         15    1    5    5    0    0 -0.74366183330E+01 -0.82080945679E+02 -0.97012235779E+02  0.12730717401E+03  0.17770000000E+01 0.  1.
        -15    1    5    5    0    0  0.76001890453E+02 -0.67975291474E+02 -0.65763526287E+02  0.12134630906E+03  0.17770000000E+01 0. -1.
          1    1    6    6  503    0  0.28593048469E+03  0.32912367219E+03  0.11196242474E+02  0.43612382361E+03  0.00000000000E+00 0. -1.
         -1    1    6    6    0  503  0.19497412633E+02  0.73414673306E+02  0.17206023885E+02  0.77883956075E+02  0.00000000000E+00 0.  1.
<mgrwt>
<rscale>  0 0.57389555E+03</rscale>
<asrwt>0</asrwt>
<pdfrwt beam="1">  1        1 0.20032674E+00 0.57389555E+03</pdfrwt>
<pdfrwt beam="2">  1       -1 0.57902984E-01 0.57389555E+03</pdfrwt>
<totfact> 0.28744505E+01</totfact>
</mgrwt>
</event>
<event>
12    1  0.9321077E-008  0.1128192E+04  0.7818608E-02  0.9178142E-01
         -1   -1    0    0    0  501 -0.00000000000E+00  0.00000000000E+00  0.61760672161E+03  0.61760672161E+03  0.00000000000E+00 0.  1.
          1   -1    0    0  501    0  0.00000000000E+00 -0.00000000000E+00 -0.22546268170E+04  0.22546268170E+04  0.00000000000E+00 0. -1.
         23    2    1    2    0    0  0.83342797905E+03  0.71735021117E+03 -0.85225706401E+03  0.13940523879E+04  0.88580107460E+02 0.  0.
    5000000    2    1    2    0    0 -0.83342797905E+03 -0.71735021117E+03 -0.78476303136E+03  0.14781811506E+04  0.59997748044E+03 0.  0.
         23    2    4    4    0    0 -0.63218481774E+03 -0.69720811214E+03 -0.38505222164E+03  0.10210908537E+04  0.92760566334E+02 0.  0.
         23    2    4    4    0    0 -0.20124316131E+03 -0.20142099028E+02 -0.39971080971E+03  0.45709029697E+03  0.90875156418E+02 0.  0.
          3    1    3    3  502    0  0.57049990204E+03  0.48256714457E+03 -0.52649045617E+03  0.91407515429E+03  0.00000000000E+00 0. -1.
         -3    1    3    3    0  502  0.26292807701E+03  0.23478306659E+03 -0.32576660784E+03  0.47997723365E+03  0.00000000000E+00 0.  1.
         15    1    5    5    0    0 -0.34553094478E+03 -0.33223375157E+03 -0.16028536206E+03  0.50543590543E+03  0.17770000000E+01 0. -1.
        -15    1    5    5    0    0 -0.28665387296E+03 -0.36497436057E+03 -0.22476685959E+03  0.51565494825E+03  0.17770000000E+01 0.  1.
          3    1    6    6  503    0 -0.16131500602E+03 -0.43355988728E+02 -0.25206233029E+03  0.30238665856E+03  0.00000000000E+00 0. -1.
         -3    1    6    6    0  503 -0.39928155289E+02  0.23213889700E+02 -0.14764847942E+03  0.15470363841E+03  0.00000000000E+00 0.  1.
<mgrwt>
<rscale>  0 0.11281915E+04</rscale>
<asrwt>0</asrwt>
<pdfrwt beam="1">  1        1 0.34686567E+00 0.11281915E+04</pdfrwt>
<pdfrwt beam="2">  1       -1 0.95016418E-01 0.11281915E+04</pdfrwt>
<totfact> 0.21339006E+00</totfact>
</mgrwt>
</event>
<event>
12    1  0.9321077E-008  0.9840374E+03  0.7818608E-02  0.9326228E-01
          1   -1    0    0  501    0  0.00000000000E+00  0.00000000000E+00  0.80785271629E+03  0.80785271629E+03  0.00000000000E+00 0. -1.
         -1   -1    0    0    0  501 -0.00000000000E+00 -0.00000000000E+00 -0.14934966951E+04  0.14934966951E+04  0.00000000000E+00 0.  1.
         23    2    1    2    0    0 -0.64287119823E+03  0.70132312583E+03 -0.68627562942E+03  0.11766517594E+04  0.91638523835E+02 0.  0.
    5000000    2    1    2    0    0  0.64287119823E+03 -0.70132312583E+03  0.63165064967E+00  0.11246976519E+04  0.59983906590E+03 0.  0.
         23    2    4    4    0    0  0.54970573716E+03 -0.71260853039E+03 -0.15742960275E+03  0.91824403723E+03  0.91655425651E+02 0.  0.
         23    2    4    4    0    0  0.93165461074E+02  0.11285404559E+02  0.15806125340E+03  0.20645361472E+03  0.93981762650E+02 0.  0.
          3    1    3    3  502    0 -0.26759514042E+03  0.35919747547E+03 -0.32775862727E+03  0.55502765995E+03  0.00000000000E+00 0. -1.
         -3    1    3    3    0  502 -0.37527605781E+03  0.34212565036E+03 -0.35851700215E+03  0.62162409946E+03  0.00000000000E+00 0.  1.
         15    1    5    5    0    0  0.29591751943E+03 -0.36194466810E+03 -0.12617797349E+03  0.48424700288E+03  0.17770000000E+01 0.  1.
        -15    1    5    5    0    0  0.25378821772E+03 -0.35066386228E+03 -0.31251629256E+02  0.43399703435E+03  0.17770000000E+01 0. -1.
          1    1    6    6  503    0  0.46822432822E+02 -0.25009006007E+02  0.20637219440E+02  0.56953361823E+02  0.00000000000E+00 0. -1.
         -1    1    6    6    0  503  0.46343028253E+02  0.36294410566E+02  0.13742403396E+03  0.14950025289E+03  0.00000000000E+00 0.  1.
<mgrwt>
<rscale>  0 0.98403737E+03</rscale>
<asrwt>0</asrwt>
<pdfrwt beam="1">  1        1 0.12428504E+00 0.98403737E+03</pdfrwt>
<pdfrwt beam="2">  1       -1 0.22976872E+00 0.98403737E+03</pdfrwt>
<totfact> 0.20785353E+00</totfact>
</mgrwt>
</event>
<event>
12    1  0.9321077E-008  0.4079962E+03  0.7818608E-02  0.1041046E+00
         -2   -1    0    0    0  501 -0.00000000000E+00  0.00000000000E+00  0.76068363898E+03  0.76068363898E+03  0.00000000000E+00 0.  1.
          2   -1    0    0  501    0  0.00000000000E+00 -0.00000000000E+00 -0.40754742918E+03  0.40754742918E+03  0.00000000000E+00 0. -1.
         23    2    1    2    0    0  0.23397446479E+01 -0.25939604149E+03 -0.17554928562E+03  0.32750262223E+03  0.95648497835E+02 0.  0.
    5000000    2    1    2    0    0 -0.23397446479E+01  0.25939604149E+03  0.52868549542E+03  0.84072844593E+03  0.60002015465E+03 0.  0.
         23    2    4    4    0    0  0.15423424014E+02  0.39283611314E+03  0.54772249758E+03  0.67993103929E+03  0.88023803858E+02 0.  0.
         23    2    4    4    0    0 -0.17763168662E+02 -0.13344007165E+03 -0.19037002157E+02  0.16079740664E+03  0.85858113468E+02 0.  0.
          3    1    3    3  502    0  0.11739036915E+02 -0.18936912420E+03 -0.17305999438E+03  0.25680387817E+03  0.00000000000E+00 0. -1.
         -3    1    3    3    0  502 -0.93992922671E+01 -0.70026917294E+02 -0.24892912399E+01  0.70698744060E+02  0.00000000000E+00 0.  1.
         15    1    5    5    0    0 -0.15824345994E+02  0.19494364178E+03  0.33345074429E+03  0.38658244915E+03  0.17770000000E+01 0.  1.
        -15    1    5    5    0    0  0.31247770007E+02  0.19789247136E+03  0.21427175329E+03  0.29334859014E+03  0.17770000000E+01 0. -1.
          1    1    6    6  503    0 -0.26643685722E+02 -0.73078985309E+00 -0.26276781410E+01  0.26782918719E+02  0.00000000000E+00 0. -1.
         -1    1    6    6    0  503  0.88805170604E+01 -0.13270928180E+03 -0.16409324016E+02  0.13401448792E+03  0.00000000000E+00 0.  1.
<mgrwt>
<rscale>  0 0.40799623E+03</rscale>
<asrwt>0</asrwt>
<pdfrwt beam="1">  1        2 0.62699605E-01 0.40799623E+03</pdfrwt>
<pdfrwt beam="2">  1       -2 0.11702825E+00 0.40799623E+03</pdfrwt>
<totfact> 0.45808496E+01</totfact>
</mgrwt>
</event>
<event>
12    1  0.9321077E-008  0.6550142E+03  0.7818608E-02  0.9797416E-01
         -1   -1    0    0    0  501 -0.00000000000E+00  0.00000000000E+00  0.80847499766E+03  0.80847499766E+03  0.00000000000E+00 0.  1.
          1   -1    0    0  501    0  0.00000000000E+00 -0.00000000000E+00 -0.68490353614E+03  0.68490353614E+03  0.00000000000E+00 0. -1.
         23    2    1    2    0    0 -0.47857769414E+03 -0.22777403027E+03 -0.26978713499E+03  0.60135397235E+03  0.89016198823E+02 0.  0.
    5000000    2    1    2    0    0  0.47857769414E+03  0.22777403027E+03  0.39335859650E+03  0.89202456146E+03  0.60004934347E+03 0.  0.
         23    2    4    4    0    0  0.59157522083E+03  0.10323898453E+03  0.29685727846E+03  0.67596110787E+03  0.90441394075E+02 0.  0.
         23    2    4    4    0    0 -0.11299752669E+03  0.12453504574E+03  0.96501318049E+02  0.21606345358E+03  0.95359807747E+02 0.  0.
          3    1    3    3  502    0 -0.31037410363E+03 -0.15702735253E+03 -0.22228709786E+03  0.41279683565E+03  0.00000000000E+00 0. -1.
         -3    1    3    3    0  502 -0.16820359051E+03 -0.70746677737E+02 -0.47500037137E+02  0.18855713670E+03  0.00000000000E+00 0.  1.
         15    1    5    5    0    0  0.33739892668E+03  0.83741736841E+02  0.12935408809E+03  0.37092634316E+03  0.17770000000E+01 0. -1.
        -15    1    5    5    0    0  0.25417629415E+03  0.19497247685E+02  0.16750319036E+03  0.30503476471E+03  0.17770000000E+01 0.  1.
          2    1    6    6  503    0 -0.41464310305E+02  0.86973030678E+02  0.86980818329E+01  0.96743236053E+02  0.00000000000E+00 0. -1.
         -2    1    6    6    0  503 -0.71533216380E+02  0.37562015067E+02  0.87803236216E+02  0.11932021753E+03  0.00000000000E+00 0.  1.
<mgrwt>
<rscale>  0 0.65501417E+03</rscale>
<asrwt>0</asrwt>
<pdfrwt beam="1">  1        1 0.10536978E+00 0.65501417E+03</pdfrwt>
<pdfrwt beam="2">  1       -1 0.12438077E+00 0.65501417E+03</pdfrwt>
<totfact> 0.16596968E+01</totfact>
</mgrwt>
</event>
<event>
12    1  0.9321077E-008  0.9961556E+03  0.7818608E-02  0.9312771E-01
          1   -1    0    0  501    0  0.00000000000E+00  0.00000000000E+00  0.90405013297E+03  0.90405013297E+03  0.00000000000E+00 0. -1.
         -1   -1    0    0    0  501 -0.00000000000E+00 -0.00000000000E+00 -0.14257529838E+04  0.14257529838E+04  0.00000000000E+00 0.  1.
         23    2    1    2    0    0 -0.98417137334E+03 -0.32400882723E+02  0.14132318143E+03  0.99956798847E+03  0.97574651760E+02 0.  0.
    5000000    2    1    2    0    0  0.98417137334E+03  0.32400882723E+02 -0.66302603225E+03  0.13302351283E+04  0.60023234482E+03 0.  0.
         23    2    4    4    0    0  0.72646189464E+03 -0.33152161603E+02 -0.15469048343E+03  0.74947165483E+03  0.94512779846E+02 0.  0.
         23    2    4    4    0    0  0.25770947870E+03  0.65553044326E+02 -0.50833554881E+03  0.58076347345E+03  0.90386972881E+02 0.  0.
          1    1    3    3  502    0 -0.19610324968E+03 -0.14065911685E+02 -0.10134937512E+02  0.19686810652E+03  0.00000000000E+00 0. -1.
         -1    1    3    3    0  502 -0.78806812366E+03 -0.18334971038E+02  0.15145811895E+03  0.80269988195E+03  0.00000000000E+00 0.  1.
         15    1    5    5    0    0  0.22386452278E+03 -0.17769028850E+02 -0.92208491419E+02  0.24276866883E+03  0.17770000000E+01 0. -1.
        -15    1    5    5    0    0  0.50259737186E+03 -0.15383132752E+02 -0.62481992016E+02  0.50670298601E+03  0.17770000000E+01 0.  1.
          4    1    6    6  503    0  0.21282855300E+03  0.87424319480E+02 -0.39942907875E+03  0.46095834254E+03  0.00000000000E+00 0. -1.
         -4    1    6    6    0  503  0.44880925705E+02 -0.21871275155E+02 -0.10890647006E+03  0.11980513090E+03  0.00000000000E+00 0.  1.
<mgrwt>
<rscale>  0 0.99615559E+03</rscale>
<asrwt>0</asrwt>
<pdfrwt beam="1">  1        1 0.13908464E+00 0.99615559E+03</pdfrwt>
<pdfrwt beam="2">  1       -1 0.21934661E+00 0.99615559E+03</pdfrwt>
<totfact> 0.20192095E+00</totfact>
</mgrwt>
</event>
<event>
12    1  0.9321077E-008  0.1914037E+04  0.7818608E-02  0.8647901E-01
          2   -1    0    0  501    0  0.00000000000E+00  0.00000000000E+00  0.23616088009E+04  0.23616088009E+04  0.00000000000E+00 0. -1.
         -2   -1    0    0    0  501 -0.00000000000E+00 -0.00000000000E+00 -0.17234128377E+04  0.17234128377E+04  0.00000000000E+00 0.  1.
         23    2    1    2    0    0 -0.15553357023E+04 -0.10395673065E+04 -0.31826119400E+03  0.18999439437E+04  0.93420929695E+02 0.  0.
    5000000    2    1    2    0    0  0.15553357023E+04  0.10395673065E+04  0.95645715719E+03  0.21850776949E+04  0.59998742279E+03 0.  0.
         23    2    4    4    0    0  0.13747402722E+04  0.10811030780E+04  0.90788589846E+03  0.19727376725E+04  0.93501009846E+02 0.  0.
         23    2    4    4    0    0  0.18059543007E+03 -0.41535771417E+02  0.48571258732E+02  0.21234002233E+03  0.91592511931E+02 0.  0.
          1    1    3    3  502    0 -0.13550967104E+03 -0.11138673115E+03 -0.51355769805E+02  0.18277661205E+03  0.00000000000E+00 0. -1.
         -1    1    3    3    0  502 -0.14198260312E+04 -0.92818057538E+03 -0.26690542420E+03  0.17171673317E+04  0.00000000000E+00 0.  1.
         15    1    5    5    0    0  0.19513532045E+03  0.18348937135E+03  0.16636198626E+03  0.31531826920E+03  0.17770000000E+01 0. -1.
        -15    1    5    5    0    0  0.11796049517E+04  0.89761370660E+03  0.74152391220E+03  0.16574194033E+04  0.17770000000E+01 0.  1.
          1    1    6    6  503    0  0.72146916992E+02 -0.62857267763E+02  0.29889515732E+02  0.10024767774E+03  0.00000000000E+00 0. -1.
         -1    1    6    6    0  503  0.10844851308E+03  0.21321496346E+02  0.18681743000E+02  0.11209234459E+03  0.00000000000E+00 0.  1.
<mgrwt>
<rscale>  0 0.19140367E+04</rscale>
<asrwt>0</asrwt>
<pdfrwt beam="1">  1        2 0.36332443E+00 0.19140367E+04</pdfrwt>
<pdfrwt beam="2">  1       -2 0.26514043E+00 0.19140367E+04</pdfrwt>
<totfact> 0.19463557E-01</totfact>
</mgrwt>
</event>
<event>
12    1  0.9321077E-008  0.6410827E+03  0.7818608E-02  0.9823657E-01
          2   -1    0    0  501    0  0.00000000000E+00  0.00000000000E+00  0.53873779796E+03  0.53873779796E+03  0.00000000000E+00 0. -1.
         -2   -1    0    0    0  501 -0.00000000000E+00 -0.00000000000E+00 -0.90593628444E+03  0.90593628444E+03  0.00000000000E+00 0.  1.
         23    2    1    2    0    0 -0.51817222534E+03  0.84775367312E+02 -0.36724759658E+03  0.64747231988E+03  0.93060678036E+02 0.  0.
    5000000    2    1    2    0    0  0.51817222534E+03 -0.84775367312E+02  0.49110094476E-01  0.79720176252E+03  0.59986776021E+03 0.  0.
         23    2    4    4    0    0  0.34536643861E+03 -0.30170597532E+03 -0.11805343618E+03  0.48148280038E+03  0.87089613680E+02 0.  0.
         23    2    4    4    0    0  0.17280578674E+03  0.21693060801E+03  0.11810254628E+03  0.31571896214E+03  0.93859059221E+02 0.  0.
          4    1    3    3  502    0 -0.21870776387E+03 -0.43046822811E+01 -0.12349168011E+03  0.25120073910E+03  0.00000000000E+00 0. -1.
         -4    1    3    3    0  502 -0.29946446147E+03  0.89080049593E+02 -0.24375591648E+03  0.39627158078E+03  0.00000000000E+00 0.  1.
         15    1    5    5    0    0  0.25979068900E+03 -0.22074058844E+03 -0.47639065184E+02  0.34422412428E+03  0.17770000000E+01 0. -1.
        -15    1    5    5    0    0  0.85575749605E+02 -0.80965386874E+02 -0.70414370998E+02  0.13725867610E+03  0.17770000000E+01 0.  1.
          3    1    6    6  503    0  0.76810784701E+02  0.30670383245E+02  0.24823022986E+02  0.86352484185E+02  0.00000000000E+00 0. -1.
         -3    1    6    6    0  503  0.95995002035E+02  0.18626022476E+03  0.93279523291E+02  0.22936647795E+03  0.00000000000E+00 0.  1.
<mgrwt>
<rscale>  0 0.64108265E+03</rscale>
<asrwt>0</asrwt>
<pdfrwt beam="1">  1        2 0.82882739E-01 0.64108265E+03</pdfrwt>
<pdfrwt beam="2">  1       -2 0.13937481E+00 0.64108265E+03</pdfrwt>
<totfact> 0.20986215E+01</totfact>
</mgrwt>
</event>
<event>
12    1  0.9321077E-008  0.1097771E+04  0.7818608E-02  0.9207367E-01
         -4   -1    0    0    0  501 -0.00000000000E+00  0.00000000000E+00  0.17575406445E+04  0.17575406445E+04  0.00000000000E+00 0.  1.
          4   -1    0    0  501    0  0.00000000000E+00 -0.00000000000E+00 -0.11602167857E+04  0.11602167857E+04  0.00000000000E+00 0. -1.
         23    2    1    2    0    0  0.49760682043E+03  0.88896762088E+03  0.12114511094E+04  0.15854806925E+04  0.90880454057E+02 0.  0.
    5000000    2    1    2    0    0 -0.49760682043E+03 -0.88896762088E+03 -0.61412725061E+03  0.13322767377E+04  0.59994420336E+03 0.  0.
         23    2    4    4    0    0 -0.38949194055E+03 -0.15929428877E+03 -0.30250706637E+03  0.52616640485E+03  0.90895094482E+02 0.  0.
         23    2    4    4    0    0 -0.10811487988E+03 -0.72967333211E+03 -0.31162018425E+03  0.80611033285E+03  0.92707770178E+02 0.  0.
          2    1    3    3  502    0  0.21363139755E+03  0.29614155102E+03  0.41371753130E+03  0.55181553799E+03  0.00000000000E+00 0. -1.
         -2    1    3    3    0  502  0.28397542288E+03  0.59282606986E+03  0.79773357812E+03  0.10336651545E+04  0.00000000000E+00 0.  1.
         15    1    5    5    0    0 -0.39151476837E+03 -0.16433049903E+03 -0.30018083722E+03  0.52000001878E+03  0.17770000000E+01 0. -1.
        -15    1    5    5    0    0  0.20228278240E+01  0.50362102554E+01 -0.23262291494E+01  0.61663860727E+01  0.17770000000E+01 0.  1.
          2    1    6    6  503    0 -0.12274954799E+03 -0.61471396768E+03 -0.25004388699E+03  0.67487973670E+03  0.00000000000E+00 0. -1.
         -2    1    6    6    0  503  0.14634668106E+02 -0.11495936443E+03 -0.61576297259E+02  0.13123059615E+03  0.00000000000E+00 0.  1.
<mgrwt>
<rscale>  0 0.10977709E+04</rscale>
<asrwt>0</asrwt>
<pdfrwt beam="1">  1        4 0.17849489E+00 0.10977709E+04</pdfrwt>
<pdfrwt beam="2">  1       -4 0.27039087E+00 0.10977709E+04</pdfrwt>
<totfact> 0.16554255E-02</totfact>
</mgrwt>
</event>
<event>
12    1  0.9321077E-008  0.6885939E+03  0.7818608E-02  0.9736939E-01
          1   -1    0    0  501    0  0.00000000000E+00  0.00000000000E+00  0.15354658934E+04  0.15354658934E+04  0.00000000000E+00 0. -1.
         -1   -1    0    0    0  501 -0.00000000000E+00 -0.00000000000E+00 -0.37894204772E+03  0.37894204772E+03  0.00000000000E+00 0.  1.
         23    2    1    2    0    0 -0.34016470262E+03  0.54231377215E+03  0.53353763221E+03  0.83825845182E+03  0.90545981038E+02 0.  0.
    5000000    2    1    2    0    0  0.34016470262E+03 -0.54231377215E+03  0.62298621348E+03  0.10761494893E+04  0.60014135734E+03 0.  0.
         23    2    4    4    0    0  0.30292392523E+03 -0.15555491450E+03  0.57510725617E+03  0.67450250606E+03  0.90802195344E+02 0.  0.
         23    2    4    4    0    0  0.37240777394E+02 -0.38675885765E+03  0.47878957306E+02  0.40164698325E+03  0.89769789635E+02 0.  0.
          2    1    3    3  502    0 -0.16276195671E+03  0.30475717531E+03  0.33637377697E+03  0.48219882651E+03  0.00000000000E+00 0. -1.
         -2    1    3    3    0  502 -0.17740274591E+03  0.23755659685E+03  0.19716385524E+03  0.35605962531E+03  0.00000000000E+00 0.  1.
         15    1    5    5    0    0  0.16195457687E+03 -0.10363860023E+03  0.24206255338E+03  0.30914023016E+03  0.17770000000E+01 0. -1.
        -15    1    5    5    0    0  0.14096934836E+03 -0.51916314278E+02  0.33304470279E+03  0.36536227591E+03  0.17770000000E+01 0.  1.
          4    1    6    6  503    0  0.49126548513E+02 -0.21626147445E+03 -0.77614864069E+01  0.22190692592E+03  0.00000000000E+00 0. -1.
         -4    1    6    6    0  503 -0.11885771119E+02 -0.17049738320E+03  0.55640443713E+02  0.17974005733E+03  0.00000000000E+00 0.  1.
<mgrwt>
<rscale>  0 0.68859388E+03</rscale>
<asrwt>0</asrwt>
<pdfrwt beam="1">  1        1 0.23622552E+00 0.68859388E+03</pdfrwt>
<pdfrwt beam="2">  1       -1 0.58298777E-01 0.68859388E+03</pdfrwt>
<totfact> 0.19245268E+01</totfact>
</mgrwt>
</event>
<event>
12    1  0.9321077E-008  0.8959275E+03  0.7818608E-02  0.9430687E-01
         -2   -1    0    0    0  501 -0.00000000000E+00  0.00000000000E+00  0.31303514892E+03  0.31303514892E+03  0.00000000000E+00 0.  1.
          2   -1    0    0  501    0  0.00000000000E+00 -0.00000000000E+00 -0.27408308456E+04  0.27408308456E+04  0.00000000000E+00 0. -1.
         23    2    1    2    0    0  0.59089373581E+03  0.57780027318E+03 -0.10732423251E+04  0.13575936877E+04  0.90570248057E+02 0.  0.
    5000000    2    1    2    0    0 -0.59089373581E+03 -0.57780027318E+03 -0.13545533716E+04  0.16962723069E+04  0.59959681429E+03 0.  0.
         23    2    4    4    0    0 -0.52687778836E+03 -0.19205857785E+03 -0.51979679442E+03  0.77001458555E+03  0.90813287985E+02 0.  0.
         23    2    4    4    0    0 -0.64015947450E+02 -0.38574169533E+03 -0.83475657721E+03  0.92625772131E+03  0.90775140034E+02 0.  0.
          4    1    3    3  502    0  0.27482858155E+03  0.21556724022E+03 -0.49033960458E+03  0.60202401290E+03  0.00000000000E+00 0. -1.
         -4    1    3    3    0  502  0.31606515425E+03  0.36223303296E+03 -0.58290272050E+03  0.75556967479E+03  0.00000000000E+00 0.  1.
         15    1    5    5    0    0 -0.17042986715E+03 -0.22582632117E+02 -0.13272356004E+03  0.21719810314E+03  0.17770000000E+01 0.  1.
        -15    1    5    5    0    0 -0.35644792121E+03 -0.16947594573E+03 -0.38707323438E+03  0.55281648241E+03  0.17770000000E+01 0. -1.
          2    1    6    6  503    0 -0.10853478912E+02 -0.23712324030E+03 -0.41929338226E+03  0.48182171962E+03  0.00000000000E+00 0. -1.
         -2    1    6    6    0  503 -0.53162468539E+02 -0.14861845503E+03 -0.41546319495E+03  0.44443600169E+03  0.00000000000E+00 0.  1.
<mgrwt>
<rscale>  0 0.89592753E+03</rscale>
<asrwt>0</asrwt>
<pdfrwt beam="1">  1        2 0.42166631E+00 0.89592753E+03</pdfrwt>
<pdfrwt beam="2">  1       -2 0.48159251E-01 0.89592753E+03</pdfrwt>
<totfact> 0.10575403E+01</totfact>
</mgrwt>
</event>
<event>
12    1  0.9321077E-008  0.1108647E+04  0.7818608E-02  0.9196805E-01
          1   -1    0    0  501    0  0.00000000000E+00  0.00000000000E+00  0.18732844777E+04  0.18732844777E+04  0.00000000000E+00 0. -1.
         -1   -1    0    0    0  501 -0.00000000000E+00 -0.00000000000E+00 -0.66251897441E+03  0.66251897441E+03  0.00000000000E+00 0.  1.
         23    2    1    2    0    0 -0.10308208554E+04  0.14659302657E+02  0.58878044392E+03  0.11906856440E+04  0.90903027872E+02 0.  0.
    5000000    2    1    2    0    0  0.10308208554E+04 -0.14659302657E+02  0.62198505934E+03  0.13451178081E+04  0.59972491410E+03 0.  0.
         23    2    4    4    0    0  0.61029933968E+03 -0.28800733451E+03  0.35947019429E+03  0.77096178092E+03  0.98740763116E+02 0.  0.
         23    2    4    4    0    0  0.42052151573E+03  0.27334803186E+03  0.26251486505E+03  0.57415602721E+03  0.95831088365E+02 0.  0.
          3    1    3    3  502    0 -0.85543222077E+03 -0.96514376537E+01  0.51735590605E+03  0.99975725459E+03  0.00000000000E+00 0. -1.
         -3    1    3    3    0  502 -0.17538863465E+03  0.24310740311E+02  0.71424537865E+02  0.19092838937E+03  0.00000000000E+00 0.  1.
         15    1    5    5    0    0  0.42920852340E+03 -0.15645877585E+03  0.26383591124E+03  0.52755269963E+03  0.17770000000E+01 0. -1.
        -15    1    5    5    0    0  0.18109081628E+03 -0.13154855867E+03  0.95634283049E+02  0.24340908129E+03  0.17770000000E+01 0.  1.
          3    1    6    6  503    0  0.98062490542E+02  0.39402647263E+02  0.19397449805E+02  0.10744804196E+03  0.00000000000E+00 0. -1.
         -3    1    6    6    0  503  0.32245902519E+03  0.23394538460E+03  0.24311741525E+03  0.46670798525E+03  0.00000000000E+00 0.  1.
<mgrwt>
<rscale>  0 0.11086470E+04</rscale>
<asrwt>0</asrwt>
<pdfrwt beam="1">  1        1 0.28819761E+00 0.11086470E+04</pdfrwt>
<pdfrwt beam="2">  1       -1 0.10192600E+00 0.11086470E+04</pdfrwt>
<totfact> 0.32994968E+00</totfact>
</mgrwt>
</event>
<event>
12    1  0.9321077E-008  0.1282437E+04  0.7818608E-02  0.9043610E-01
         -1   -1    0    0    0  501 -0.00000000000E+00  0.00000000000E+00  0.96524027617E+03  0.96524027617E+03  0.00000000000E+00 0.  1.
          1   -1    0    0  501    0  0.00000000000E+00 -0.00000000000E+00 -0.27266926564E+04  0.27266926564E+04  0.00000000000E+00 0. -1.
         23    2    1    2    0    0 -0.21154794916E+03  0.12522543502E+04  0.19015438597E+03  0.12874319979E+04  0.91809401742E+02 0.  0.
    5000000    2    1    2    0    0  0.21154794916E+03 -0.12522543502E+04 -0.19516067662E+04  0.24045009347E+04  0.59996856789E+03 0.  0.
         23    2    4    4    0    0  0.21941056848E+03 -0.74332628468E+03 -0.69201020860E+03  0.10431034709E+04  0.92259195697E+02 0.  0.
         23    2    4    4    0    0 -0.78626193207E+01 -0.50892806555E+03 -0.12595965576E+04  0.13613974637E+04  0.88033912039E+02 0.  0.
          1    1    3    3  502    0 -0.26926916706E+02  0.36509187056E+03  0.31011318034E+02  0.36739465788E+03  0.00000000000E+00 0. -1.
         -1    1    3    3    0  502 -0.18462103245E+03  0.88716247967E+03  0.15914306794E+03  0.92003734002E+03  0.00000000000E+00 0.  1.
         15    1    5    5    0    0  0.14269632644E+03 -0.39908783451E+03 -0.42977802429E+03  0.60361051112E+03  0.17770000000E+01 0. -1.
        -15    1    5    5    0    0  0.76714242036E+02 -0.34423845017E+03 -0.26223218431E+03  0.43949295981E+03  0.17770000000E+01 0.  1.
          1    1    6    6  503    0  0.36300505217E+02 -0.32125141976E+03 -0.76136410679E+03  0.82716111157E+03  0.00000000000E+00 0. -1.
         -1    1    6    6    0  503 -0.44163124537E+02 -0.18767664579E+03 -0.49823245080E+03  0.53423635216E+03  0.00000000000E+00 0.  1.
<mgrwt>
<rscale>  0 0.12824369E+04</rscale>
<asrwt>0</asrwt>
<pdfrwt beam="1">  1        1 0.41949117E+00 0.12824369E+04</pdfrwt>
<pdfrwt beam="2">  1       -1 0.14849851E+00 0.12824369E+04</pdfrwt>
<totfact> 0.32930215E-01</totfact>
</mgrwt>
</event>
<event>
12    1  0.9321077E-008  0.1208453E+04  0.7818608E-02  0.9105490E-01
         -2   -1    0    0    0  501 -0.00000000000E+00  0.00000000000E+00  0.21548708535E+04  0.21548708535E+04  0.00000000000E+00 0.  1.
          2   -1    0    0  501    0  0.00000000000E+00 -0.00000000000E+00 -0.95332822153E+03  0.95332822153E+03  0.00000000000E+00 0. -1.
         23    2    1    2    0    0 -0.44348015133E+03  0.10462809520E+04  0.14020115789E+04  0.18075236162E+04  0.10063140978E+03 0.  0.
    5000000    2    1    2    0    0  0.44348015133E+03 -0.10462809520E+04 -0.20046894693E+03  0.13006754588E+04  0.60015862507E+03 0.  0.
         23    2    4    4    0    0  0.50832717244E+03 -0.47212062744E+03 -0.12517391523E+03  0.71083411689E+03  0.91226265860E+02 0.  0.
         23    2    4    4    0    0 -0.64847021109E+02 -0.57416032459E+03 -0.75295031706E+02  0.58984134192E+03  0.91532793889E+02 0.  0.
          2    1    3    3  502    0 -0.17333586277E+03  0.50957558111E+03  0.61295118067E+03  0.81573386842E+03  0.00000000000E+00 0. -1.
         -2    1    3    3    0  502 -0.27014428856E+03  0.53670537091E+03  0.78906039821E+03  0.99178974780E+03  0.00000000000E+00 0.  1.
         15    1    5    5    0    0  0.15861738715E+03 -0.19580120237E+03 -0.71294347214E+02  0.26188476098E+03  0.17770000000E+01 0.  1.
        -15    1    5    5    0    0  0.34970978529E+03 -0.27631942507E+03 -0.53879568011E+02  0.44894935591E+03  0.17770000000E+01 0. -1.
          1    1    6    6  503    0 -0.34044984826E+02 -0.11566511326E+03  0.15077246726E+02  0.12151050484E+03  0.00000000000E+00 0. -1.
         -1    1    6    6    0  503 -0.30802036283E+02 -0.45849521132E+03 -0.90372278431E+02  0.46833083707E+03  0.00000000000E+00 0.  1.
<mgrwt>
<rscale>  0 0.12084530E+04</rscale>
<asrwt>0</asrwt>
<pdfrwt beam="1">  1        2 0.14666588E+00 0.12084530E+04</pdfrwt>
<pdfrwt beam="2">  1       -2 0.33151859E+00 0.12084530E+04</pdfrwt>
<totfact> 0.53803091E-01</totfact>
</mgrwt>
</event>
<event>
12    1  0.9321077E-008  0.7754541E+03  0.7818608E-02  0.9596242E-01
          3   -1    0    0  501    0  0.00000000000E+00  0.00000000000E+00  0.88595355697E+03  0.88595355697E+03  0.00000000000E+00 0. -1.
         -3   -1    0    0    0  501 -0.00000000000E+00 -0.00000000000E+00 -0.79669182592E+03  0.79669182592E+03  0.00000000000E+00 0.  1.
         23    2    1    2    0    0  0.39562268052E+03  0.55098339855E+03 -0.23046879559E+03  0.72223734975E+03  0.91711028903E+02 0.  0.
    5000000    2    1    2    0    0 -0.39562268052E+03 -0.55098339855E+03  0.31973052665E+03  0.96040803314E+03  0.60004663955E+03 0.  0.
         23    2    4    4    0    0  0.59784344677E+02 -0.37159832971E+03  0.24035020070E+03  0.45605038688E+03  0.92489187938E+02 0.  0.
         23    2    4    4    0    0 -0.45540702520E+03 -0.17938506884E+03  0.79380325949E+02  0.50435764626E+03  0.92199987381E+02 0.  0.
          2    1    3    3  502    0  0.16153324487E+03  0.24659171342E+03 -0.14643008897E+03  0.32915381402E+03  0.00000000000E+00 0. -1.
         -2    1    3    3    0  502  0.23408943565E+03  0.30439168512E+03 -0.84038706621E+02  0.39308353574E+03  0.00000000000E+00 0.  1.
         15    1    5    5    0    0  0.29762451269E+02 -0.73201505325E+02  0.13904847461E+02  0.80254385545E+02  0.17770000000E+01 0. -1.
        -15    1    5    5    0    0  0.30021893408E+02 -0.29839682439E+03  0.22644535324E+03  0.37579600133E+03  0.17770000000E+01 0.  1.
          4    1    6    6  503    0 -0.15117852031E+03 -0.90635001999E+02  0.62430777017E+02  0.18699532216E+03  0.00000000000E+00 0. -1.
         -4    1    6    6    0  503 -0.30422850489E+03 -0.88750066836E+02  0.16949548932E+02  0.31736232410E+03  0.00000000000E+00 0.  1.
<mgrwt>
<rscale>  0 0.77545413E+03</rscale>
<asrwt>0</asrwt>
<pdfrwt beam="1">  1        3 0.13630055E+00 0.77545413E+03</pdfrwt>
<pdfrwt beam="2">  1       -3 0.12256797E+00 0.77545413E+03</pdfrwt>
<totfact> 0.57353878E-01</totfact>
</mgrwt>
</event>
<event>
12    1  0.9321077E-008  0.5080257E+03  0.7818608E-02  0.1011705E+00
         -1   -1    0    0    0  501 -0.00000000000E+00  0.00000000000E+00  0.65878008167E+03  0.65878008167E+03  0.00000000000E+00 0.  1.
          1   -1    0    0  501    0  0.00000000000E+00 -0.00000000000E+00 -0.54462222743E+03  0.54462222743E+03  0.00000000000E+00 0. -1.
         23    2    1    2    0    0  0.10355145029E+03  0.42349590355E+03  0.10877200651E+03  0.46168560310E+03  0.10606867364E+03 0.  0.
    5000000    2    1    2    0    0 -0.10355145029E+03 -0.42349590355E+03  0.53858477316E+01  0.74171670600E+03  0.60003581679E+03 0.  0.
         23    2    4    4    0    0 -0.14150875548E+02 -0.46013030816E+03 -0.18909869788E+03  0.50598044056E+03  0.91311231069E+02 0.  0.
         23    2    4    4    0    0 -0.89400574742E+02  0.36634404609E+02  0.19448454561E+03  0.23573626545E+03  0.91721349744E+02 0.  0.
          3    1    3    3  502    0  0.97322147198E+02  0.28495204810E+03  0.11631246703E+03  0.32279693313E+03  0.00000000000E+00 0. -1.
         -3    1    3    3    0  502  0.62293030912E+01  0.13854385545E+03 -0.75404605276E+01  0.13888866997E+03  0.00000000000E+00 0.  1.
         15    1    5    5    0    0 -0.61848506625E+01 -0.31892694580E+03 -0.84287843339E+02  0.32993976329E+03  0.17770000000E+01 0. -1.
        -15    1    5    5    0    0 -0.79660248851E+01 -0.14120336236E+03 -0.10481085454E+03  0.17604067727E+03  0.17770000000E+01 0.  1.
          1    1    6    6  503    0  0.99948586766E+01  0.31439059512E+00  0.76887046905E+02  0.77534598878E+02  0.00000000000E+00 0. -1.
         -1    1    6    6    0  503 -0.99395433419E+02  0.36320014014E+02  0.11759749871E+03  0.15820166657E+03  0.00000000000E+00 0.  1.
<mgrwt>
<rscale>  0 0.50802567E+03</rscale>
<asrwt>0</asrwt>
<pdfrwt beam="1">  1        1 0.83788035E-01 0.50802567E+03</pdfrwt>
<pdfrwt beam="2">  1       -1 0.10135078E+00 0.50802567E+03</pdfrwt>
<totfact> 0.38209444E+01</totfact>
</mgrwt>
</event>
<event>
12    1  0.9321077E-008  0.1878255E+04  0.7818608E-02  0.8665757E-01
         -2   -1    0    0    0  501 -0.00000000000E+00  0.00000000000E+00  0.14357734334E+04  0.14357734334E+04  0.00000000000E+00 0.  1.
          2   -1    0    0  501    0  0.00000000000E+00 -0.00000000000E+00 -0.30551014760E+04  0.30551014760E+04  0.00000000000E+00 0. -1.
         23    2    1    2    0    0 -0.12943971954E+04  0.13214737014E+04  0.15528585918E+03  0.18581876188E+04  0.83610320003E+02 0.  0.
    5000000    2    1    2    0    0  0.12943971954E+04 -0.13214737014E+04 -0.17746139019E+04  0.26326872906E+04  0.60002585503E+03 0.  0.
         23    2    4    4    0    0  0.29551114027E+03 -0.96659334654E+02 -0.12793574393E+03  0.34841693591E+03  0.91416331461E+02 0.  0.
         23    2    4    4    0    0  0.99888605513E+03 -0.12248143667E+04 -0.16466781579E+04  0.22842703547E+04  0.91643404535E+02 0.  0.
          1    1    3    3  502    0 -0.27043345121E+03  0.23541349230E+03  0.46919750131E+02  0.36160092208E+03  0.00000000000E+00 0. -1.
         -1    1    3    3    0  502 -0.10239637442E+04  0.10860602091E+04  0.10836610905E+03  0.14965866967E+04  0.00000000000E+00 0.  1.
         15    1    5    5    0    0  0.27166831333E+03 -0.56763603066E+02 -0.11111772175E+03  0.29895833308E+03  0.17770000000E+01 0. -1.
        -15    1    5    5    0    0  0.23842826937E+02 -0.39895731588E+02 -0.16818022181E+02  0.49458602835E+02  0.17770000000E+01 0.  1.
          4    1    6    6  503    0  0.97505785519E+03 -0.12061990603E+04 -0.15978029159E+04  0.22267977349E+04  0.00000000000E+00 0. -1.
         -4    1    6    6    0  503  0.23828199938E+02 -0.18615306380E+02 -0.48875242071E+02  0.57472619842E+02  0.00000000000E+00 0.  1.
<mgrwt>
<rscale>  0 0.18782545E+04</rscale>
<asrwt>0</asrwt>
<pdfrwt beam="1">  1        2 0.47001561E+00 0.18782545E+04</pdfrwt>
<pdfrwt beam="2">  1       -2 0.22088822E+00 0.18782545E+04</pdfrwt>
<totfact> 0.14140830E-01</totfact>
</mgrwt>
</event>
<event>
12    1  0.9321077E-008  0.7472850E+03  0.7818608E-02  0.9639619E-01
          2   -1    0    0  501    0  0.00000000000E+00  0.00000000000E+00  0.22248309646E+04  0.22248309646E+04  0.00000000000E+00 0. -1.
         -2   -1    0    0    0  501 -0.00000000000E+00 -0.00000000000E+00 -0.59633409801E+03  0.59633409801E+03  0.00000000000E+00 0.  1.
         23    2    1    2    0    0  0.59473683986E+03  0.38762186479E+03 -0.22285854404E+03  0.74955934438E+03  0.90612699726E+02 0.  0.
    5000000    2    1    2    0    0 -0.59473683986E+03 -0.38762186479E+03  0.18513554106E+04  0.20716057182E+04  0.60005897759E+03 0.  0.
         23    2    4    4    0    0 -0.57322948699E+03 -0.40861641303E+03  0.18436064082E+04  0.19755307802E+04  0.90982732091E+02 0.  0.
         23    2    4    4    0    0 -0.21507352871E+02  0.20994548237E+02  0.77490024778E+01  0.96074938043E+02  0.90923096062E+02 0.  0.
          1    1    3    3  502    0  0.28863926745E+03  0.17013684697E+03 -0.60506604801E+02  0.34047058997E+03  0.00000000000E+00 0. -1.
         -1    1    3    3    0  502  0.30609757241E+03  0.21748501783E+03 -0.16235193924E+03  0.40908875442E+03  0.00000000000E+00 0.  1.
         15    1    5    5    0    0 -0.19971108290E+03 -0.16389753894E+03  0.79087357913E+03  0.83200426429E+03  0.17770000000E+01 0. -1.
        -15    1    5    5    0    0 -0.37351840409E+03 -0.24471887409E+03  0.10527328290E+04  0.11435265159E+04  0.17770000000E+01 0.  1.
          4    1    6    6  503    0  0.23804119235E+02 -0.82419373321E+01  0.28732216872E+02  0.38211332218E+02  0.00000000000E+00 0. -1.
         -4    1    6    6    0  503 -0.45311472106E+02  0.29236485569E+02 -0.20983214394E+02  0.57863605825E+02  0.00000000000E+00 0.  1.
<mgrwt>
<rscale>  0 0.74728503E+03</rscale>
<asrwt>0</asrwt>
<pdfrwt beam="1">  1        2 0.34228168E+00 0.74728503E+03</pdfrwt>
<pdfrwt beam="2">  1       -2 0.91743708E-01 0.74728503E+03</pdfrwt>
<totfact> 0.52686021E+00</totfact>
</mgrwt>
</event>
<event>
12    1  0.9321077E-008  0.7072663E+03  0.7818608E-02  0.9704886E-01
          1   -1    0    0  501    0  0.00000000000E+00  0.00000000000E+00  0.62543351848E+03  0.62543351848E+03  0.00000000000E+00 0. -1.
         -1   -1    0    0    0  501 -0.00000000000E+00 -0.00000000000E+00 -0.94906570577E+03  0.94906570577E+03  0.00000000000E+00 0.  1.
         23    2    1    2    0    0 -0.50077452444E+03 -0.38148191628E+03 -0.30295485173E+03  0.70465205224E+03  0.91920050910E+02 0.  0.
    5000000    2    1    2    0    0  0.50077452444E+03  0.38148191628E+03 -0.20677335563E+02  0.86984717200E+03  0.59991913926E+03 0.  0.
         23    2    4    4    0    0  0.20901644521E+03  0.42566069914E+03 -0.18888278790E+03  0.51873676205E+03  0.92391642365E+02 0.  0.
         23    2    4    4    0    0  0.29175807923E+03 -0.44178782853E+02  0.16820545234E+03  0.35111040995E+03  0.88943263539E+02 0.  0.
          4    1    3    3  502    0 -0.27163994988E+03 -0.21555398207E+03 -0.21660309910E+03  0.40886267144E+03  0.00000000000E+00 0. -1.
         -4    1    3    3    0  502 -0.22913457457E+03 -0.16592793421E+03 -0.86351752627E+02  0.29578938080E+03  0.00000000000E+00 0.  1.
         15    1    5    5    0    0  0.97346645522E+02  0.27145813432E+03 -0.79469969270E+02  0.29913963600E+03  0.17770000000E+01 0.  1.
        -15    1    5    5    0    0  0.11166979969E+03  0.15420256482E+03 -0.10941281863E+03  0.21959712605E+03  0.17770000000E+01 0. -1.
          4    1    6    6  503    0  0.55931517678E+02 -0.42477615329E+02  0.21842916999E+02  0.73551311999E+02  0.00000000000E+00 0. -1.
         -4    1    6    6    0  503  0.23582656155E+03 -0.17011675245E+01  0.14636253534E+03  0.27755909795E+03  0.00000000000E+00 0.  1.
<mgrwt>
<rscale>  0 0.70726628E+03</rscale>
<asrwt>0</asrwt>
<pdfrwt beam="1">  1        1 0.96220541E-01 0.70726628E+03</pdfrwt>
<pdfrwt beam="2">  1       -1 0.14601011E+00 0.70726628E+03</pdfrwt>
<totfact> 0.12511847E+01</totfact>
</mgrwt>
</event>
<event>
12    1  0.9321077E-008  0.7881609E+03  0.7818608E-02  0.9577314E-01
         -1   -1    0    0    0  501 -0.00000000000E+00  0.00000000000E+00  0.13788824434E+04  0.13788824434E+04  0.00000000000E+00 0.  1.
          1   -1    0    0  501    0  0.00000000000E+00 -0.00000000000E+00 -0.77948233071E+03  0.77948233071E+03  0.00000000000E+00 0. -1.
         23    2    1    2    0    0 -0.92741050475E+02 -0.77487754939E+03  0.83483349995E+03  0.11461415086E+04  0.87505806417E+02 0.  0.
    5000000    2    1    2    0    0  0.92741050475E+02  0.77487754939E+03 -0.23543338721E+03  0.10122232655E+04  0.60010910714E+03 0.  0.
         23    2    4    4    0    0  0.86909076097E+02  0.55590139807E+03 -0.42278371687E+03  0.70956254104E+03  0.90296049223E+02 0.  0.
         23    2    4    4    0    0  0.58319743784E+01  0.21897615132E+03  0.18735032966E+03  0.30266072449E+03  0.92297352920E+02 0.  0.
          2    1    3    3  502    0 -0.62583290694E+02 -0.34129344794E+03  0.42613475042E+03  0.54953499561E+03  0.00000000000E+00 0. -1.
         -2    1    3    3    0  502 -0.30157759781E+02 -0.43358410145E+03  0.40869874953E+03  0.59660651301E+03  0.00000000000E+00 0.  1.
         15    1    5    5    0    0  0.67498122589E+01  0.28690619052E+03 -0.24466453070E+03  0.37712678563E+03  0.17770000000E+01 0. -1.
        -15    1    5    5    0    0  0.80159263838E+02  0.26899520755E+03 -0.17811918617E+03  0.33243575541E+03  0.17770000000E+01 0.  1.
          4    1    6    6  503    0 -0.12485356726E+02  0.20090811297E+03  0.18999062473E+03  0.27679666088E+03  0.00000000000E+00 0. -1.
         -4    1    6    6    0  503  0.18317331105E+02  0.18068038347E+02 -0.26402950689E+01  0.25864063613E+02  0.00000000000E+00 0.  1.
<mgrwt>
<rscale>  0 0.78816086E+03</rscale>
<asrwt>0</asrwt>
<pdfrwt beam="1">  1        1 0.11992036E+00 0.78816086E+03</pdfrwt>
<pdfrwt beam="2">  1       -1 0.21213576E+00 0.78816086E+03</pdfrwt>
<totfact> 0.29641781E+00</totfact>
</mgrwt>
</event>
<event>
12    1  0.9321077E-008  0.6805416E+03  0.7818608E-02  0.9751100E-01
         -2   -1    0    0    0  501 -0.00000000000E+00  0.00000000000E+00  0.25975251594E+03  0.25975251594E+03  0.00000000000E+00 0. -1.
          2   -1    0    0  501    0  0.00000000000E+00 -0.00000000000E+00 -0.18585990174E+04  0.18585990174E+04  0.00000000000E+00 0.  1.
         23    2    1    2    0    0 -0.53736485821E+03  0.13734289491E+03 -0.77369282582E+03  0.95706987817E+03  0.98783102613E+02 0.  0.
    5000000    2    1    2    0    0  0.53736485821E+03 -0.13734289491E+03 -0.82515367565E+03  0.11612816552E+04  0.60006035744E+03 0.  0.
         23    2    4    4    0    0  0.62084145866E+03 -0.20180667322E+03 -0.76171241777E+03  0.10076265741E+04  0.94527537147E+02 0.  0.
         23    2    4    4    0    0 -0.83476600449E+02  0.64463778314E+02 -0.63441257873E+02  0.15365508108E+03  0.91984613946E+02 0.  0.
          2    1    3    3  502    0 -0.28202173436E+03  0.25155789936E+02 -0.42253678822E+03  0.50863190012E+03  0.00000000000E+00 0. -1.
         -2    1    3    3    0  502 -0.25534312385E+03  0.11218710497E+03 -0.35115603759E+03  0.44843797805E+03  0.00000000000E+00 0.  1.
         15    1    5    5    0    0  0.10949128139E+03 -0.17678583067E+00 -0.14074061430E+03  0.17832400342E+03  0.17770000000E+01 0. -1.
        -15    1    5    5    0    0  0.51135017727E+03 -0.20162988739E+03 -0.62097180347E+03  0.82930257067E+03  0.17770000000E+01 0.  1.
          2    1    6    6  503    0 -0.15215856647E+02  0.69758832275E+02 -0.29757045384E+02  0.77351785525E+02  0.00000000000E+00 0. -1.
         -2    1    6    6    0  503 -0.68260743803E+02 -0.52950539613E+01 -0.33684212490E+02  0.76303295551E+02  0.00000000000E+00 0.  1.
<mgrwt>
<rscale>  0 0.68054165E+03</rscale>
<asrwt>0</asrwt>
<pdfrwt beam="1">  1        2 0.28593830E+00 0.68054165E+03</pdfrwt>
<pdfrwt beam="2">  1       -2 0.39961927E-01 0.68054165E+03</pdfrwt>
<totfact> 0.49159987E+01</totfact>
</mgrwt>
</event>
<event>
12    1  0.9321077E-008  0.7743615E+03  0.7818608E-02  0.9597888E-01
          2   -1    0    0  501    0  0.00000000000E+00  0.00000000000E+00  0.15688052328E+04  0.15688052328E+04  0.00000000000E+00 0. -1.
         -2   -1    0    0    0  501 -0.00000000000E+00 -0.00000000000E+00 -0.42781960462E+03  0.42781960462E+03  0.00000000000E+00 0.  1.
         23    2    1    2    0    0  0.69018476077E+03 -0.61985204703E+02  0.32986710912E+03  0.77265625839E+03  0.89376811098E+02 0.  0.
    5000000    2    1    2    0    0 -0.69018476077E+03  0.61985204703E+02  0.81111851906E+03  0.12239685790E+04  0.59999055067E+03 0.  0.
         23    2    4    4    0    0 -0.68160160289E+02 -0.15830118066E+03  0.30905310425E+02  0.19800438258E+03  0.92442014575E+02 0.  0.
         23    2    4    4    0    0 -0.62202460048E+03  0.22028638536E+03  0.78021320863E+03  0.10259641965E+04  0.91810600164E+02 0.  0.
          1    1    3    3  502    0  0.36783018918E+03 -0.55088053906E+02  0.21944047332E+03  0.43184240538E+03  0.00000000000E+00 0. -1.
         -1    1    3    3    0  502  0.32235457159E+03 -0.68971507968E+01  0.11042663580E+03  0.34081385301E+03  0.00000000000E+00 0.  1.
         15    1    5    5    0    0 -0.79180297721E+02 -0.93826016030E+02  0.45532757383E+02  0.13095507075E+03  0.17770000000E+01 0.  1.
        -15    1    5    5    0    0  0.11020137433E+02 -0.64475164629E+02 -0.14627446958E+02  0.67049311827E+02  0.17770000000E+01 0. -1.
          2    1    6    6  503    0 -0.16890500190E+03  0.17804386726E+02  0.20641426008E+03  0.26730645824E+03  0.00000000000E+00 0. -1.
         -2    1    6    6    0  503 -0.45311959858E+03  0.20248199864E+03  0.57379894855E+03  0.75865773821E+03  0.00000000000E+00 0.  1.
<mgrwt>
<rscale>  0 0.77436145E+03</rscale>
<asrwt>0</asrwt>
<pdfrwt beam="1">  1        2 0.24135465E+00 0.77436145E+03</pdfrwt>
<pdfrwt beam="2">  1       -2 0.65818401E-01 0.77436145E+03</pdfrwt>
<totfact> 0.25212309E+01</totfact>
</mgrwt>
</event>
<event>
12    1  0.9321077E-008  0.1656556E+04  0.7818608E-02  0.8786538E-01
         -1   -1    0    0    0  501 -0.00000000000E+00  0.00000000000E+00  0.15876883430E+04  0.15876883430E+04  0.00000000000E+00 0.  1.
          1   -1    0    0  501    0  0.00000000000E+00 -0.00000000000E+00 -0.17868826806E+04  0.17868826806E+04  0.00000000000E+00 0. -1.
         23    2    1    2    0    0  0.15098565476E+04  0.61301443076E+03 -0.10833528219E+03  0.16357070578E+04  0.91364975485E+02 0.  0.
    5000000    2    1    2    0    0 -0.15098565476E+04 -0.61301443076E+03 -0.90859055365E+02  0.17388639659E+04  0.59994919541E+03 0.  0.
         23    2    4    4    0    0 -0.14644716852E+04 -0.56210257082E+03 -0.19548599453E+03  0.15835175473E+04  0.93147366096E+02 0.  0.
         23    2    4    4    0    0 -0.45384862473E+02 -0.50911859945E+02  0.10462693917E+03  0.15534641855E+03  0.92379165040E+02 0.  0.
          2    1    3    3  502    0  0.79724639589E+03  0.32601081956E+03 -0.11594838437E+02  0.86140542749E+03  0.00000000000E+00 0. -1.
         -2    1    3    3    0  502  0.71261015174E+03  0.28700361120E+03 -0.96740443754E+02  0.77430163029E+03  0.00000000000E+00 0.  1.
         15    1    5    5    0    0 -0.12926941574E+04 -0.49073544865E+03 -0.20198072845E+03  0.13973828529E+04  0.17770000000E+01 0. -1.
        -15    1    5    5    0    0 -0.17177752771E+03 -0.71367122167E+02  0.64947339196E+01  0.18613469438E+03  0.17770000000E+01 0. -1.
          3    1    6    6  503    0  0.10069143973E+02  0.21424680280E+02  0.20768475189E+02  0.31491810795E+02  0.00000000000E+00 0. -1.
         -3    1    6    6    0  503 -0.55454006446E+02 -0.72336540225E+02  0.83858463978E+02  0.12385460776E+03  0.00000000000E+00 0.  1.
<mgrwt>
<rscale>  0 0.16565556E+04</rscale>
<asrwt>0</asrwt>
<pdfrwt beam="1">  1        1 0.27490503E+00 0.16565556E+04</pdfrwt>
<pdfrwt beam="2">  1       -1 0.24425975E+00 0.16565556E+04</pdfrwt>
<totfact> 0.29348145E-01</totfact>
</mgrwt>
</event>
<event>
12    1  0.9321077E-008  0.1202313E+04  0.7818608E-02  0.9110834E-01
         -1   -1    0    0    0  501 -0.00000000000E+00  0.00000000000E+00  0.82973809601E+03  0.82973809601E+03  0.00000000000E+00 0.  1.
          1   -1    0    0  501    0  0.00000000000E+00 -0.00000000000E+00 -0.22505550563E+04  0.22505550563E+04  0.00000000000E+00 0. -1.
         23    2    1    2    0    0 -0.11290500437E+04  0.18900071470E+03  0.14988427408E+02  0.11485308005E+04  0.91777315052E+02 0.  0.
    5000000    2    1    2    0    0  0.11290500437E+04 -0.18900071470E+03 -0.14358053877E+04  0.19317623518E+04  0.59974444650E+03 0.  0.
         23    2    4    4    0    0  0.83376492942E+03 -0.36503965955E+03 -0.11827315417E+04  0.14952737176E+04  0.92583368297E+02 0.  0.
         23    2    4    4    0    0  0.29528511426E+03  0.17603894484E+03 -0.25307384597E+03  0.43648863421E+03  0.91065621778E+02 0.  0.
          1    1    3    3  502    0 -0.25949713349E+03  0.50680665481E+02  0.41550229824E+02  0.26764475288E+03  0.00000000000E+00 0. -1.
         -1    1    3    3    0  502 -0.86955291019E+03  0.13832004922E+03 -0.26561802415E+02  0.88088604767E+03  0.00000000000E+00 0.  1.
         15    1    5    5    0    0  0.50970332279E+03 -0.24703422499E+03 -0.79804753656E+03  0.97862475644E+03  0.17770000000E+01 0. -1.
        -15    1    5    5    0    0  0.32406160663E+03 -0.11800543456E+03 -0.38468400519E+03  0.51664896115E+03  0.17770000000E+01 0.  1.
          2    1    6    6  503    0  0.20469154351E+03  0.90353946796E+02 -0.11912557279E+03  0.25348247628E+03  0.00000000000E+00 0. -1.
         -2    1    6    6    0  503  0.90593570749E+02  0.85684998048E+02 -0.13394827318E+03  0.18300615793E+03  0.00000000000E+00 0.  1.
<mgrwt>
<rscale>  0 0.12023133E+04</rscale>
<asrwt>0</asrwt>
<pdfrwt beam="1">  1        1 0.34623924E+00 0.12023133E+04</pdfrwt>
<pdfrwt beam="2">  1       -1 0.12765202E+00 0.12023133E+04</pdfrwt>
<totfact> 0.10529601E+00</totfact>
</mgrwt>
</event>
<event>
12    1  0.9321077E-008  0.3821251E+03  0.7818608E-02  0.1050151E+00
         -1   -1    0    0    0  501 -0.00000000000E+00  0.00000000000E+00  0.11651747854E+04  0.11651747854E+04  0.00000000000E+00 0.  1.
          1   -1    0    0  501    0  0.00000000000E+00 -0.00000000000E+00 -0.24240034038E+03  0.24240034038E+03  0.00000000000E+00 0. -1.
         23    2    1    2    0    0 -0.98848747841E+02 -0.29483990123E+03  0.54373341047E+03  0.63287376809E+03  0.90451878740E+02 0.  0.
    5000000    2    1    2    0    0  0.98848747841E+02  0.29483990123E+03  0.37904103458E+03  0.77470135772E+03  0.59982367864E+03 0.  0.
         23    2    4    4    0    0  0.16098427155E+03  0.29317629979E+03 -0.33297046657E+02  0.34842357765E+03  0.91771551681E+02 0.  0.
         23    2    4    4    0    0 -0.62135523710E+02  0.16636014377E+01  0.41233808124E+03  0.42627778007E+03  0.88467291522E+02 0.  0.
          1    1    3    3  502    0  0.19995880814E+01 -0.13266949780E+03  0.21197772028E+03  0.25007948315E+03  0.00000000000E+00 0. -1.
         -1    1    3    3    0  502 -0.10084833592E+03 -0.16217040344E+03  0.33175569019E+03  0.38279428494E+03  0.00000000000E+00 0.  1.
         15    1    5    5    0    0  0.54166987976E+02  0.28465906555E+02 -0.98833262435E+01  0.62009743501E+02  0.17770000000E+01 0. -1.
        -15    1    5    5    0    0  0.10681728358E+03  0.26471039324E+03 -0.23413720414E+02  0.28641383415E+03  0.17770000000E+01 0.  1.
          2    1    6    6  503    0  0.10546890324E+02 -0.15964320295E+02  0.20449480713E+03  0.20538798057E+03  0.00000000000E+00 0. -1.
         -2    1    6    6    0  503 -0.72682414034E+02  0.17627921733E+02  0.20784327410E+03  0.22088979950E+03  0.00000000000E+00 0.  1.
<mgrwt>
<rscale>  0 0.38212513E+03</rscale>
<asrwt>0</asrwt>
<pdfrwt beam="1">  1        1 0.37292361E-01 0.38212513E+03</pdfrwt>
<pdfrwt beam="2">  1       -1 0.17925766E+00 0.38212513E+03</pdfrwt>
<totfact> 0.26207186E+01</totfact>
</mgrwt>
</event>
<event>
12    1  0.9321077E-008  0.2091218E+04  0.7818608E-02  0.8565122E-01
         -1   -1    0    0    0  501 -0.00000000000E+00  0.00000000000E+00  0.21286525332E+04  0.21286525332E+04  0.00000000000E+00 0.  1.
          1   -1    0    0  501    0  0.00000000000E+00 -0.00000000000E+00 -0.36594408118E+04  0.36594408118E+04  0.00000000000E+00 0. -1.
         23    2    1    2    0    0  0.18394086560E+04  0.91552071071E+03  0.11509863238E+04  0.23568468377E+04  0.91406363869E+02 0.  0.
    5000000    2    1    2    0    0 -0.18394086560E+04 -0.91552071071E+03 -0.26817746023E+04  0.34312465073E+04  0.59994599785E+03 0.  0.
         23    2    4    4    0    0 -0.58425941368E+03 -0.58194591479E+03 -0.89792253466E+03  0.12226984427E+04  0.93308592301E+02 0.  0.
         23    2    4    4    0    0 -0.12551492423E+04 -0.33357479592E+03 -0.17838520677E+04  0.22085480645E+04  0.94258097801E+02 0.  0.
          2    1    3    3  502    0  0.39047797692E+03  0.18055467441E+03  0.20133899053E+03  0.47498466293E+03  0.00000000000E+00 0.  1.
         -2    1    3    3    0  502  0.14489306791E+04  0.73496603630E+03  0.94964733328E+03  0.18818621748E+04  0.00000000000E+00 0. -1.
         15    1    5    5    0    0 -0.52164983861E+03 -0.54556930441E+03 -0.78925798813E+03  0.10921061073E+04  0.17770000000E+01 0. -1.
        -15    1    5    5    0    0 -0.62609575073E+02 -0.36376610374E+02 -0.10866454653E+03  0.13059233544E+03  0.17770000000E+01 0.  1.
          4    1    6    6  503    0 -0.99985499208E+03 -0.29214779306E+03 -0.13806408104E+04  0.17295170961E+04  0.00000000000E+00 0. -1.
         -4    1    6    6    0  503 -0.25529425026E+03 -0.41427002865E+02 -0.40321125722E+03  0.47903096845E+03  0.00000000000E+00 0.  1.
<mgrwt>
<rscale>  0 0.20912177E+04</rscale>
<asrwt>0</asrwt>
<pdfrwt beam="1">  1        1 0.56299089E+00 0.20912177E+04</pdfrwt>
<pdfrwt beam="2">  1       -1 0.32748501E+00 0.20912177E+04</pdfrwt>
<totfact> 0.35590719E-03</totfact>
</mgrwt>
</event>
<event>
12    1  0.9321077E-008  0.7408534E+03  0.7818608E-02  0.9649810E-01
         -2   -1    0    0    0  501 -0.00000000000E+00  0.00000000000E+00  0.22931738655E+03  0.22931738655E+03  0.00000000000E+00 0. -1.
          2   -1    0    0  501    0  0.00000000000E+00 -0.00000000000E+00 -0.29759057778E+04  0.29759057778E+04  0.00000000000E+00 0.  1.
         23    2    1    2    0    0  0.10367450448E+02 -0.66418050937E+03 -0.68779814270E+03  0.96027792414E+03  0.88454357832E+02 0.  0.
    5000000    2    1    2    0    0 -0.10367450448E+02  0.66418050937E+03 -0.20587902485E+04  0.22449452402E+04  0.59993217202E+03 0.  0.
         23    2    4    4    0    0  0.22955665014E+03  0.34295965594E+03 -0.14511575664E+04  0.15114675828E+04  0.91424231362E+02 0.  0.
         23    2    4    4    0    0 -0.23992410058E+03  0.32122085343E+03 -0.60763268210E+03  0.73347765739E+03  0.89585639529E+02 0.  0.
          2    1    3    3  502    0  0.66190640865E+01 -0.52676481197E+02 -0.25689723096E+02  0.58979535039E+02  0.00000000000E+00 0. -1.
         -2    1    3    3    0  502  0.37483863619E+01 -0.61150402817E+03 -0.66210841961E+03  0.90129838910E+03  0.00000000000E+00 0.  1.
         15    1    5    5    0    0  0.12227632093E+03  0.22913710068E+03 -0.10286769135E+04  0.10609593110E+04  0.17770000000E+01 0. -1.
        -15    1    5    5    0    0  0.10728032921E+03  0.11382255526E+03 -0.42248065298E+03  0.45050827184E+03  0.17770000000E+01 0.  1.
          3    1    6    6  503    0 -0.25073710716E+02  0.35604420757E+02 -0.12883537315E+03  0.13599602613E+03  0.00000000000E+00 0. -1.
         -3    1    6    6    0  503 -0.21485038987E+03  0.28561643267E+03 -0.47879730895E+03  0.59748163126E+03  0.00000000000E+00 0.  1.
<mgrwt>
<rscale>  0 0.74085340E+03</rscale>
<asrwt>0</asrwt>
<pdfrwt beam="1">  1        2 0.45783162E+00 0.74085340E+03</pdfrwt>
<pdfrwt beam="2">  1       -2 0.35279601E-01 0.74085340E+03</pdfrwt>
<totfact> 0.14444616E+01</totfact>
</mgrwt>
</event>
<event>
12    1  0.9321077E-008  0.4607073E+03  0.7818608E-02  0.1024576E+00
          1   -1    0    0  501    0  0.00000000000E+00  0.00000000000E+00  0.67222157778E+03  0.67222157778E+03  0.00000000000E+00 0. -1.
         -1   -1    0    0    0  501 -0.00000000000E+00 -0.00000000000E+00 -0.42127331032E+03  0.42127331032E+03  0.00000000000E+00 0.  1.
         23    2    1    2    0    0 -0.20592681630E+02 -0.35204714715E+03  0.44244345618E+02  0.36749544522E+03  0.93456341620E+02 0.  0.
    5000000    2    1    2    0    0  0.20592681630E+02  0.35204714715E+03  0.20670392184E+03  0.72599944288E+03  0.59998952274E+03 0.  0.
         23    2    4    4    0    0  0.21268686291E+03  0.90212316186E+02  0.28639739824E+03  0.37910294297E+03  0.91222848065E+02 0.  0.
         23    2    4    4    0    0 -0.19209418128E+03  0.26183483096E+03 -0.79693476396E+02  0.34689649990E+03  0.92349760585E+02 0.  0.
          4    1    3    3  502    0 -0.46543922948E+02 -0.27205092189E+03  0.58660331973E+02  0.28216852307E+03  0.00000000000E+00 0. -1.
         -4    1    3    3    0  502  0.25951241318E+02 -0.79996225255E+02 -0.14415986355E+02  0.85326922150E+02  0.00000000000E+00 0.  1.
         15    1    5    5    0    0  0.16605218455E+02  0.24604321258E+02  0.86631267736E+02  0.91592795475E+02  0.17770000000E+01 0.  1.
        -15    1    5    5    0    0  0.19608164445E+03  0.65607994927E+02  0.19976613050E+03  0.28751014750E+03  0.17770000000E+01 0. -1.
          4    1    6    6  503    0 -0.49665943217E+02  0.72279678958E+02 -0.65335878909E+02  0.10936103044E+03  0.00000000000E+00 0. -1.
         -4    1    6    6    0  503 -0.14242823806E+03  0.18955515200E+03 -0.14357597486E+02  0.23753546946E+03  0.00000000000E+00 0.  1.
<mgrwt>
<rscale>  0 0.46070732E+03</rscale>
<asrwt>0</asrwt>
<pdfrwt beam="1">  1        1 0.10341870E+00 0.46070732E+03</pdfrwt>
<pdfrwt beam="2">  1       -1 0.64811279E-01 0.46070732E+03</pdfrwt>
<totfact> 0.73452871E+01</totfact>
</mgrwt>
</event>
<event>
12    1  0.9321077E-008  0.9341579E+03  0.7818608E-02  0.9383862E-01
          2   -1    0    0  501    0  0.00000000000E+00  0.00000000000E+00  0.49504438173E+04  0.49504438173E+04  0.00000000000E+00 0. -1.
         -2   -1    0    0    0  501 -0.00000000000E+00 -0.00000000000E+00 -0.66910012809E+03  0.66910012809E+03  0.00000000000E+00 0.  1.
         23    2    1    2    0    0 -0.54645543464E+03  0.71424745319E+03  0.44361659048E+04  0.45274475397E+04  0.97212773652E+02 0.  0.
    5000000    2    1    2    0    0  0.54645543464E+03 -0.71424745319E+03 -0.15482221553E+03  0.10920964057E+04  0.59995139351E+03 0.  0.
         23    2    4    4    0    0 -0.38076759312E+02 -0.11470264522E+03 -0.19673652408E+03  0.24873521510E+03  0.92506274945E+02 0.  0.
         23    2    4    4    0    0  0.58453219395E+03 -0.59954480798E+03  0.41914308552E+02  0.84336119064E+03  0.91484567428E+02 0.  0.
          1    1    3    3  502    0 -0.22890308678E+03  0.37580658067E+03  0.22287260635E+04  0.22717497827E+04  0.00000000000E+00 0. -1.
         -1    1    3    3    0  502 -0.31755234786E+03  0.33844087253E+03  0.22074398412E+04  0.22556977569E+04  0.00000000000E+00 0.  1.
         15    1    5    5    0    0 -0.37777791135E+02 -0.73112408439E+02 -0.18933302781E+03  0.20645275227E+03  0.17770000000E+01 0. -1.
        -15    1    5    5    0    0 -0.29896817754E+00 -0.41590236777E+02 -0.74034962731E+01  0.42282462833E+02  0.17770000000E+01 0.  1.
          3    1    6    6  503    0  0.29373687136E+03 -0.25137850821E+03 -0.10161222106E+02  0.38675024812E+03  0.00000000000E+00 0.  1.
         -3    1    6    6    0  503  0.29079532259E+03 -0.34816629977E+03  0.52075530658E+02  0.45661094252E+03  0.00000000000E+00 0. -1.
<mgrwt>
<rscale>  0 0.93415792E+03</rscale>
<asrwt>0</asrwt>
<pdfrwt beam="1">  1        2 0.76160672E+00 0.93415792E+03</pdfrwt>
<pdfrwt beam="2">  1       -2 0.10293848E+00 0.93415792E+03</pdfrwt>
<totfact> 0.34074287E-02</totfact>
</mgrwt>
</event>
<event>
12    1  0.9321077E-008  0.7029534E+03  0.7818608E-02  0.9712195E-01
          1   -1    0    0  501    0  0.00000000000E+00  0.00000000000E+00  0.11418524148E+04  0.11418524148E+04  0.00000000000E+00 0. -1.
         -1   -1    0    0    0  501 -0.00000000000E+00 -0.00000000000E+00 -0.11309126333E+04  0.11309126333E+04  0.00000000000E+00 0.  1.
         23    2    1    2    0    0 -0.38455754376E+03 -0.52475670937E+03 -0.82589373677E+03  0.10548271873E+04  0.85474101916E+02 0.  0.
    5000000    2    1    2    0    0  0.38455754376E+03  0.52475670937E+03  0.83683351829E+03  0.12179378608E+04  0.59985680534E+03 0.  0.
         23    2    4    4    0    0  0.14499399014E+03  0.46578109305E+03  0.81526294802E+03  0.95441286955E+03  0.90966847345E+02 0.  0.
         23    2    4    4    0    0  0.23956355362E+03  0.58975616314E+02  0.21570570269E+02  0.26352499124E+03  0.90062822306E+02 0.  0.
          1    1    3    3  502    0 -0.81405589718E+02 -0.15342295601E+03 -0.26697767376E+03  0.31850047372E+03  0.00000000000E+00 0. -1.
         -1    1    3    3    0  502 -0.30315195405E+03 -0.37133375336E+03 -0.55891606301E+03  0.73632671357E+03  0.00000000000E+00 0.  1.
         15    1    5    5    0    0  0.82718527318E+02  0.34722830756E+03  0.65134458090E+03  0.74274004411E+03  0.17770000000E+01 0. -1.
        -15    1    5    5    0    0  0.62275462823E+02  0.11855278550E+03  0.16391836713E+03  0.21167282544E+03  0.17770000000E+01 0.  1.
          4    1    6    6  503    0  0.42826892225E+02  0.48882924040E+02 -0.26645618643E+01  0.65044468253E+02  0.00000000000E+00 0. -1.
         -4    1    6    6    0  503  0.19673666140E+03  0.10092692274E+02  0.24235132134E+02  0.19848052299E+03  0.00000000000E+00 0.  1.
<mgrwt>
<rscale>  0 0.70295344E+03</rscale>
<asrwt>0</asrwt>
<pdfrwt beam="1">  1        1 0.17566960E+00 0.70295344E+03</pdfrwt>
<pdfrwt beam="2">  1       -1 0.17398656E+00 0.70295344E+03</pdfrwt>
<totfact> 0.28506249E+00</totfact>
</mgrwt>
</event>
<event>
12    1  0.9321077E-008  0.6701532E+03  0.7818608E-02  0.9769681E-01
         -1   -1    0    0    0  501 -0.00000000000E+00  0.00000000000E+00  0.52265848807E+03  0.52265848807E+03  0.00000000000E+00 0.  1.
          1   -1    0    0  501    0  0.00000000000E+00 -0.00000000000E+00 -0.95906891836E+03  0.95906891836E+03  0.00000000000E+00 0. -1.
         23    2    1    2    0    0 -0.32167749890E+03  0.42969133509E+03 -0.40071461982E+03  0.67587631644E+03  0.90141731965E+02 0.  0.
    5000000    2    1    2    0    0  0.32167749890E+03 -0.42969133509E+03 -0.35695810482E+02  0.80585108999E+03  0.60000894294E+03 0.  0.
         23    2    4    4    0    0  0.48199666752E+03 -0.26282228680E+03 -0.14141047069E+02  0.55622001452E+03  0.88229209505E+02 0.  0.
         23    2    4    4    0    0 -0.16031916861E+03 -0.16686904829E+03 -0.21554763413E+02  0.24963107547E+03  0.91123821859E+02 0.  0.
          3    1    3    3  502    0 -0.23147834970E+03  0.25159283752E+03 -0.21964369467E+03  0.40635518316E+03  0.00000000000E+00 0. -1.
         -3    1    3    3    0  502 -0.90199149203E+02  0.17809849757E+03 -0.18107092515E+03  0.26952113329E+03  0.00000000000E+00 0.  1.
         15    1    5    5    0    0  0.58325748127E+02 -0.66295637817E+01  0.13776936620E+02  0.60322514223E+02  0.17770000000E+01 0. -1.
        -15    1    5    5    0    0  0.42367091939E+03 -0.25619272301E+03 -0.27917983689E+02  0.49589750030E+03  0.17770000000E+01 0.  1.
          1    1    6    6  503    0 -0.81614032420E+02 -0.13950546673E+03  0.63692181862E+01  0.16175040178E+03  0.00000000000E+00 0. -1.
         -1    1    6    6    0  503 -0.78705136194E+02 -0.27363581559E+02 -0.27923981599E+02  0.87880673686E+02  0.00000000000E+00 0.  1.
<mgrwt>
<rscale>  0 0.67015320E+03</rscale>
<asrwt>0</asrwt>
<pdfrwt beam="1">  1        1 0.14754906E+00 0.67015320E+03</pdfrwt>
<pdfrwt beam="2">  1       -1 0.80408999E-01 0.67015320E+03</pdfrwt>
<totfact> 0.26092359E+01</totfact>
</mgrwt>
</event>
<event>
12    1  0.9321077E-008  0.1837351E+04  0.7818608E-02  0.8686685E-01
          2   -1    0    0  501    0  0.00000000000E+00  0.00000000000E+00  0.34679154842E+04  0.34679154842E+04  0.00000000000E+00 0. -1.
         -2   -1    0    0    0  501 -0.00000000000E+00 -0.00000000000E+00 -0.10224960475E+04  0.10224960475E+04  0.00000000000E+00 0.  1.
         23    2    1    2    0    0 -0.12331147279E+04  0.13565069356E+04  0.11250192055E+04  0.21528236719E+04  0.91096383104E+02 0.  0.
    5000000    2    1    2    0    0  0.12331147279E+04 -0.13565069356E+04  0.13204002312E+04  0.23375878598E+04  0.60014767608E+03 0.  0.
         23    2    4    4    0    0  0.89681197131E+03 -0.92760312155E+03  0.12154925308E+04  0.17748862748E+04  0.89888448246E+02 0.  0.
         23    2    4    4    0    0  0.33630275656E+03 -0.42890381410E+03  0.10490770041E+03  0.56270158497E+03  0.92571174265E+02 0.  0.
          4    1    3    3  502    0 -0.10332143079E+04  0.11727666571E+04  0.93308529201E+03  0.18203190930E+04  0.00000000000E+00 0.  1.
         -4    1    3    3    0  502 -0.19990041996E+03  0.18374027852E+03  0.19193391348E+03  0.33250457891E+03  0.00000000000E+00 0. -1.
         15    1    5    5    0    0  0.67395213982E+03 -0.66073078952E+03  0.84520013311E+03  0.12669424161E+04  0.17770000000E+01 0.  1.
        -15    1    5    5    0    0  0.22285983149E+03 -0.26687233203E+03  0.37029239764E+03  0.50794385869E+03  0.17770000000E+01 0. -1.
          3    1    6    6  503    0  0.29797550183E+02 -0.73929439120E+02 -0.85980579470E+01  0.80170958370E+02  0.00000000000E+00 0. -1.
         -3    1    6    6    0  503  0.30650520637E+03 -0.35497437498E+03  0.11350575835E+03  0.48253062660E+03  0.00000000000E+00 0.  1.
<mgrwt>
<rscale>  0 0.18373507E+04</rscale>
<asrwt>0</asrwt>
<pdfrwt beam="1">  1        2 0.53352545E+00 0.18373507E+04</pdfrwt>
<pdfrwt beam="2">  1       -2 0.15730709E+00 0.18373507E+04</pdfrwt>
<totfact> 0.20677126E-01</totfact>
</mgrwt>
</event>
<event>
12    1  0.9321077E-008  0.2383638E+03  0.7818608E-02  0.1120888E+00
         -1   -1    0    0    0  501 -0.00000000000E+00  0.00000000000E+00  0.26493401046E+03  0.26493401046E+03  0.00000000000E+00 0.  1.
          1   -1    0    0  501    0  0.00000000000E+00 -0.00000000000E+00 -0.98951465788E+03  0.98951465788E+03  0.00000000000E+00 0. -1.
         23    2    1    2    0    0  0.67124769765E+02  0.16718490404E+03 -0.57663256793E+03  0.61075089133E+03  0.89749685276E+02 0.  0.
    5000000    2    1    2    0    0 -0.67124769765E+02 -0.16718490404E+03 -0.14794807949E+03  0.64369777702E+03  0.60000138922E+03 0.  0.
         23    2    4    4    0    0 -0.49913431179E+02 -0.19721201059E+02 -0.35633366569E+03  0.37199929557E+03  0.92355390863E+02 0.  0.
         23    2    4    4    0    0 -0.17211338586E+02 -0.14746370298E+03  0.20838558619E+03  0.27169848145E+03  0.91398787819E+02 0.  0.
          1    1    3    3  502    0  0.87937352705E+02  0.11304842211E+03 -0.41665838138E+03  0.44058725641E+03  0.00000000000E+00 0. -1.
         -1    1    3    3    0  502 -0.20812582940E+02  0.54136481934E+02 -0.15997418655E+03  0.17016363491E+03  0.00000000000E+00 0.  1.
         15    1    5    5    0    0 -0.38682809857E+02 -0.53774709398E+02 -0.27864513572E+03  0.28641639013E+03  0.17770000000E+01 0. -1.
        -15    1    5    5    0    0 -0.11230621322E+02  0.34053508340E+02 -0.77688529969E+02  0.85582905439E+02  0.17770000000E+01 0.  1.
          1    1    6    6  503    0 -0.53684861999E+02 -0.99753106265E+02  0.14969770284E+03  0.18772892386E+03  0.00000000000E+00 0. -1.
         -1    1    6    6    0  503  0.36473523413E+02 -0.47710596719E+02  0.58687883354E+02  0.83969557591E+02  0.00000000000E+00 0.  1.
<mgrwt>
<rscale>  0 0.23836377E+03</rscale>
<asrwt>0</asrwt>
<pdfrwt beam="1">  1        1 0.15223303E+00 0.23836377E+03</pdfrwt>
<pdfrwt beam="2">  1       -1 0.40759078E-01 0.23836377E+03</pdfrwt>
<totfact> 0.99272115E+01</totfact>
</mgrwt>
</event>
<event>
12    1  0.9321077E-008  0.9481487E+03  0.7818608E-02  0.9367317E-01
          2   -1    0    0  501    0  0.00000000000E+00  0.00000000000E+00  0.22224244724E+04  0.22224244724E+04  0.00000000000E+00 0. -1.
         -2   -1    0    0    0  501 -0.00000000000E+00 -0.00000000000E+00 -0.46055770183E+03  0.46055770183E+03  0.00000000000E+00 0.  1.
         23    2    1    2    0    0  0.24745327013E+03 -0.82928023451E+03  0.38978112402E+03  0.95337565980E+03  0.89760769886E+02 0.  0.
    5000000    2    1    2    0    0 -0.24745327013E+03  0.82928023451E+03  0.13720856465E+04  0.17296065144E+04  0.59998403731E+03 0.  0.
         23    2    4    4    0    0 -0.36932079259E+03  0.82081696930E+03  0.11866352533E+04  0.14921893289E+04  0.91582881200E+02 0.  0.
         23    2    4    4    0    0  0.12186752245E+03  0.84632652152E+01  0.18545039329E+03  0.23741718551E+03  0.83974708790E+02 0.  0.
          3    1    3    3  502    0  0.20358212776E+03 -0.53818062419E+03  0.24659774236E+03  0.62601478699E+03  0.00000000000E+00 0. -1.
         -3    1    3    3    0  502  0.43871142371E+02 -0.29109961033E+03  0.14318338167E+03  0.32736087281E+03  0.00000000000E+00 0.  1.
         15    1    5    5    0    0 -0.26787644731E+03  0.67819266561E+03  0.93669792454E+03  0.11870590728E+04  0.17770000000E+01 0. -1.
        -15    1    5    5    0    0 -0.10144434528E+03  0.14262430369E+03  0.24993732872E+03  0.30513025613E+03  0.17770000000E+01 0.  1.
          1    1    6    6  503    0  0.28847302126E+02 -0.46448913295E+00  0.11977128422E+03  0.12319717169E+03  0.00000000000E+00 0. -1.
         -1    1    6    6    0  503  0.93020220329E+02  0.89277543482E+01  0.65679109073E+02  0.11422001382E+03  0.00000000000E+00 0.  1.
<mgrwt>
<rscale>  0 0.94814872E+03</rscale>
<asrwt>0</asrwt>
<pdfrwt beam="1">  1        2 0.34191145E+00 0.94814872E+03</pdfrwt>
<pdfrwt beam="2">  1       -2 0.70855032E-01 0.94814872E+03</pdfrwt>
<totfact> 0.91927900E+00</totfact>
</mgrwt>
</event>
<event>
12    1  0.9321077E-008  0.8103037E+03  0.7818608E-02  0.9545221E-01
         -1   -1    0    0    0  501 -0.00000000000E+00  0.00000000000E+00  0.18646130394E+03  0.18646130394E+03  0.00000000000E+00 0.  1.
          1   -1    0    0  501    0  0.00000000000E+00 -0.00000000000E+00 -0.37268796787E+04  0.37268796787E+04  0.00000000000E+00 0. -1.
         23    2    1    2    0    0  0.28381912595E+03 -0.66241964413E+03 -0.14200222781E+04  0.15947787264E+04  0.86618904621E+02 0.  0.
    5000000    2    1    2    0    0 -0.28381912595E+03  0.66241964413E+03 -0.21203960966E+04  0.23185622562E+04  0.60024848874E+03 0.  0.
         23    2    4    4    0    0 -0.39958773381E+03  0.26988302299E+03 -0.86198726761E+03  0.99181365083E+03  0.90360751194E+02 0.  0.
         23    2    4    4    0    0  0.11576860786E+03  0.39253662114E+03 -0.12584088290E+04  0.13267486054E+04  0.95821247455E+02 0.  0.
          4    1    3    3  502    0  0.52478697685E+02 -0.14836038813E+03 -0.39071819006E+03  0.42121909088E+03  0.00000000000E+00 0. -1.
         -4    1    3    3    0  502  0.23134042826E+03 -0.51405925600E+03 -0.10293040880E+04  0.11735596355E+04  0.00000000000E+00 0.  1.
         15    1    5    5    0    0 -0.21919793090E+03  0.18884468535E+03 -0.56884839994E+03  0.63820193351E+03  0.17770000000E+01 0.  1.
        -15    1    5    5    0    0 -0.18038980291E+03  0.81038337635E+02 -0.29313886766E+03  0.35361171732E+03  0.17770000000E+01 0. -1.
          3    1    6    6  503    0  0.73904315017E+02  0.16121998408E+03 -0.67116697261E+03  0.69420374255E+03  0.00000000000E+00 0. -1.
         -3    1    6    6    0  503  0.41864292841E+02  0.23131663706E+03 -0.58724185641E+03  0.63254486285E+03  0.00000000000E+00 0.  1.
<mgrwt>
<rscale>  0 0.81030375E+03</rscale>
<asrwt>0</asrwt>
<pdfrwt beam="1">  1        1 0.57336606E+00 0.81030375E+03</pdfrwt>
<pdfrwt beam="2">  1       -1 0.28686357E-01 0.81030375E+03</pdfrwt>
<totfact> 0.19514121E+00</totfact>
</mgrwt>
</event>
<event>
12    1  0.9321077E-008  0.1079602E+04  0.7818608E-02  0.9225304E-01
          2   -1    0    0  501    0  0.00000000000E+00  0.00000000000E+00  0.22822206471E+04  0.22822206471E+04  0.00000000000E+00 0. -1.
         -2   -1    0    0    0  501 -0.00000000000E+00 -0.00000000000E+00 -0.67801924485E+03  0.67801924485E+03  0.00000000000E+00 0.  1.
         23    2    1    2    0    0  0.55358370631E+03 -0.92238866041E+03  0.13030680296E+04  0.16922056561E+04  0.91202697201E+02 0.  0.
    5000000    2    1    2    0    0 -0.55358370631E+03  0.92238866041E+03  0.30113337274E+03  0.12680342360E+04  0.59997812845E+03 0.  0.
         23    2    4    4    0    0 -0.20931127921E+03  0.31084727765E+03  0.39846390660E+03  0.55374599671E+03  0.86162070435E+02 0.  0.
         23    2    4    4    0    0 -0.34427242711E+03  0.61154138276E+03 -0.97330533861E+02  0.71428823924E+03  0.90708814407E+02 0.  0.
          1    1    3    3  502    0  0.57206208897E+02 -0.14068209800E+03  0.21878589755E+03  0.26632925487E+03  0.00000000000E+00 0. -1.
         -1    1    3    3    0  502  0.49637749742E+03 -0.78170656240E+03  0.10842821320E+04  0.14258764012E+04  0.00000000000E+00 0.  1.
         15    1    5    5    0    0 -0.45941212153E+02  0.94504753820E+02  0.63384022477E+02  0.12272911432E+03  0.17770000000E+01 0.  1.
        -15    1    5    5    0    0 -0.16337006705E+03  0.21634252383E+03  0.33507988412E+03  0.43101688238E+03  0.17770000000E+01 0. -1.
          1    1    6    6  503    0 -0.14785279907E+02  0.67591168469E+02 -0.27702415651E+02  0.74529151275E+02  0.00000000000E+00 0. -1.
         -1    1    6    6    0  503 -0.32948714720E+03  0.54395021429E+03 -0.69628118210E+02  0.63975908797E+03  0.00000000000E+00 0.  1.
<mgrwt>
<rscale>  0 0.10796019E+04</rscale>
<asrwt>0</asrwt>
<pdfrwt beam="1">  1        2 0.35111086E+00 0.10796019E+04</pdfrwt>
<pdfrwt beam="2">  1       -2 0.10431065E+00 0.10796019E+04</pdfrwt>
<totfact> 0.34452469E+00</totfact>
</mgrwt>
</event>
<event>
12    1  0.9321077E-008  0.8536440E+03  0.7818608E-02  0.9485459E-01
          2   -1    0    0  501    0  0.00000000000E+00  0.00000000000E+00  0.28014206171E+04  0.28014206171E+04  0.00000000000E+00 0.  1.
         -2   -1    0    0    0  501 -0.00000000000E+00 -0.00000000000E+00 -0.10243741425E+04  0.10243741425E+04  0.00000000000E+00 0. -1.
         23    2    1    2    0    0 -0.72894400648E+03  0.30734073926E+03  0.24831162676E+04  0.26077131487E+04  0.92107397869E+02 0.  0.
    5000000    2    1    2    0    0  0.72894400648E+03 -0.30734073926E+03 -0.70606979299E+03  0.12180816109E+04  0.59947524017E+03 0.  0.
         23    2    4    4    0    0  0.54493405964E+03 -0.42764074305E+03 -0.68956519538E+03  0.98164452822E+03  0.91082855897E+02 0.  0.
         23    2    4    4    0    0  0.18400994685E+03  0.12030000379E+03 -0.16504597613E+02  0.23643708265E+03  0.85430327531E+02 0.  0.
          3    1    3    3  502    0 -0.23006982621E+03  0.66033013158E+02  0.85472499525E+03  0.88760762799E+03  0.00000000000E+00 0. -1.
         -3    1    3    3    0  502 -0.49887418027E+03  0.24130772610E+03  0.16283912723E+04  0.17201055207E+04  0.00000000000E+00 0.  1.
         15    1    5    5    0    0  0.40891918383E+03 -0.30970289972E+03 -0.56256234801E+03  0.76132144205E+03  0.17770000000E+01 0.  1.
        -15    1    5    5    0    0  0.13601487581E+03 -0.11793784333E+03 -0.12700284737E+03  0.22032308617E+03  0.17770000000E+01 0. -1.
          3    1    6    6  503    0  0.27047748562E+02  0.96599909687E+01  0.27125771260E+02  0.39505741282E+02  0.00000000000E+00 0. -1.
         -3    1    6    6    0  503  0.15696219828E+03  0.11064001282E+03 -0.43630368873E+02  0.19693134137E+03  0.00000000000E+00 0.  1.
<mgrwt>
<rscale>  0 0.85364396E+03</rscale>
<asrwt>0</asrwt>
<pdfrwt beam="1">  1        2 0.43098778E+00 0.85364396E+03</pdfrwt>
<pdfrwt beam="2">  1       -2 0.15759602E+00 0.85364396E+03</pdfrwt>
<totfact> 0.62975068E-01</totfact>
</mgrwt>
</event>
<event>
12    1  0.1013382E-007  0.7551248E+03  0.7818608E-02  0.9627345E-01
         -1   -1    0    0    0  501 -0.00000000000E+00  0.00000000000E+00  0.34708239806E+03  0.34708239806E+03  0.00000000000E+00 0.  1.
          1   -1    0    0  501    0  0.00000000000E+00 -0.00000000000E+00 -0.20865184394E+04  0.20865184394E+04  0.00000000000E+00 0. -1.
         23    2    1    2    0    0  0.68640761964E+03 -0.18914862049E+03 -0.46471411362E+03  0.85504367374E+03  0.90597216723E+02 0.  0.
    5000000    2    1    2    0    0 -0.68640761964E+03  0.18914862049E+03 -0.12747219277E+04  0.15785571637E+04  0.59999508760E+03 0.  0.
         23    2    4    4    0    0 -0.17135286053E+03  0.20444741222E+03 -0.11016436977E+03  0.30188779682E+03  0.88540986717E+02 0.  0.
         23    2    4    4    0    0 -0.51505475911E+03 -0.15298791726E+02 -0.11645575579E+04  0.12766693669E+04  0.90415201432E+02 0.  0.
          2    1    3    3  502    0  0.34053546113E+03 -0.46932724566E+02 -0.22039513191E+03  0.40833943612E+03  0.00000000000E+00 0. -1.
         -2    1    3    3    0  502  0.34587215851E+03 -0.14221589593E+03 -0.24431898171E+03  0.44670423762E+03  0.00000000000E+00 0.  1.
         15    1    5    5    0    0 -0.58002093175E+02  0.99597939423E+02 -0.56165290728E+01  0.11540665266E+03  0.17770000000E+01 0. -1.
        -15    1    5    5    0    0 -0.11335076736E+03  0.10484947280E+03 -0.10454784069E+03  0.18648114416E+03  0.17770000000E+01 0.  1.
          3    1    6    6  503    0 -0.13739804510E+03 -0.43526880782E+02 -0.34117970000E+03  0.37037332496E+03  0.00000000000E+00 0. -1.
         -3    1    6    6    0  503 -0.37765671400E+03  0.28228089056E+02 -0.82337785792E+03  0.90629604189E+03  0.00000000000E+00 0.  1.
<mgrwt>
<rscale>  0 0.75512477E+03</rscale>
<asrwt>0</asrwt>
<pdfrwt beam="1">  1        1 0.32100284E+00 0.75512477E+03</pdfrwt>
<pdfrwt beam="2">  1       -1 0.53397292E-01 0.75512477E+03</pdfrwt>
<totfact> 0.96381637E+00</totfact>
</mgrwt>
</event>
<event>
12    1  0.9321077E-008  0.7113604E+03  0.7818608E-02  0.9697999E-01
         -1   -1    0    0    0  501 -0.00000000000E+00  0.00000000000E+00  0.29314205829E+04  0.29314205829E+04  0.00000000000E+00 0.  1.
          1   -1    0    0  501    0  0.00000000000E+00 -0.00000000000E+00 -0.18708033693E+03  0.18708033693E+03  0.00000000000E+00 0. -1.
         23    2    1    2    0    0 -0.12751927509E+02  0.61337879956E+03  0.10504416860E+04  0.12196209129E+04  0.87471550878E+02 0.  0.
    5000000    2    1    2    0    0  0.12751927509E+02 -0.61337879956E+03  0.16938985599E+04  0.18988800068E+04  0.60004731947E+03 0.  0.
         23    2    4    4    0    0 -0.13975194954E+03 -0.62653885233E+03  0.10773053960E+04  0.12570141967E+04  0.86117557209E+02 0.  0.
         23    2    4    4    0    0  0.15250387705E+03  0.13160052763E+02  0.61659316394E+03  0.64186581011E+03  0.91509392218E+02 0.  0.
          3    1    3    3  502    0 -0.19638243876E+02  0.50834732663E+03  0.80119690361E+03  0.94906224425E+03  0.00000000000E+00 0. -1.
         -3    1    3    3    0  502  0.68863163674E+01  0.10503147294E+03  0.24924478236E+03  0.27055866868E+03  0.00000000000E+00 0.  1.
         15    1    5    5    0    0 -0.22730926319E+02 -0.28814372528E+03  0.50775015790E+03  0.58425754766E+03  0.17770000000E+01 0. -1.
        -15    1    5    5    0    0 -0.11702102322E+03 -0.33839512705E+03  0.56955523811E+03  0.67275664907E+03  0.17770000000E+01 0.  1.
          3    1    6    6  503    0  0.32654992665E+02 -0.18685832603E+02  0.29160591855E+03  0.29402299335E+03  0.00000000000E+00 0. -1.
         -3    1    6    6    0  503  0.11984888438E+03  0.31845885366E+02  0.32498724539E+03  0.34784281676E+03  0.00000000000E+00 0.  1.
<mgrwt>
<rscale>  0 0.71136039E+03</rscale>
<asrwt>0</asrwt>
<pdfrwt beam="1">  1        1 0.28781592E-01 0.71136039E+03</pdfrwt>
<pdfrwt beam="2">  1       -1 0.45098775E+00 0.71136039E+03</pdfrwt>
<totfact> 0.55599614E-01</totfact>
</mgrwt>
</event>
<event>
12    1  0.1069264E-007  0.6750921E+03  0.7818608E-02  0.9760802E-01
          1   -1    0    0  501    0  0.00000000000E+00  0.00000000000E+00  0.16637852589E+04  0.16637852589E+04  0.00000000000E+00 0. -1.
         -1   -1    0    0    0  501 -0.00000000000E+00 -0.00000000000E+00 -0.36285561724E+03  0.36285561724E+03  0.00000000000E+00 0.  1.
         23    2    1    2    0    0  0.51232611361E+03 -0.37346746327E+03  0.32853925156E+03  0.71993187474E+03  0.91694447215E+02 0.  0.
    5000000    2    1    2    0    0 -0.51232611361E+03  0.37346746327E+03  0.97239039011E+03  0.13067090014E+04  0.59999112558E+03 0.  0.
         23    2    4    4    0    0 -0.49155954517E+03  0.25806100757E+03  0.34013454200E+03  0.65737982732E+03  0.90721886118E+02 0.  0.
         23    2    4    4    0    0 -0.20766568436E+02  0.11540645570E+03  0.63225584811E+03  0.64932917409E+03  0.90172160218E+02 0.  0.
          3    1    3    3  502    0  0.29045741149E+03 -0.26682390186E+03  0.20484429606E+03  0.44443412123E+03  0.00000000000E+00 0. -1.
         -3    1    3    3    0  502  0.22186870212E+03 -0.10664356141E+03  0.12369495550E+03  0.27549775351E+03  0.00000000000E+00 0.  1.
         15    1    5    5    0    0 -0.26055506279E+03  0.18466879397E+03  0.21054893703E+03  0.38252518456E+03  0.17770000000E+01 0. -1.
        -15    1    5    5    0    0 -0.23100448238E+03  0.73392213601E+02  0.12958560497E+03  0.27485464275E+03  0.17770000000E+01 0.  1.
          1    1    6    6  503    0 -0.53668216469E+02  0.44634691535E+02  0.28836819988E+03  0.29669639676E+03  0.00000000000E+00 0. -1.
         -1    1    6    6    0  503  0.32901648033E+02  0.70771764161E+02  0.34388764823E+03  0.35263277733E+03  0.00000000000E+00 0.  1.
<mgrwt>
<rscale>  0 0.67509213E+03</rscale>
<asrwt>0</asrwt>
<pdfrwt beam="1">  1        1 0.25596696E+00 0.67509213E+03</pdfrwt>
<pdfrwt beam="2">  1       -1 0.55823942E-01 0.67509213E+03</pdfrwt>
<totfact> 0.17181661E+01</totfact>
</mgrwt>
</event>
<event>
12    1  0.9321077E-008  0.1076343E+04  0.7818608E-02  0.9228561E-01
         -1   -1    0    0    0  501 -0.00000000000E+00  0.00000000000E+00  0.97189107962E+03  0.97189107962E+03  0.00000000000E+00 0.  1.
          1   -1    0    0  501    0  0.00000000000E+00 -0.00000000000E+00 -0.13045833358E+04  0.13045833358E+04  0.00000000000E+00 0. -1.
         23    2    1    2    0    0  0.50883585723E+03 -0.90137566465E+03 -0.29153238756E+03  0.10793657149E+04  0.92990295630E+02 0.  0.
    5000000    2    1    2    0    0 -0.50883585723E+03  0.90137566465E+03 -0.41159868577E+02  0.11971087005E+04  0.59998590614E+03 0.  0.
         23    2    4    4    0    0  0.59817623864E+02  0.13114064182E+03  0.13674133959E+03  0.21907149091E+03  0.92293597361E+02 0.  0.
         23    2    4    4    0    0 -0.56865348109E+03  0.77023502283E+03 -0.17790120816E+03  0.97803720958E+03  0.90989952712E+02 0.  0.
          2    1    3    3  502    0  0.42643846611E+03 -0.67914160829E+03 -0.23599086624E+03  0.83592749592E+03  0.00000000000E+00 0. -1.
         -2    1    3    3    0  502  0.82397391121E+02 -0.22223405636E+03 -0.55541521321E+02  0.24343821898E+03  0.00000000000E+00 0.  1.
         15    1    5    5    0    0  0.60916689542E+02  0.13622021670E+03  0.14570022699E+03  0.20856295063E+03  0.17770000000E+01 0. -1.
        -15    1    5    5    0    0 -0.10990656777E+01 -0.50795748765E+01 -0.89588874010E+01  0.10508540277E+02  0.17770000000E+01 0.  1.
          1    1    6    6  503    0 -0.31048377219E+03  0.46668528892E+03 -0.67799259358E+02  0.56461674723E+03  0.00000000000E+00 0. -1.
         -1    1    6    6    0  503 -0.25816970890E+03  0.30354973391E+03 -0.11010194881E+03  0.41342046234E+03  0.00000000000E+00 0.  1.
<mgrwt>
<rscale>  0 0.10763434E+04</rscale>
<asrwt>0</asrwt>
<pdfrwt beam="1">  1        1 0.20070513E+00 0.10763434E+04</pdfrwt>
<pdfrwt beam="2">  1       -1 0.14952171E+00 0.10763434E+04</pdfrwt>
<totfact> 0.31425655E+00</totfact>
</mgrwt>
</event>
<event>
12    1  0.9321077E-008  0.1200443E+04  0.7818608E-02  0.9112469E-01
         -2   -1    0    0    0  501 -0.00000000000E+00  0.00000000000E+00  0.18033902220E+04  0.18033902220E+04  0.00000000000E+00 0.  1.
          2   -1    0    0  501    0  0.00000000000E+00 -0.00000000000E+00 -0.84148781606E+03  0.84148781606E+03  0.00000000000E+00 0. -1.
         23    2    1    2    0    0 -0.11419288415E+04 -0.70293340215E+02  0.26887210359E+03  0.11788410567E+04  0.91822634072E+02 0.  0.
    5000000    2    1    2    0    0  0.11419288415E+04  0.70293340215E+02  0.69303030239E+03  0.14660369814E+04  0.60002566468E+03 0.  0.
         23    2    4    4    0    0  0.89963214411E+03  0.26595577443E+03  0.63718819947E+03  0.11371910034E+04  0.84404430643E+02 0.  0.
         23    2    4    4    0    0  0.24229669736E+03 -0.19566243421E+03  0.55842102919E+02  0.32884597808E+03  0.89609481246E+02 0.  0.
          1    1    3    3  502    0 -0.13758220538E+03 -0.28568318338E+02  0.56430415466E+02  0.15142458135E+03  0.00000000000E+00 0.  1.
         -1    1    3    3    0  502 -0.10043466361E+04 -0.41725021877E+02  0.21244168812E+03  0.10274164753E+04  0.00000000000E+00 0. -1.
         15    1    5    5    0    0  0.48099102375E+03  0.15868931630E+03  0.39066463273E+03  0.63965356016E+03  0.17770000000E+01 0. -1.
        -15    1    5    5    0    0  0.41864112036E+03  0.10726645813E+03  0.24652356674E+03  0.49753744320E+03  0.17770000000E+01 0.  1.
          3    1    6    6  503    0  0.48538841979E+01 -0.21456193934E+02  0.24124707762E+02  0.32648583041E+02  0.00000000000E+00 0. -1.
         -3    1    6    6    0  503  0.23744281316E+03 -0.17420624028E+03  0.31717395156E+02  0.29619739504E+03  0.00000000000E+00 0.  1.
<mgrwt>
<rscale>  0 0.12004434E+04</rscale>
<asrwt>0</asrwt>
<pdfrwt beam="1">  1        2 0.12945966E+00 0.12004434E+04</pdfrwt>
<pdfrwt beam="2">  1       -2 0.27744465E+00 0.12004434E+04</pdfrwt>
<totfact> 0.13737207E+00</totfact>
</mgrwt>
</event>
<event>
12    1  0.9321077E-008  0.1375030E+04  0.7818608E-02  0.8972094E-01
         -2   -1    0    0    0  501 -0.00000000000E+00  0.00000000000E+00  0.64409108731E+03  0.64409108731E+03  0.00000000000E+00 0.  1.
          2   -1    0    0  501    0  0.00000000000E+00 -0.00000000000E+00 -0.32333733946E+04  0.32333733946E+04  0.00000000000E+00 0. -1.
         23    2    1    2    0    0  0.13123369561E+04 -0.39950688712E+03 -0.10480865720E+04  0.17287267315E+04  0.90424611651E+02 0.  0.
    5000000    2    1    2    0    0 -0.13123369561E+04  0.39950688712E+03 -0.15411957352E+04  0.21487377504E+04  0.59996298760E+03 0.  0.
         23    2    4    4    0    0 -0.57777494427E+03  0.22595794359E+03 -0.11110038049E+04  0.12750862169E+04  0.81452609125E+02 0.  0.
         23    2    4    4    0    0 -0.73456201184E+03  0.17354894353E+03 -0.43019193034E+03  0.87365153351E+03  0.92202603158E+02 0.  0.
          2    1    3    3  502    0  0.18587840098E+03 -0.89947875660E+02 -0.15171350506E+03  0.25623892738E+03  0.00000000000E+00 0. -1.
         -2    1    3    3    0  502  0.11264585551E+04 -0.30955901146E+03 -0.89637306695E+03  0.14724878041E+04  0.00000000000E+00 0.  1.
         15    1    5    5    0    0 -0.25663269195E+03  0.93309365496E+02 -0.57123435326E+03  0.63314991933E+03  0.17770000000E+01 0. -1.
        -15    1    5    5    0    0 -0.32114225231E+03  0.13264857810E+03 -0.53976945164E+03  0.64193629758E+03  0.17770000000E+01 0.  1.
          3    1    6    6  503    0 -0.70177222026E+03  0.16693889600E+03 -0.38572325491E+03  0.81800689087E+03  0.00000000000E+00 0. -1.
         -3    1    6    6    0  503 -0.32789791583E+02  0.66100475301E+01 -0.44468675426E+02  0.55644642640E+02  0.00000000000E+00 0.  1.
<mgrwt>
<rscale>  0 0.13750302E+04</rscale>
<asrwt>0</asrwt>
<pdfrwt beam="1">  1        2 0.49744206E+00 0.13750302E+04</pdfrwt>
<pdfrwt beam="2">  1       -2 0.99090936E-01 0.13750302E+04</pdfrwt>
<totfact> 0.10125049E+00</totfact>
</mgrwt>
</event>
<event>
12    1  0.9321077E-008  0.2800066E+03  0.7818608E-02  0.1095685E+00
          1   -1    0    0  501    0  0.00000000000E+00  0.00000000000E+00  0.11419218716E+03  0.11419218716E+03  0.00000000000E+00 0. -1.
         -1   -1    0    0    0  501 -0.00000000000E+00 -0.00000000000E+00 -0.13590550317E+04  0.13590550317E+04  0.00000000000E+00 0.  1.
         23    2    1    2    0    0  0.13833681955E+02  0.13896612021E+03 -0.19078580230E+03  0.25156680977E+03  0.85928366049E+02 0.  0.
    5000000    2    1    2    0    0 -0.13833681955E+02 -0.13896612021E+03 -0.10540770422E+04  0.12216804091E+04  0.60159925006E+03 0.  0.
         23    2    4    4    0    0 -0.13268215713E+03 -0.20491516853E+03 -0.14521134461E+03  0.29827946073E+03  0.91046806527E+02 0.  0.
         23    2    4    4    0    0  0.11884847518E+03  0.65949048311E+02 -0.90886569759E+03  0.92340094833E+03  0.90322854768E+02 0.  0.
          2    1    3    3  502    0  0.20831638296E+01 -0.64005559849E+01  0.43045520897E+01  0.79897344856E+01  0.00000000000E+00 0. -1.
         -2    1    3    3    0  502  0.11750518126E+02  0.14536667620E+03 -0.19509035439E+03  0.24357707528E+03  0.00000000000E+00 0.  1.
         15    1    5    5    0    0 -0.57996070796E+02 -0.13235878951E+03 -0.12733738346E+03  0.19261453825E+03  0.17770000000E+01 0.  1.
        -15    1    5    5    0    0 -0.74686086335E+02 -0.72556379014E+02 -0.17873961149E+02  0.10566492249E+03  0.17770000000E+01 0. -1.
          3    1    6    6  503    0  0.95395887544E+02  0.85609872010E+02 -0.80427866819E+03  0.81442838952E+03  0.00000000000E+00 0. -1.
         -3    1    6    6    0  503  0.23452587631E+02 -0.19660823699E+02 -0.10458702939E+03  0.10897255880E+03  0.00000000000E+00 0.  1.
<mgrwt>
<rscale>  0 0.28000658E+03</rscale>
<asrwt>0</asrwt>
<pdfrwt beam="1">  1        1 0.17568029E-01 0.28000658E+03</pdfrwt>
<pdfrwt beam="2">  1       -1 0.20908538E+00 0.28000658E+03</pdfrwt>
<totfact> 0.44102385E+01</totfact>
</mgrwt>
</event>
<event>
12    1  0.9321077E-008  0.2060854E+04  0.7818608E-02  0.8578686E-01
          2   -1    0    0  501    0  0.00000000000E+00  0.00000000000E+00  0.25058469968E+04  0.25058469968E+04  0.00000000000E+00 0. -1.
         -2   -1    0    0    0  501 -0.00000000000E+00 -0.00000000000E+00 -0.19061539264E+04  0.19061539264E+04  0.00000000000E+00 0.  1.
         23    2    1    2    0    0 -0.48669303519E+03  0.19939606360E+04 -0.32910791295E+03  0.20806489464E+04  0.89659864784E+02 0.  0.
    5000000    2    1    2    0    0  0.48669303519E+03 -0.19939606360E+04  0.92880098334E+03  0.23313519768E+04  0.59981800963E+03 0.  0.
         23    2    4    4    0    0  0.30636486901E+03 -0.16365372370E+04  0.95215577457E+03  0.19200902778E+04  0.89624186014E+02 0.  0.
         23    2    4    4    0    0  0.18032816617E+03 -0.35742339897E+03 -0.23354791227E+02  0.41126169900E+03  0.91219543658E+02 0.  0.
          1    1    3    3  502    0 -0.20777051093E+03  0.10346107212E+04 -0.15808469465E+03  0.10670420330E+04  0.00000000000E+00 0. -1.
         -1    1    3    3    0  502 -0.27892252425E+03  0.95934991478E+03 -0.17102321829E+03  0.10136069133E+04  0.00000000000E+00 0.  1.
         15    1    5    5    0    0  0.77247554324E+02 -0.60264745890E+03  0.31823591988E+03  0.68587783373E+03  0.17770000000E+01 0. -1.
        -15    1    5    5    0    0  0.22911731469E+03 -0.10338897781E+04  0.63391985469E+03  0.12342124440E+04  0.17770000000E+01 0.  1.
          4    1    6    6  503    0  0.80561942947E+02 -0.18134558504E+03 -0.56191223220E+02  0.20623748794E+03  0.00000000000E+00 0. -1.
         -4    1    6    6    0  503  0.99766223223E+02 -0.17607781393E+03  0.32836431992E+02  0.20502421106E+03  0.00000000000E+00 0.  1.
<mgrwt>
<rscale>  0 0.20608543E+04</rscale>
<asrwt>0</asrwt>
<pdfrwt beam="1">  1        2 0.38551492E+00 0.20608543E+04</pdfrwt>
<pdfrwt beam="2">  1       -2 0.29325445E+00 0.20608543E+04</pdfrwt>
<totfact> 0.10645622E-01</totfact>
</mgrwt>
</event>
<event>
12    1  0.9321077E-008  0.9142632E+03  0.7818608E-02  0.9407925E-01
          1   -1    0    0  501    0  0.00000000000E+00  0.00000000000E+00  0.12528416648E+04  0.12528416648E+04  0.00000000000E+00 0. -1.
         -1   -1    0    0    0  501 -0.00000000000E+00 -0.00000000000E+00 -0.96285174832E+03  0.96285174832E+03  0.00000000000E+00 0.  1.
         23    2    1    2    0    0  0.79628712761E+03  0.23406665211E+03 -0.45339551610E+03  0.95009773517E+03  0.90872576372E+02 0.  0.
    5000000    2    1    2    0    0 -0.79628712761E+03 -0.23406665211E+03  0.74338543254E+03  0.12655956779E+04  0.60020840663E+03 0.  0.
         23    2    4    4    0    0 -0.42671706711E+03  0.14799537524E+03  0.20659647715E+03  0.50489130550E+03  0.90791186502E+02 0.  0.
         23    2    4    4    0    0 -0.36957006050E+03 -0.38206202735E+03  0.53678895539E+03  0.76070437240E+03  0.89304743419E+02 0.  0.
          3    1    3    3  502    0  0.14034059540E+03  0.77980284087E+02 -0.80782881388E+02  0.17972835432E+03  0.00000000000E+00 0. -1.
         -3    1    3    3    0  502  0.65594653221E+03  0.15608636802E+03 -0.37261263471E+03  0.77036938085E+03  0.00000000000E+00 0.  1.
         15    1    5    5    0    0 -0.43889950895E+02 -0.18343904580E+01  0.45718379619E+02  0.63427287045E+02  0.17770000000E+01 0. -1.
        -15    1    5    5    0    0 -0.38282711621E+03  0.14982976570E+03  0.16087809753E+03  0.44146401845E+03  0.17770000000E+01 0.  1.
          1    1    6    6  503    0 -0.29767625237E+03 -0.25193750816E+03  0.40096650999E+03  0.55933693010E+03  0.00000000000E+00 0. -1.
         -1    1    6    6    0  503 -0.71893808128E+02 -0.13012451920E+03  0.13582244540E+03  0.20136744229E+03  0.00000000000E+00 0.  1.
<mgrwt>
<rscale>  0 0.91426318E+03</rscale>
<asrwt>0</asrwt>
<pdfrwt beam="1">  1        1 0.19274487E+00 0.91426318E+03</pdfrwt>
<pdfrwt beam="2">  1       -1 0.14813104E+00 0.91426318E+03</pdfrwt>
<totfact> 0.35825107E+00</totfact>
</mgrwt>
</event>
<event>
12    1  0.9321077E-008  0.1197575E+04  0.7818608E-02  0.9114981E-01
         -2   -1    0    0    0  501 -0.00000000000E+00  0.00000000000E+00  0.11902655514E+04  0.11902655514E+04  0.00000000000E+00 0. -1.
          2   -1    0    0  501    0  0.00000000000E+00 -0.00000000000E+00 -0.12560196833E+04  0.12560196833E+04  0.00000000000E+00 0.  1.
         23    2    1    2    0    0  0.62300912225E+03 -0.95615972608E+03 -0.14731198146E+03  0.11543447239E+04  0.91810313290E+02 0.  0.
    5000000    2    1    2    0    0 -0.62300912225E+03  0.95615972608E+03  0.81557849507E+02  0.12919405108E+04  0.60006400686E+03 0.  0.
         23    2    4    4    0    0  0.35983571864E+02 -0.22398812262E+02 -0.22592399011E+02  0.10423400406E+03  0.92508307054E+02 0.  0.
         23    2    4    4    0    0 -0.65899269412E+03  0.97855853835E+03  0.10415024852E+03  0.11877065067E+04  0.89169994560E+02 0.  0.
          1    1    3    3  502    0  0.15180336677E+03 -0.16670759373E+03 -0.33449756458E+02  0.22793545177E+03  0.00000000000E+00 0. -1.
         -1    1    3    3    0  502  0.47120575549E+03 -0.78945213236E+03 -0.11386222500E+03  0.92640927217E+03  0.00000000000E+00 0.  1.
         15    1    5    5    0    0  0.23839330233E+02  0.14963409162E+02 -0.49229465928E+02  0.56735485582E+02  0.17770000000E+01 0. -1.
        -15    1    5    5    0    0  0.12144241631E+02 -0.37362221424E+02  0.26637066916E+02  0.47498518476E+02  0.17770000000E+01 0.  1.
          4    1    6    6  503    0 -0.17357122622E+03  0.32766350308E+03  0.19025123912E+02  0.37128465786E+03  0.00000000000E+00 0. -1.
         -4    1    6    6    0  503 -0.48542146790E+03  0.65089503527E+03  0.85125124606E+02  0.81642184885E+03  0.00000000000E+00 0.  1.
<mgrwt>
<rscale>  0 0.11975754E+04</rscale>
<asrwt>0</asrwt>
<pdfrwt beam="1">  1        2 0.19323380E+00 0.11975754E+04</pdfrwt>
<pdfrwt beam="2">  1       -2 0.18311778E+00 0.11975754E+04</pdfrwt>
<totfact> 0.29407110E+00</totfact>
</mgrwt>
</event>
<event>
12    1  0.9321077E-008  0.7806012E+03  0.7818608E-02  0.9588528E-01
         -2   -1    0    0    0  501 -0.00000000000E+00  0.00000000000E+00  0.11928647364E+04  0.11928647364E+04  0.00000000000E+00 0.  1.
          2   -1    0    0  501    0  0.00000000000E+00 -0.00000000000E+00 -0.61344117109E+03  0.61344117109E+03  0.00000000000E+00 0. -1.
         23    2    1    2    0    0  0.35822484621E+03  0.63157329248E+03  0.69404141284E+02  0.73510405958E+03  0.91384787424E+02 0.  0.
    5000000    2    1    2    0    0 -0.35822484621E+03 -0.63157329248E+03  0.51001942402E+03  0.10712018479E+04  0.60011975626E+03 0.  0.
         23    2    4    4    0    0  0.54805159013E+02 -0.40828386562E+02  0.29082290951E+03  0.31180171167E+03  0.89284825702E+02 0.  0.
         23    2    4    4    0    0 -0.41303000523E+03 -0.59074490592E+03  0.21919651451E+03  0.75940013623E+03  0.95226707658E+02 0.  0.
          3    1    3    3  502    0  0.26633935223E+02  0.31356074010E+02  0.24569377155E+02  0.47918933383E+02  0.00000000000E+00 0. -1.
         -3    1    3    3    0  502  0.33159091099E+03  0.60021721847E+03  0.44834764129E+02  0.68718512620E+03  0.00000000000E+00 0.  1.
         15    1    5    5    0    0  0.64236793436E+02  0.38629838491E+01  0.20031864215E+03  0.21040913573E+03  0.17770000000E+01 0. -1.
        -15    1    5    5    0    0 -0.94316344230E+01 -0.44691370411E+02  0.90504267359E+02  0.10139257594E+03  0.17770000000E+01 0.  1.
          3    1    6    6  503    0 -0.87842897491E+02 -0.18064914435E+03  0.31207170921E+02  0.20328397750E+03  0.00000000000E+00 0. -1.
         -3    1    6    6    0  503 -0.32518710774E+03 -0.41009576157E+03  0.18798934359E+03  0.55611615873E+03  0.00000000000E+00 0.  1.
<mgrwt>
<rscale>  0 0.78060122E+03</rscale>
<asrwt>0</asrwt>
<pdfrwt beam="1">  1        2 0.94375565E-01 0.78060122E+03</pdfrwt>
<pdfrwt beam="2">  1       -2 0.18351765E+00 0.78060122E+03</pdfrwt>
<totfact> 0.83995754E+00</totfact>
</mgrwt>
</event>
<event>
12    1  0.9321077E-008  0.6302533E+03  0.7818608E-02  0.9844555E-01
          1   -1    0    0  501    0  0.00000000000E+00  0.00000000000E+00  0.82878472319E+03  0.82878472319E+03  0.00000000000E+00 0. -1.
         -1   -1    0    0    0  501 -0.00000000000E+00 -0.00000000000E+00 -0.51306299263E+03  0.51306299263E+03  0.00000000000E+00 0.  1.
         23    2    1    2    0    0 -0.32061759444E+03  0.38678371981E+03  0.21086832394E+03  0.55233879202E+03  0.90638862286E+02 0.  0.
    5000000    2    1    2    0    0  0.32061759444E+03 -0.38678371981E+03  0.10485340662E+03  0.78950892380E+03  0.59994401081E+03 0.  0.
         23    2    4    4    0    0  0.39249001697E+03 -0.50077401309E+02 -0.34620755146E+02  0.40731107088E+03  0.90263792468E+02 0.  0.
         23    2    4    4    0    0 -0.71872422528E+02 -0.33670631850E+03  0.13947416177E+03  0.38219785293E+03  0.89918668491E+02 0.  0.
          4    1    3    3  502    0 -0.13244026504E+03  0.96648555543E+02  0.54128998096E+02  0.17265953645E+03  0.00000000000E+00 0. -1.
         -4    1    3    3    0  502 -0.18817732939E+03  0.29013516427E+03  0.15673932584E+03  0.37967925557E+03  0.00000000000E+00 0.  1.
         15    1    5    5    0    0  0.92524030781E+02 -0.31361446893E+02  0.25094415478E+02  0.10088173294E+03  0.17770000000E+01 0. -1.
        -15    1    5    5    0    0  0.29996598619E+03 -0.18715954416E+02 -0.59715170624E+02  0.30642933794E+03  0.17770000000E+01 0.  1.
          3    1    6    6  503    0 -0.81685930310E+02 -0.20914729157E+03  0.11374466428E+03  0.25170027698E+03  0.00000000000E+00 0. -1.
         -3    1    6    6    0  503  0.98135077818E+01 -0.12755902693E+03  0.25729497492E+02  0.13049757594E+03  0.00000000000E+00 0.  1.
<mgrwt>
<rscale>  0 0.63025326E+03</rscale>
<asrwt>0</asrwt>
<pdfrwt beam="1">  1        1 0.12750534E+00 0.63025326E+03</pdfrwt>
<pdfrwt beam="2">  1       -1 0.78932768E-01 0.63025326E+03</pdfrwt>
<totfact> 0.34815834E+01</totfact>
</mgrwt>
</event>
<event>
12    1  0.9321077E-008  0.6327759E+03  0.7818608E-02  0.9839647E-01
         -2   -1    0    0    0  501 -0.00000000000E+00  0.00000000000E+00  0.29459085645E+03  0.29459085645E+03  0.00000000000E+00 0.  1.
          2   -1    0    0  501    0  0.00000000000E+00 -0.00000000000E+00 -0.14869717492E+04  0.14869717492E+04  0.00000000000E+00 0. -1.
         23    2    1    2    0    0  0.35225078998E+03 -0.37806701583E+03 -0.56202066150E+03  0.76948964702E+03  0.96082284603E+02 0.  0.
    5000000    2    1    2    0    0 -0.35225078998E+03  0.37806701583E+03 -0.63036023128E+03  0.10120729587E+04  0.59993530064E+03 0.  0.
         23    2    4    4    0    0  0.11685318104E+03  0.20711156487E+03 -0.34958990690E+03  0.43278680452E+03  0.92419959620E+02 0.  0.
         23    2    4    4    0    0 -0.46910397102E+03  0.17095545096E+03 -0.28077032437E+03  0.57928615413E+03  0.86349125504E+02 0.  0.
          1    1    3    3  502    0  0.27311931945E+03 -0.26181361994E+03 -0.35219611151E+03  0.51689712246E+03  0.00000000000E+00 0. -1.
         -1    1    3    3    0  502  0.79131470525E+02 -0.11625339589E+03 -0.20982454999E+03  0.25259252456E+03  0.00000000000E+00 0.  1.
         15    1    5    5    0    0  0.49836199236E+02  0.56161926463E+02 -0.48605340270E+02  0.89461978349E+02  0.17770000000E+01 0. -1.
        -15    1    5    5    0    0  0.67016981809E+02  0.15094963841E+03 -0.30098456663E+03  0.34332482617E+03  0.17770000000E+01 0.  1.
          4    1    6    6  503    0 -0.24644692556E+03  0.13427105924E+03 -0.16684840796E+03  0.32650144825E+03  0.00000000000E+00 0. -1.
         -4    1    6    6    0  503 -0.22265704546E+03  0.36684391720E+02 -0.11392191642E+03  0.25278470588E+03  0.00000000000E+00 0.  1.
<mgrwt>
<rscale>  0 0.63277588E+03</rscale>
<asrwt>0</asrwt>
<pdfrwt beam="1">  1        2 0.22876488E+00 0.63277588E+03</pdfrwt>
<pdfrwt beam="2">  1       -2 0.45321670E-01 0.63277588E+03</pdfrwt>
<totfact> 0.61624568E+01</totfact>
</mgrwt>
</event>
<event>
12    1  0.9321077E-008  0.6264005E+03  0.7818608E-02  0.9852098E-01
          1   -1    0    0  501    0  0.00000000000E+00  0.00000000000E+00  0.16550721572E+04  0.16550721572E+04  0.00000000000E+00 0. -1.
         -1   -1    0    0    0  501 -0.00000000000E+00 -0.00000000000E+00 -0.29186202377E+03  0.29186202377E+03  0.00000000000E+00 0.  1.
         23    2    1    2    0    0 -0.26756972040E+03 -0.47427953806E+03  0.74651077732E+03  0.92864802044E+03  0.92596812710E+02 0.  0.
    5000000    2    1    2    0    0  0.26756972040E+03  0.47427953806E+03  0.61669935609E+03  0.10182861605E+04  0.60004497613E+03 0.  0.
         23    2    4    4    0    0  0.37419058495E+03  0.36192253745E+03  0.64449600939E+03  0.83378994310E+03  0.93936394026E+02 0.  0.
         23    2    4    4    0    0 -0.10662086455E+03  0.11235700060E+03 -0.27796653296E+02  0.18449621740E+03  0.96302107749E+02 0.  0.
          2    1    3    3  502    0 -0.20442962185E+03 -0.28449747207E+03  0.43620757024E+03  0.55947057674E+03  0.00000000000E+00 0. -1.
         -2    1    3    3    0  502 -0.63140098552E+02 -0.18978206598E+03  0.31030320708E+03  0.36917744370E+03  0.00000000000E+00 0.  1.
         15    1    5    5    0    0  0.19882290981E+03  0.16209236214E+03  0.38219638641E+03  0.46030611428E+03  0.17770000000E+01 0. -1.
        -15    1    5    5    0    0  0.17536767514E+03  0.19983017532E+03  0.26229962298E+03  0.37348382883E+03  0.17770000000E+01 0.  1.
          2    1    6    6  503    0 -0.30442046656E+02 -0.13214178683E+02 -0.16844716255E+02  0.37216625163E+02  0.00000000000E+00 0. -1.
         -2    1    6    6    0  503 -0.76178817898E+02  0.12557117929E+03 -0.10951937042E+02  0.14727959224E+03  0.00000000000E+00 0.  1.
<mgrwt>
<rscale>  0 0.62640046E+03</rscale>
<asrwt>0</asrwt>
<pdfrwt beam="1">  1        1 0.25462648E+00 0.62640046E+03</pdfrwt>
<pdfrwt beam="2">  1       -1 0.44901851E-01 0.62640046E+03</pdfrwt>
<totfact> 0.26481521E+01</totfact>
</mgrwt>
</event>
<event>
12    1  0.9321077E-008  0.7945901E+03  0.7818608E-02  0.9567881E-01
          1   -1    0    0  501    0  0.00000000000E+00  0.00000000000E+00  0.59069601286E+03  0.59069601286E+03  0.00000000000E+00 0. -1.
         -1   -1    0    0    0  501 -0.00000000000E+00 -0.00000000000E+00 -0.10957636484E+04  0.10957636484E+04  0.00000000000E+00 0.  1.
         23    2    1    2    0    0 -0.84426663511E+02  0.68345684634E+03 -0.18796606145E+03  0.71961377120E+03  0.90948431092E+02 0.  0.
    5000000    2    1    2    0    0  0.84426663511E+02 -0.68345684634E+03 -0.31710157405E+03  0.96684589003E+03  0.59999703705E+03 0.  0.
         23    2    4    4    0    0 -0.24448393715E+03 -0.33598660772E+03 -0.13686441484E+03  0.44671486050E+03  0.90348782281E+02 0.  0.
         23    2    4    4    0    0  0.32891060066E+03 -0.34747023863E+03 -0.18023715922E+03  0.52013102952E+03  0.95567276595E+02 0.  0.
          1    1    3    3  502    0 -0.30786003646E+02  0.39661240090E+03 -0.65592518650E+02  0.40317682606E+03  0.00000000000E+00 0. -1.
         -1    1    3    3    0  502 -0.53640659866E+02  0.28684444544E+03 -0.12237354280E+03  0.31643694513E+03  0.00000000000E+00 0.  1.
         15    1    5    5    0    0 -0.12510760911E+03 -0.17450757154E+03 -0.11798684548E+03  0.24500787705E+03  0.17770000000E+01 0. -1.
        -15    1    5    5    0    0 -0.11937632804E+03 -0.16147903618E+03 -0.18877569358E+02  0.20170698346E+03  0.17770000000E+01 0.  1.
          2    1    6    6  503    0  0.31960922143E+03 -0.35038911418E+03 -0.16519690715E+03  0.50220772982E+03  0.00000000000E+00 0. -1.
         -2    1    6    6    0  503  0.93013792289E+01  0.29188755558E+01 -0.15040252066E+02  0.17923299704E+02  0.00000000000E+00 0.  1.
<mgrwt>
<rscale>  0 0.79459012E+03</rscale>
<asrwt>0</asrwt>
<pdfrwt beam="1">  1        1 0.90876310E-01 0.79459012E+03</pdfrwt>
<pdfrwt beam="2">  1       -1 0.16857902E+00 0.79459012E+03</pdfrwt>
<totfact> 0.90555149E+00</totfact>
</mgrwt>
</event>
<event>
12    1  0.9321077E-008  0.9416079E+03  0.7818608E-02  0.9375014E-01
          2   -1    0    0  501    0  0.00000000000E+00  0.00000000000E+00  0.87772166846E+03  0.87772166846E+03  0.00000000000E+00 0. -1.
         -2   -1    0    0    0  501 -0.00000000000E+00 -0.00000000000E+00 -0.19235678841E+04  0.19235678841E+04  0.00000000000E+00 0.  1.
         23    2    1    2    0    0  0.80242795171E+03  0.34334382855E+03  0.43596917324E+03  0.97976005915E+03  0.89916912793E+02 0.  0.
    5000000    2    1    2    0    0 -0.80242795171E+03 -0.34334382855E+03 -0.14818153888E+04  0.18215294934E+04  0.60034760461E+03 0.  0.
         23    2    4    4    0    0 -0.68158053539E+03 -0.47160776710E+03 -0.10136262380E+04  0.13125417213E+04  0.91442373242E+02 0.  0.
         23    2    4    4    0    0 -0.12084741632E+03  0.12826393855E+03 -0.46818915084E+03  0.50898777206E+03  0.93870843098E+02 0.  0.
          1    1    3    3  502    0  0.58956368407E+03  0.27908215062E+03  0.35843633877E+03  0.74427736316E+03  0.00000000000E+00 0. -1.
         -1    1    3    3    0  502  0.21286426764E+03  0.64261677930E+02  0.77532834466E+02  0.23548269599E+03  0.00000000000E+00 0.  1.
         15    1    5    5    0    0 -0.27455086731E+03 -0.21642252891E+03 -0.36545392967E+03  0.50574363289E+03  0.17770000000E+01 0. -1.
        -15    1    5    5    0    0 -0.40702966807E+03 -0.25518523819E+03 -0.64817230832E+03  0.80679808843E+03  0.17770000000E+01 0.  1.
          2    1    6    6  503    0 -0.63840334904E+02  0.88249162831E+02 -0.16363046768E+03  0.19656661226E+03  0.00000000000E+00 0. -1.
         -2    1    6    6    0  503 -0.57007081419E+02  0.40014775716E+02 -0.30455868316E+03  0.31242115981E+03  0.00000000000E+00 0.  1.
<mgrwt>
<rscale>  0 0.94160790E+03</rscale>
<asrwt>0</asrwt>
<pdfrwt beam="1">  1        2 0.13503410E+00 0.94160790E+03</pdfrwt>
<pdfrwt beam="2">  1       -2 0.29593352E+00 0.94160790E+03</pdfrwt>
<totfact> 0.10341547E+00</totfact>
</mgrwt>
</event>
<event>
12    1  0.9321077E-008  0.3209481E+03  0.7818608E-02  0.1075214E+00
          2   -1    0    0  501    0  0.00000000000E+00  0.00000000000E+00  0.19749126123E+04  0.19749126123E+04  0.00000000000E+00 0. -1.
         -2   -1    0    0    0  501 -0.00000000000E+00 -0.00000000000E+00 -0.17423062149E+03  0.17423062149E+03  0.00000000000E+00 0.  1.
         23    2    1    2    0    0  0.15685878377E+03  0.19699965987E+03  0.13018787870E+04  0.13291617302E+04  0.91482155942E+02 0.  0.
    5000000    2    1    2    0    0 -0.15685878377E+03 -0.19699965987E+03  0.49880320379E+03  0.81998150361E+03  0.60012622515E+03 0.  0.
         23    2    4    4    0    0 -0.15940542132E+03 -0.23337041914E+03 -0.15926116257E+02  0.29575966105E+03  0.85722196953E+02 0.  0.
         23    2    4    4    0    0  0.25466375446E+01  0.36370759269E+02  0.51472932005E+03  0.52422184256E+03  0.92373967177E+02 0.  0.
          1    1    3    3  502    0  0.13736711007E+03  0.12731263699E+03  0.77355628404E+03  0.79590675022E+03  0.00000000000E+00 0. -1.
         -1    1    3    3    0  502  0.19491673699E+02  0.69687022879E+02  0.52832250296E+03  0.53325497995E+03  0.00000000000E+00 0.  1.
         15    1    5    5    0    0 -0.98799708460E+02 -0.10649929671E+03 -0.45159861770E+02  0.15213827078E+03  0.17770000000E+01 0.  1.
        -15    1    5    5    0    0 -0.60605712856E+02 -0.12687112243E+03  0.29233745512E+02  0.14362139027E+03  0.17770000000E+01 0. -1.
          4    1    6    6  503    0 -0.40976583914E+02  0.22415295011E+01  0.28436446882E+03  0.28731038271E+03  0.00000000000E+00 0.  1.
         -4    1    6    6    0  503  0.43523221458E+02  0.34129229768E+02  0.23036485123E+03  0.23691145986E+03  0.00000000000E+00 0. -1.
<mgrwt>
<rscale>  0 0.32094808E+03</rscale>
<asrwt>0</asrwt>
<pdfrwt beam="1">  1        2 0.30383269E+00 0.32094808E+03</pdfrwt>
<pdfrwt beam="2">  1       -2 0.26804712E-01 0.32094808E+03</pdfrwt>
<totfact> 0.95710567E+01</totfact>
</mgrwt>
</event>
<event>
12    1  0.9321077E-008  0.6826314E+03  0.7818608E-02  0.9747405E-01
         -2   -1    0    0    0  501 -0.00000000000E+00  0.00000000000E+00  0.51236488245E+03  0.51236488245E+03  0.00000000000E+00 0.  1.
          2   -1    0    0  501    0  0.00000000000E+00 -0.00000000000E+00 -0.98863704519E+03  0.98863704519E+03  0.00000000000E+00 0. -1.
         23    2    1    2    0    0 -0.57276223892E+03  0.80709504288E+02 -0.24595090587E+03  0.63525776523E+03  0.92141053649E+02 0.  0.
    5000000    2    1    2    0    0  0.57276223892E+03 -0.80709504288E+02 -0.23032125686E+03  0.86574416241E+03  0.60157665095E+03 0.  0.
         23    2    4    4    0    0  0.48890520236E+03 -0.27002943389E+03 -0.36335853864E+02  0.56709865164E+03  0.91303857321E+02 0.  0.
         23    2    4    4    0    0  0.83857036564E+02  0.18931992960E+03 -0.19398540300E+03  0.29864551077E+03  0.93192093026E+02 0.  0.
          3    1    3    3  502    0 -0.37010302000E+03  0.54449080970E+02 -0.20592945404E+03  0.42702211638E+03  0.00000000000E+00 0. -1.
         -3    1    3    3    0  502 -0.20265921892E+03  0.26260423318E+02 -0.40021451829E+02  0.20823564885E+03  0.00000000000E+00 0.  1.
         15    1    5    5    0    0  0.97336681940E+02 -0.81996537039E+02 -0.37588689317E+02  0.13271747824E+03  0.17770000000E+01 0.  1.
        -15    1    5    5    0    0  0.39156852042E+03 -0.18803289685E+03  0.12528354533E+01  0.43438117340E+03  0.17770000000E+01 0. -1.
          3    1    6    6  503    0  0.48118997015E+02  0.18255112580E+03 -0.14724043868E+03  0.23941616108E+03  0.00000000000E+00 0. -1.
         -3    1    6    6    0  503  0.35738039549E+02  0.67688038005E+01 -0.46744964315E+02  0.59229349688E+02  0.00000000000E+00 0.  1.
<mgrwt>
<rscale>  0 0.68263144E+03</rscale>
<asrwt>0</asrwt>
<pdfrwt beam="1">  1        2 0.15209800E+00 0.68263144E+03</pdfrwt>
<pdfrwt beam="2">  1       -2 0.78825368E-01 0.68263144E+03</pdfrwt>
<totfact> 0.37428156E+01</totfact>
</mgrwt>
</event>
<event>
12    1  0.9321077E-008  0.6047000E+03  0.7818608E-02  0.9895703E-01
          1   -1    0    0  501    0  0.00000000000E+00  0.00000000000E+00  0.53829759813E+03  0.53829759813E+03  0.00000000000E+00 0. -1.
         -1   -1    0    0    0  501 -0.00000000000E+00 -0.00000000000E+00 -0.79082862194E+03  0.79082862194E+03  0.00000000000E+00 0.  1.
         23    2    1    2    0    0  0.17967499811E+02  0.45928876996E+03  0.12402830951E+03  0.48468605051E+03  0.90931516747E+02 0.  0.
    5000000    2    1    2    0    0 -0.17967499811E+02 -0.45928876996E+03 -0.37655933332E+03  0.84444016955E+03  0.60001105255E+03 0.  0.
         23    2    4    4    0    0  0.23525500354E+03 -0.40699351947E+03 -0.25808546016E+03  0.54610381717E+03  0.10311465851E+03 0.  0.
         23    2    4    4    0    0 -0.25322250336E+03 -0.52295250492E+02 -0.11847387316E+03  0.29833635238E+03  0.90067147732E+02 0.  0.
          3    1    3    3  502    0  0.46068280998E+02  0.19646578007E+03  0.78224031332E+02  0.21642571088E+03  0.00000000000E+00 0. -1.
         -3    1    3    3    0  502 -0.28100781188E+02  0.26282298989E+03  0.45804278180E+02  0.26826033963E+03  0.00000000000E+00 0.  1.
         15    1    5    5    0    0  0.24150652119E+03 -0.39772592413E+03 -0.23704418394E+03  0.52221108124E+03  0.17770000000E+01 0. -1.
        -15    1    5    5    0    0 -0.62515176449E+01 -0.92675953386E+01 -0.21041276220E+02  0.23892735930E+02  0.17770000000E+01 0.  1.
          1    1    6    6  503    0 -0.23334162279E+03 -0.27626840184E+02 -0.79382956574E+02  0.24801856588E+03  0.00000000000E+00 0. -1.
         -1    1    6    6    0  503 -0.19880880565E+02 -0.24668410309E+02 -0.39090916585E+02  0.50317786504E+02  0.00000000000E+00 0.  1.
<mgrwt>
<rscale>  0 0.60470001E+03</rscale>
<asrwt>0</asrwt>
<pdfrwt beam="1">  1        1 0.82815016E-01 0.60470001E+03</pdfrwt>
<pdfrwt beam="2">  1       -1 0.12166594E+00 0.60470001E+03</pdfrwt>
<totfact> 0.24940214E+01</totfact>
</mgrwt>
</event>
<event>
12    1  0.9321077E-008  0.1439243E+04  0.7818608E-02  0.8925892E-01
         -1   -1    0    0    0  501 -0.00000000000E+00  0.00000000000E+00  0.70691904776E+03  0.70691904776E+03  0.00000000000E+00 0.  1.
          1   -1    0    0  501    0  0.00000000000E+00 -0.00000000000E+00 -0.31888374945E+04  0.31888374945E+04  0.00000000000E+00 0. -1.
         23    2    1    2    0    0  0.12882995730E+04  0.50013292932E+03 -0.67118384994E+03  0.15401864472E+04  0.10880162990E+03 0.  0.
    5000000    2    1    2    0    0 -0.12882995730E+04 -0.50013292932E+03 -0.18107345968E+04  0.23555700951E+04  0.60008495729E+03 0.  0.
         23    2    4    4    0    0 -0.93177299848E+03 -0.79399222080E+02 -0.12461277584E+04  0.15609586976E+04  0.96189959156E+02 0.  0.
         23    2    4    4    0    0 -0.35652657457E+03 -0.42073370724E+03 -0.56460683838E+03  0.79461139747E+03  0.92186442918E+02 0.  0.
          1    1    3    3  502    0  0.63135307790E+03  0.30319221716E+03 -0.34480767266E+03  0.78065649337E+03  0.00000000000E+00 0. -1.
         -1    1    3    3    0  502  0.65694649515E+03  0.19694071216E+03 -0.32637617728E+03  0.75952995378E+03  0.00000000000E+00 0.  1.
         15    1    5    5    0    0 -0.13144417678E+03 -0.42892842997E+02 -0.16354108105E+03  0.21416398042E+03  0.17770000000E+01 0.  1.
        -15    1    5    5    0    0 -0.80032882170E+03 -0.36506379083E+02 -0.10825866773E+04  0.13467947172E+04  0.17770000000E+01 0. -1.
          4    1    6    6  503    0 -0.63005374653E+02 -0.53084554299E+02 -0.45776407218E+02  0.94250340042E+02  0.00000000000E+00 0. -1.
         -4    1    6    6    0  503 -0.29352119992E+03 -0.36764915294E+03 -0.51883043116E+03  0.70036105743E+03  0.00000000000E+00 0.  1.
<mgrwt>
<rscale>  0 0.14392428E+04</rscale>
<asrwt>0</asrwt>
<pdfrwt beam="1">  1        1 0.49059038E+00 0.14392428E+04</pdfrwt>
<pdfrwt beam="2">  1       -1 0.10875678E+00 0.14392428E+04</pdfrwt>
<totfact> 0.32820956E-01</totfact>
</mgrwt>
</event>
<event>
12    1  0.9321077E-008  0.9967434E+03  0.7818608E-02  0.9312124E-01
         -2   -1    0    0    0  501 -0.00000000000E+00  0.00000000000E+00  0.67860043016E+03  0.67860043016E+03  0.00000000000E+00 0.  1.
          2   -1    0    0  501    0  0.00000000000E+00 -0.00000000000E+00 -0.21053120370E+04  0.21053120370E+04  0.00000000000E+00 0. -1.
         23    2    1    2    0    0  0.75657241743E+03  0.57272053807E+03 -0.13586853449E+04  0.16593139553E+04  0.82983722029E+02 0.  0.
    5000000    2    1    2    0    0 -0.75657241743E+03 -0.57272053807E+03 -0.68026261945E+02  0.11245985119E+04  0.59973627797E+03 0.  0.
         23    2    4    4    0    0 -0.50409629415E+03 -0.60392933862E+03 -0.21015830401E+03  0.81945022597E+03  0.92132731877E+02 0.  0.
         23    2    4    4    0    0 -0.25247612329E+03  0.31208800545E+02  0.14213204207E+03  0.30514828593E+03  0.90530530569E+02 0.  0.
          1    1    3    3  502    0  0.55199875623E+03  0.45090181196E+03 -0.10598828526E+04  0.12772496749E+04  0.00000000000E+00 0. -1.
         -1    1    3    3    0  502  0.20457366120E+03  0.12181872611E+03 -0.29880249234E+03  0.38206428034E+03  0.00000000000E+00 0.  1.
         15    1    5    5    0    0 -0.22399995582E+03 -0.30652963254E+03 -0.60957412647E+02  0.38451964803E+03  0.17770000000E+01 0. -1.
        -15    1    5    5    0    0 -0.28009633832E+03 -0.29739970608E+03 -0.14920089136E+03  0.43493057794E+03  0.17770000000E+01 0.  1.
          1    1    6    6  503    0 -0.17578345633E+03  0.23934162002E+02  0.48534563994E+02  0.18392463547E+03  0.00000000000E+00 0. -1.
         -1    1    6    6    0  503 -0.76692666958E+02  0.72746385432E+01  0.93597478072E+02  0.12122365047E+03  0.00000000000E+00 0.  1.
<mgrwt>
<rscale>  0 0.99674335E+03</rscale>
<asrwt>0</asrwt>
<pdfrwt beam="1">  1        2 0.32389416E+00 0.99674335E+03</pdfrwt>
<pdfrwt beam="2">  1       -2 0.10440007E+00 0.99674335E+03</pdfrwt>
<totfact> 0.43581221E+00</totfact>
</mgrwt>
</event>
<event>
12    1  0.9321077E-008  0.1311046E+04  0.7818608E-02  0.9020851E-01
         -1   -1    0    0    0  501 -0.00000000000E+00  0.00000000000E+00  0.64476149085E+03  0.64476149085E+03  0.00000000000E+00 0.  1.
          1   -1    0    0  501    0  0.00000000000E+00 -0.00000000000E+00 -0.26810427769E+04  0.26810427769E+04  0.00000000000E+00 0. -1.
         23    2    1    2    0    0 -0.11375658407E+04 -0.50231645210E+03 -0.10290684923E+04  0.16166810599E+04  0.91092413175E+02 0.  0.
    5000000    2    1    2    0    0  0.11375658407E+04  0.50231645210E+03 -0.10072127938E+04  0.17091232079E+04  0.60020552104E+03 0.  0.
         23    2    4    4    0    0  0.92832130406E+03  0.62385420990E+03 -0.81344560332E+03  0.13860754279E+04  0.92394932865E+02 0.  0.
         23    2    4    4    0    0  0.20924453668E+03 -0.12153775780E+03 -0.19376719052E+03  0.32304777991E+03  0.90881468299E+02 0.  0.
          4    1    3    3  502    0 -0.51661166356E+03 -0.24459166985E+03 -0.52859254958E+03  0.77853887466E+03  0.00000000000E+00 0. -1.
         -4    1    3    3    0  502 -0.62095417718E+03 -0.25772478225E+03 -0.50047594267E+03  0.83814218528E+03  0.00000000000E+00 0.  1.
         15    1    5    5    0    0  0.74662261442E+03  0.45667397276E+03 -0.64381034766E+03  0.10865041957E+04  0.17770000000E+01 0. -1.
        -15    1    5    5    0    0  0.18169868964E+03  0.16718023714E+03 -0.16963525566E+03  0.29957123226E+03  0.17770000000E+01 0.  1.
          3    1    6    6  503    0  0.95604701667E+02 -0.88367050866E+01 -0.94485856750E+02  0.13470680556E+03  0.00000000000E+00 0. -1.
         -3    1    6    6    0  503  0.11363983501E+03 -0.11270105271E+03 -0.99281333773E+02  0.18834097435E+03  0.00000000000E+00 0.  1.
<mgrwt>
<rscale>  0 0.13110456E+04</rscale>
<asrwt>0</asrwt>
<pdfrwt beam="1">  1        1 0.41246812E+00 0.13110456E+04</pdfrwt>
<pdfrwt beam="2">  1       -1 0.99194075E-01 0.13110456E+04</pdfrwt>
<totfact> 0.96128272E-01</totfact>
</mgrwt>
</event>
<event>
12    1  0.9321077E-008  0.1119710E+04  0.7818608E-02  0.9186191E-01
         -3   -1    0    0    0  501 -0.00000000000E+00  0.00000000000E+00  0.85939596569E+03  0.85939596569E+03  0.00000000000E+00 0.  1.
          3   -1    0    0  501    0  0.00000000000E+00 -0.00000000000E+00 -0.17551243804E+04  0.17551243804E+04  0.00000000000E+00 0. -1.
         23    2    1    2    0    0 -0.10921578709E+04  0.20088750193E+03 -0.91402576032E+02  0.11178811464E+04  0.90217643369E+02 0.  0.
    5000000    2    1    2    0    0  0.10921578709E+04 -0.20088750193E+03 -0.80432583872E+03  0.14966391997E+04  0.59985351202E+03 0.  0.
         23    2    4    4    0    0  0.28385900895E+03 -0.18113881302E+02 -0.54877278395E+03  0.62475083639E+03  0.90873480718E+02 0.  0.
         23    2    4    4    0    0  0.80829886196E+03 -0.18277362063E+03 -0.25555305477E+03  0.87188836334E+03  0.90159346028E+02 0.  0.
          1    1    3    3  502    0 -0.71504719439E+03  0.88926598389E+02 -0.48928858980E+02  0.72221497031E+03  0.00000000000E+00 0. -1.
         -1    1    3    3    0  502 -0.37711067653E+03  0.11196090354E+03 -0.42473717052E+02  0.39566617610E+03  0.00000000000E+00 0.  1.
         15    1    5    5    0    0  0.17691684987E+03 -0.51563973349E+02 -0.37737305697E+03  0.41996666174E+03  0.17770000000E+01 0.  1.
        -15    1    5    5    0    0  0.10694215909E+03  0.33450092046E+02 -0.17139972698E+03  0.20478417465E+03  0.17770000000E+01 0. -1.
          1    1    6    6  503    0  0.55803380948E+03 -0.11354522190E+03 -0.21683781490E+03  0.60935448461E+03  0.00000000000E+00 0. -1.
         -1    1    6    6    0  503  0.25026505248E+03 -0.69228398723E+02 -0.38715239870E+02  0.26253387873E+03  0.00000000000E+00 0.  1.
<mgrwt>
<rscale>  0 0.11197098E+04</rscale>
<asrwt>0</asrwt>
<pdfrwt beam="1">  1        3 0.27001913E+00 0.11197098E+04</pdfrwt>
<pdfrwt beam="2">  1       -3 0.13221476E+00 0.11197098E+04</pdfrwt>
<totfact> 0.63624119E-02</totfact>
</mgrwt>
</event>
<event>
12    1  0.9321077E-008  0.1071899E+04  0.7818608E-02  0.9233022E-01
         -1   -1    0    0    0  501 -0.00000000000E+00  0.00000000000E+00  0.11628247560E+04  0.11628247560E+04  0.00000000000E+00 0.  1.
          1   -1    0    0  501    0  0.00000000000E+00 -0.00000000000E+00 -0.11361405810E+04  0.11361405810E+04  0.00000000000E+00 0. -1.
         23    2    1    2    0    0  0.35240984031E+03 -0.93217847549E+03 -0.37463537793E+03  0.10684623274E+04  0.90059274754E+02 0.  0.
    5000000    2    1    2    0    0 -0.35240984031E+03  0.93217847549E+03  0.40131955287E+03  0.12305030096E+04  0.59994238665E+03 0.  0.
         23    2    4    4    0    0 -0.21252543028E+03  0.15906115529E+02  0.62313595456E+02  0.23942884923E+03  0.89571907647E+02 0.  0.
         23    2    4    4    0    0 -0.13988441003E+03  0.91627235996E+03  0.33900595742E+03  0.99107416032E+03  0.90444824611E+02 0.  0.
          2    1    3    3  502    0  0.17634783431E+03 -0.53069532464E+03 -0.16876143898E+03  0.58413740639E+03  0.00000000000E+00 0. -1.
         -2    1    3    3    0  502  0.17606200600E+03 -0.40148315085E+03 -0.20587393895E+03  0.48432492101E+03  0.00000000000E+00 0.  1.
         15    1    5    5    0    0 -0.17785373063E+03 -0.64318806778E+01  0.18034318836E+02  0.17889022604E+03  0.17770000000E+01 0. -1.
        -15    1    5    5    0    0 -0.34671699653E+02  0.22337996207E+02  0.44279276620E+02  0.60538623195E+02  0.17770000000E+01 0.  1.
          1    1    6    6  503    0 -0.63762329897E+02  0.44185831952E+03  0.21127112575E+03  0.49390272100E+03  0.00000000000E+00 0. -1.
         -1    1    6    6    0  503 -0.76122080133E+02  0.47441404044E+03  0.12773483167E+03  0.49717143932E+03  0.00000000000E+00 0.  1.
<mgrwt>
<rscale>  0 0.10718991E+04</rscale>
<asrwt>0</asrwt>
<pdfrwt beam="1">  1        1 0.17479086E+00 0.10718991E+04</pdfrwt>
<pdfrwt beam="2">  1       -1 0.17889612E+00 0.10718991E+04</pdfrwt>
<totfact> 0.25117620E+00</totfact>
</mgrwt>
</event>
<event>
12    1  0.9321077E-008  0.7702967E+03  0.7818608E-02  0.9604035E-01
          2   -1    0    0  501    0  0.00000000000E+00  0.00000000000E+00  0.13475086093E+04  0.13475086093E+04  0.00000000000E+00 0.  1.
         -2   -1    0    0    0  501 -0.00000000000E+00 -0.00000000000E+00 -0.44792749489E+03  0.44792749489E+03  0.00000000000E+00 0. -1.
         23    2    1    2    0    0 -0.63248825701E+03 -0.17867793646E+03  0.34567391288E+03  0.74812958761E+03  0.90775688239E+02 0.  0.
    5000000    2    1    2    0    0  0.63248825701E+03  0.17867793646E+03  0.55390720156E+03  0.10473065166E+04  0.59838996613E+03 0.  0.
         23    2    4    4    0    0  0.14313066252E+03 -0.19820443787E+03  0.21027513780E+03  0.33511467684E+03  0.91185674924E+02 0.  0.
         23    2    4    4    0    0  0.48935759449E+03  0.37688237433E+03  0.34363206376E+03  0.71219183977E+03  0.87310033977E+02 0.  0.
          3    1    3    3  502    0 -0.18497514318E+03 -0.57256139371E+02  0.14956899352E+03  0.24467315528E+03  0.00000000000E+00 0. -1.
         -3    1    3    3    0  502 -0.44751311383E+03 -0.12142179709E+03  0.19610491936E+03  0.50345643233E+03  0.00000000000E+00 0.  1.
         15    1    5    5    0    0  0.13193386678E+03 -0.11072855992E+03  0.14850248008E+03  0.22742801830E+03  0.17770000000E+01 0. -1.
        -15    1    5    5    0    0  0.11196795736E+02 -0.87475877946E+02  0.61772657720E+02  0.10768665854E+03  0.17770000000E+01 0.  1.
          1    1    6    6  503    0  0.37568152616E+03  0.24413254995E+03  0.26506609425E+03  0.52057405368E+03  0.00000000000E+00 0. -1.
         -1    1    6    6    0  503  0.11367606833E+03  0.13274982437E+03  0.78565969506E+02  0.19161778610E+03  0.00000000000E+00 0.  1.
<mgrwt>
<rscale>  0 0.77029673E+03</rscale>
<asrwt>0</asrwt>
<pdfrwt beam="1">  1        2 0.20730902E+00 0.77029673E+03</pdfrwt>
<pdfrwt beam="2">  1       -2 0.68911923E-01 0.77029673E+03</pdfrwt>
<totfact> 0.30395633E+01</totfact>
</mgrwt>
</event>
<event>
12    1  0.9321077E-008  0.4013004E+03  0.7818608E-02  0.1043330E+00
          2   -1    0    0  501    0  0.00000000000E+00  0.00000000000E+00  0.11771573737E+04  0.11771573737E+04  0.00000000000E+00 0. -1.
         -2   -1    0    0    0  501 -0.00000000000E+00 -0.00000000000E+00 -0.18583351752E+03  0.18583351752E+03  0.00000000000E+00 0.  1.
         23    2    1    2    0    0 -0.91835430555E+02 -0.25144138611E+03  0.31494062395E+03  0.42008860714E+03  0.75035486801E+02 0.  0.
    5000000    2    1    2    0    0  0.91835430555E+02  0.25144138611E+03  0.67638323223E+03  0.94290228409E+03  0.59992826532E+03 0.  0.
         23    2    4    4    0    0 -0.11932263994E+03  0.28793747752E+03  0.62503769859E+03  0.70437523457E+03  0.91249455103E+02 0.  0.
         23    2    4    4    0    0  0.21115807049E+03 -0.36496091412E+02  0.51345533643E+02  0.23852704951E+03  0.91318640499E+02 0.  0.
          2    1    3    3  502    0 -0.28085477467E+02 -0.16929795867E+03  0.22223990990E+03  0.28078669913E+03  0.00000000000E+00 0. -1.
         -2    1    3    3    0  502 -0.63749953087E+02 -0.82143427437E+02  0.92700714051E+02  0.13930190801E+03  0.00000000000E+00 0.  1.
         15    1    5    5    0    0 -0.41313916314E+02  0.71615721374E+02  0.91189692337E+02  0.12310308260E+03  0.17770000000E+01 0. -1.
        -15    1    5    5    0    0 -0.78008723623E+02  0.21632175615E+03  0.53384800625E+03  0.58127215197E+03  0.17770000000E+01 0.  1.
          1    1    6    6  503    0  0.15882515946E+03 -0.25224983509E+02 -0.48838566883E+01  0.16088997211E+03  0.00000000000E+00 0. -1.
         -1    1    6    6    0  503  0.52332911035E+02 -0.11271107903E+02  0.56229390332E+02  0.77637077404E+02  0.00000000000E+00 0.  1.
<mgrwt>
<rscale>  0 0.40130040E+03</rscale>
<asrwt>0</asrwt>
<pdfrwt beam="1">  1        2 0.18110113E+00 0.40130040E+03</pdfrwt>
<pdfrwt beam="2">  1       -2 0.28589773E-01 0.40130040E+03</pdfrwt>
<totfact> 0.22801608E+02</totfact>
</mgrwt>
</event>
<event>
12    1  0.9321077E-008  0.7831782E+03  0.7818608E-02  0.9584690E-01
         -1   -1    0    0    0  501 -0.00000000000E+00  0.00000000000E+00  0.84880458727E+03  0.84880458727E+03  0.00000000000E+00 0.  1.
          1   -1    0    0  501    0  0.00000000000E+00 -0.00000000000E+00 -0.12778454000E+04  0.12778454000E+04  0.00000000000E+00 0. -1.
         23    2    1    2    0    0  0.76140007357E+03 -0.11962755102E+03 -0.76879963526E+03  0.10924230539E+04  0.91073742121E+02 0.  0.
    5000000    2    1    2    0    0 -0.76140007357E+03  0.11962755102E+03  0.33975882255E+03  0.10342269334E+04  0.60012371160E+03 0.  0.
         23    2    4    4    0    0 -0.47218886699E+03  0.13774026426E+03  0.48800756179E+03  0.69899186612E+03  0.92214651921E+02 0.  0.
         23    2    4    4    0    0 -0.28921120657E+03 -0.18112713243E+02 -0.14824873924E+03  0.33523506725E+03  0.80210156713E+02 0.  0.
          4    1    3    3  502    0  0.56860456041E+03 -0.48768881724E+02 -0.56718799742E+03  0.80460659602E+03  0.00000000000E+00 0. -1.
         -4    1    3    3    0  502  0.19279551316E+03 -0.70858669293E+02 -0.20161163785E+03  0.28781645787E+03  0.00000000000E+00 0.  1.
         15    1    5    5    0    0 -0.19635890924E+03  0.43166137912E+02  0.26093400176E+03  0.32940832974E+03  0.17770000000E+01 0.  1.
        -15    1    5    5    0    0 -0.27582995776E+03  0.94574126347E+02  0.22707356003E+03  0.36958353638E+03  0.17770000000E+01 0. -1.
          1    1    6    6  503    0 -0.21433652311E+03  0.16795142814E+02 -0.84981727308E+02  0.23117983462E+03  0.00000000000E+00 0. -1.
         -1    1    6    6    0  503 -0.74874683467E+02 -0.34907856057E+02 -0.63267011931E+02  0.10405523263E+03  0.00000000000E+00 0.  1.
<mgrwt>
<rscale>  0 0.78317816E+03</rscale>
<asrwt>0</asrwt>
<pdfrwt beam="1">  1        1 0.19659160E+00 0.78317816E+03</pdfrwt>
<pdfrwt beam="2">  1       -1 0.13058532E+00 0.78317816E+03</pdfrwt>
<totfact> 0.48635782E+00</totfact>
</mgrwt>
</event>
<event>
12    1  0.9321077E-008  0.1017040E+04  0.7818608E-02  0.9290051E-01
         -1   -1    0    0    0  501 -0.00000000000E+00  0.00000000000E+00  0.11652843450E+04  0.11652843450E+04  0.00000000000E+00 0.  1.
          1   -1    0    0  501    0  0.00000000000E+00 -0.00000000000E+00 -0.11035556215E+04  0.11035556215E+04  0.00000000000E+00 0. -1.
         23    2    1    2    0    0 -0.85999371607E+03 -0.48001028125E+03 -0.34260517438E+03  0.10467108601E+04  0.90698717615E+02 0.  0.
    5000000    2    1    2    0    0  0.85999371607E+03  0.48001028125E+03  0.40433389788E+03  0.12221291065E+04  0.60009548419E+03 0.  0.
         23    2    4    4    0    0  0.61598040088E+03  0.49079994504E+03  0.66249941328E+02  0.79551038360E+03  0.90173584681E+02 0.  0.
         23    2    4    4    0    0  0.24401331519E+03 -0.10789663791E+02  0.33808395655E+03  0.42661872288E+03  0.89687558771E+02 0.  0.
          4    1    3    3  502    0 -0.31616087725E+03 -0.19965730595E+03 -0.17159146093E+03  0.41141751249E+03  0.00000000000E+00 0.  1.
         -4    1    3    3    0  502 -0.54383283882E+03 -0.28035297530E+03 -0.17101371345E+03  0.63529334761E+03  0.00000000000E+00 0. -1.
         15    1    5    5    0    0  0.49391620183E+03  0.43573609657E+03  0.48800072028E+02  0.66045723938E+03  0.17770000000E+01 0. -1.
        -15    1    5    5    0    0  0.12206419905E+03  0.55063848466E+02  0.17449869299E+02  0.13505314422E+03  0.17770000000E+01 0.  1.
          4    1    6    6  503    0  0.19109139019E+03 -0.40081581712E+02  0.28873276045E+03  0.34855280741E+03  0.00000000000E+00 0. -1.
         -4    1    6    6    0  503  0.52921924997E+02  0.29291917921E+02  0.49351196103E+02  0.78065915468E+02  0.00000000000E+00 0.  1.
<mgrwt>
<rscale>  0 0.10170397E+04</rscale>
<asrwt>0</asrwt>
<pdfrwt beam="1">  1        1 0.16977779E+00 0.10170397E+04</pdfrwt>
<pdfrwt beam="2">  1       -1 0.17927452E+00 0.10170397E+04</pdfrwt>
<totfact> 0.26580678E+00</totfact>
</mgrwt>
</event>
<event>
12    1  0.9321077E-008  0.9921103E+03  0.7818608E-02  0.9317241E-01
         -2   -1    0    0    0  501 -0.00000000000E+00  0.00000000000E+00  0.17653045659E+04  0.17653045659E+04  0.00000000000E+00 0. -1.
          2   -1    0    0  501    0  0.00000000000E+00 -0.00000000000E+00 -0.61895040925E+03  0.61895040925E+03  0.00000000000E+00 0.  1.
         23    2    1    2    0    0 -0.42164394718E+02 -0.90686730316E+03  0.18216865870E+03  0.93046840098E+03  0.91650877136E+02 0.  0.
    5000000    2    1    2    0    0  0.42164394718E+02  0.90686730316E+03  0.96418549800E+03  0.14537865742E+04  0.59971292059E+03 0.  0.
         23    2    4    4    0    0  0.30519807488E+03  0.56171579538E+03  0.55110295023E+03  0.84779818439E+03  0.79854868495E+02 0.  0.
         23    2    4    4    0    0 -0.26303368016E+03  0.34515150778E+03  0.41308254776E+03  0.60598838983E+03  0.90931056965E+02 0.  0.
          2    1    3    3  502    0 -0.25985410870E+02 -0.11818334697E+03  0.67042946408E+00  0.12100824168E+03  0.00000000000E+00 0. -1.
         -2    1    3    3    0  502 -0.16178983849E+02 -0.78868395619E+03  0.18149822924E+03  0.80946015929E+03  0.00000000000E+00 0.  1.
         15    1    5    5    0    0  0.54838528950E+02  0.12513605287E+03  0.16013912321E+03  0.21050888935E+03  0.17770000000E+01 0. -1.
        -15    1    5    5    0    0  0.25035954593E+03  0.43657974251E+03  0.39096382702E+03  0.63728929504E+03  0.17770000000E+01 0.  1.
          3    1    6    6  503    0 -0.19185505540E+03  0.23600840483E+03  0.34154045491E+03  0.45733818097E+03  0.00000000000E+00 0. -1.
         -3    1    6    6    0  503 -0.71178624756E+02  0.10914310296E+03  0.71542092858E+02  0.14865020887E+03  0.00000000000E+00 0.  1.
<mgrwt>
<rscale>  0 0.99211026E+03</rscale>
<asrwt>0</asrwt>
<pdfrwt beam="1">  1        2 0.95223141E-01 0.99211026E+03</pdfrwt>
<pdfrwt beam="2">  1       -2 0.27158532E+00 0.99211026E+03</pdfrwt>
<totfact> 0.22693394E+00</totfact>
</mgrwt>
</event>
<event>
12    1  0.9321077E-008  0.6858340E+03  0.7818608E-02  0.9741769E-01
         -2   -1    0    0    0  501 -0.00000000000E+00  0.00000000000E+00  0.15732895456E+03  0.15732895456E+03  0.00000000000E+00 0.  1.
          2   -1    0    0  501    0  0.00000000000E+00 -0.00000000000E+00 -0.36179987268E+04  0.36179987268E+04  0.00000000000E+00 0. -1.
         23    2    1    2    0    0  0.23577459057E+03  0.56443195484E+03 -0.10726434024E+04  0.12381678126E+04  0.91228144525E+02 0.  0.
    5000000    2    1    2    0    0 -0.23577459057E+03 -0.56443195484E+03 -0.23880263699E+04  0.25371598688E+04  0.60028090686E+03 0.  0.
         23    2    4    4    0    0 -0.24566155631E+03 -0.80836712236E+02 -0.37052318758E+03  0.46046229883E+03  0.88622355066E+02 0.  0.
         23    2    4    4    0    0  0.98869657362E+01 -0.48359524261E+03 -0.20175031823E+04  0.20766975700E+04  0.91605652410E+02 0.  0.
          4    1    3    3  502    0  0.83217327995E+02  0.31731115652E+03 -0.57080375967E+03  0.65835281254E+03  0.00000000000E+00 0.  1.
         -4    1    3    3    0  502  0.15255726257E+03  0.24712079832E+03 -0.50183964270E+03  0.57981500007E+03  0.00000000000E+00 0. -1.
         15    1    5    5    0    0 -0.16214249435E+02  0.13683302143E+02 -0.12021866661E+02  0.24450309800E+02  0.17770000000E+01 0. -1.
        -15    1    5    5    0    0 -0.22944730687E+03 -0.94520014380E+02 -0.35850132092E+03  0.43601198903E+03  0.17770000000E+01 0.  1.
          3    1    6    6  503    0  0.90830644776E+01 -0.25556202504E+03 -0.12567258310E+04  0.12824797328E+04  0.00000000000E+00 0. -1.
         -3    1    6    6    0  503  0.80390125862E+00 -0.22803321757E+03 -0.76077735134E+03  0.79421783717E+03  0.00000000000E+00 0.  1.
<mgrwt>
<rscale>  0 0.68583399E+03</rscale>
<asrwt>0</asrwt>
<pdfrwt beam="1">  1        2 0.55661519E+00 0.68583399E+03</pdfrwt>
<pdfrwt beam="2">  1       -2 0.24204454E-01 0.68583399E+03</pdfrwt>
<totfact> 0.11181183E+01</totfact>
</mgrwt>
</event>
<event>
12    1  0.9321077E-008  0.4278135E+03  0.7818608E-02  0.1034553E+00
          1   -1    0    0  501    0  0.00000000000E+00  0.00000000000E+00  0.28717501059E+03  0.28717501059E+03  0.00000000000E+00 0. -1.
         -1   -1    0    0    0  501 -0.00000000000E+00 -0.00000000000E+00 -0.71687021226E+03  0.71687021226E+03  0.00000000000E+00 0.  1.
         23    2    1    2    0    0 -0.24400216786E+02 -0.23844485011E+03 -0.77906782382E+02  0.26830098791E+03  0.92003457808E+02 0.  0.
    5000000    2    1    2    0    0  0.24400216786E+02  0.23844485011E+03 -0.35178841929E+03  0.73574423494E+03  0.60009430108E+03 0.  0.
         23    2    4    4    0    0 -0.46175979408E+01 -0.17035889009E+03 -0.22198199908E+03  0.29628009253E+03  0.97274928262E+02 0.  0.
         23    2    4    4    0    0  0.29017814727E+02  0.40880374020E+03 -0.12980642021E+03  0.43946414242E+03  0.91194814380E+02 0.  0.
          3    1    3    3  502    0  0.22242566184E+02 -0.17956633082E+03 -0.63905488114E+02  0.19189244469E+03  0.00000000000E+00 0. -1.
         -3    1    3    3    0  502 -0.46642782969E+02 -0.58878519286E+02 -0.14001294269E+02  0.76408543224E+02  0.00000000000E+00 0.  1.
         15    1    5    5    0    0 -0.32561177480E+02 -0.71092375751E+02 -0.15408011685E+03  0.17279524388E+03  0.17770000000E+01 0. -1.
        -15    1    5    5    0    0  0.27943579539E+02 -0.99266514341E+02 -0.67901882227E+02  0.12348484865E+03  0.17770000000E+01 0.  1.
          2    1    6    6  503    0 -0.28427840685E+02  0.18443961448E+03 -0.38704104178E+02  0.19058888005E+03  0.00000000000E+00 0. -1.
         -2    1    6    6    0  503  0.57445655412E+02  0.22436412572E+03 -0.91102316032E+02  0.24887526237E+03  0.00000000000E+00 0.  1.
<mgrwt>
<rscale>  0 0.42781348E+03</rscale>
<asrwt>0</asrwt>
<pdfrwt beam="1">  1        1 0.44180771E-01 0.42781348E+03</pdfrwt>
<pdfrwt beam="2">  1       -1 0.11028772E+00 0.42781348E+03</pdfrwt>
<totfact> 0.73763060E+01</totfact>
</mgrwt>
</event>
<event>
12    1  0.1187773E-007  0.1624669E+04  0.7818608E-02  0.8805535E-01
          2   -1    0    0  501    0  0.00000000000E+00  0.00000000000E+00  0.21266328699E+04  0.21266328699E+04  0.00000000000E+00 0. -1.
         -2   -1    0    0    0  501 -0.00000000000E+00 -0.00000000000E+00 -0.12686258789E+04  0.12686258789E+04  0.00000000000E+00 0.  1.
         23    2    1    2    0    0  0.10822155819E+04  0.11502672539E+04  0.56946262845E+03  0.16813366475E+04  0.91103874865E+02 0.  0.
    5000000    2    1    2    0    0 -0.10822155819E+04 -0.11502672539E+04  0.28854436250E+03  0.17139221012E+04  0.59997149836E+03 0.  0.
         23    2    4    4    0    0 -0.53007578042E+03 -0.20857130625E+03 -0.15238765913E+02  0.57710585912E+03  0.91305147035E+02 0.  0.
         23    2    4    4    0    0 -0.55213980150E+03 -0.94169594766E+03  0.30378312841E+03  0.11368162421E+04  0.91746177015E+02 0.  0.
          2    1    3    3  502    0  0.46422377409E+03  0.55782950924E+03  0.27254636868E+03  0.77521545192E+03  0.00000000000E+00 0. -1.
         -2    1    3    3    0  502  0.61799180783E+03  0.59243774466E+03  0.29691625977E+03  0.90612119562E+03  0.00000000000E+00 0.  1.
         15    1    5    5    0    0 -0.38525341894E+03 -0.18991359783E+03  0.58336331287E+01  0.42956322055E+03  0.17770000000E+01 0. -1.
        -15    1    5    5    0    0 -0.14482236147E+03 -0.18657708420E+02 -0.21072399042E+02  0.14754263857E+03  0.17770000000E+01 0.  1.
          2    1    6    6  503    0 -0.26081022176E+03 -0.41809274566E+03  0.91928940712E+02  0.50127282580E+03  0.00000000000E+00 0. -1.
         -2    1    6    6    0  503 -0.29132957974E+03 -0.52360320200E+03  0.21185418770E+03  0.63554341631E+03  0.00000000000E+00 0.  1.
<mgrwt>
<rscale>  0 0.16246690E+04</rscale>
<asrwt>0</asrwt>
<pdfrwt beam="1">  1        2 0.32717429E+00 0.16246690E+04</pdfrwt>
<pdfrwt beam="2">  1       -2 0.19517321E+00 0.16246690E+04</pdfrwt>
<totfact> 0.75438836E-01</totfact>
</mgrwt>
</event>
<event>
12    1  0.9321077E-008  0.1119433E+04  0.7818608E-02  0.9186455E-01
          2   -1    0    0  501    0  0.00000000000E+00  0.00000000000E+00  0.19715369921E+04  0.19715369921E+04  0.00000000000E+00 0. -1.
         -2   -1    0    0    0  501 -0.00000000000E+00 -0.00000000000E+00 -0.68253648101E+03  0.68253648101E+03  0.00000000000E+00 0.  1.
         23    2    1    2    0    0  0.10156872297E+04  0.36517008646E+03  0.59287896088E+03  0.12364414883E+04  0.11096103393E+03 0.  0.
    5000000    2    1    2    0    0 -0.10156872297E+04 -0.36517008646E+03  0.69612155017E+03  0.14176319848E+04  0.60010456672E+03 0.  0.
         23    2    4    4    0    0 -0.56995792468E+03 -0.40875949489E+03  0.64567504149E+03  0.95776789937E+03  0.92123446003E+02 0.  0.
         23    2    4    4    0    0 -0.44572930504E+03  0.43589408428E+02  0.50446508681E+02  0.45986408541E+03  0.91408297820E+02 0.  0.
          2    1    3    3  502    0  0.57777096438E+03  0.22713259806E+03  0.28144865021E+03  0.68163175328E+03  0.00000000000E+00 0.  1.
         -2    1    3    3    0  502  0.43791626534E+03  0.13803748840E+03  0.31143031067E+03  0.55480973501E+03  0.00000000000E+00 0. -1.
         15    1    5    5    0    0 -0.55552215212E+03 -0.39098311937E+03  0.59876190925E+03  0.90553389932E+03  0.17770000000E+01 0. -1.
        -15    1    5    5    0    0 -0.14435772563E+02 -0.17776375521E+02  0.46913132235E+02  0.52234000050E+02  0.17770000000E+01 0.  1.
          4    1    6    6  503    0 -0.19972713231E+03  0.64078262443E+02  0.33681587082E+02  0.21244152232E+03  0.00000000000E+00 0.  1.
         -4    1    6    6    0  503 -0.24600217273E+03 -0.20488854015E+02  0.16764921600E+02  0.24742256309E+03  0.00000000000E+00 0. -1.
<mgrwt>
<rscale>  0 0.11194333E+04</rscale>
<asrwt>0</asrwt>
<pdfrwt beam="1">  1        2 0.30331338E+00 0.11194333E+04</pdfrwt>
<pdfrwt beam="2">  1       -2 0.10500561E+00 0.11194333E+04</pdfrwt>
<totfact> 0.50230712E+00</totfact>
</mgrwt>
</event>
<event>
12    1  0.9321077E-008  0.7779307E+03  0.7818608E-02  0.9592523E-01
          2   -1    0    0  501    0  0.00000000000E+00  0.00000000000E+00  0.51489023428E+03  0.51489023428E+03  0.00000000000E+00 0. -1.
         -2   -1    0    0    0  501 -0.00000000000E+00 -0.00000000000E+00 -0.12259107967E+04  0.12259107967E+04  0.00000000000E+00 0.  1.
         23    2    1    2    0    0  0.55487681534E+03 -0.38433569476E+03 -0.38552877726E+03  0.78088480215E+03  0.74474355701E+02 0.  0.
    5000000    2    1    2    0    0 -0.55487681534E+03  0.38433569476E+03 -0.32549178517E+03  0.95991622885E+03  0.59991004136E+03 0.  0.
         23    2    4    4    0    0  0.68098775327E+02 -0.59239622484E+02 -0.81324343146E+02  0.15188606820E+03  0.91153457709E+02 0.  0.
         23    2    4    4    0    0 -0.62297559067E+03  0.44357531725E+03 -0.24416744202E+03  0.80803016065E+03  0.91855060498E+02 0.  0.
          4    1    3    3  502    0  0.93956402173E+02 -0.33990678661E+02 -0.63676125902E+02  0.11848130973E+03  0.00000000000E+00 0. -1.
         -4    1    3    3    0  502  0.46092041317E+03 -0.35034501610E+03 -0.32185265136E+03  0.66240349242E+03  0.00000000000E+00 0.  1.
         15    1    5    5    0    0  0.62008499194E+02 -0.12765695868E+02 -0.66223268142E+01  0.63679116708E+02  0.17770000000E+01 0.  1.
        -15    1    5    5    0    0  0.60902761322E+01 -0.46473926617E+02 -0.74702016332E+02  0.88206951492E+02  0.17770000000E+01 0. -1.
          4    1    6    6  503    0 -0.28373056363E+03  0.23589841911E+03 -0.79071461640E+02  0.37736374087E+03  0.00000000000E+00 0. -1.
         -4    1    6    6    0  503 -0.33924502704E+03  0.20767689814E+03 -0.16509598038E+03  0.43066641978E+03  0.00000000000E+00 0.  1.
<mgrwt>
<rscale>  0 0.77793069E+03</rscale>
<asrwt>0</asrwt>
<pdfrwt beam="1">  1        2 0.79213883E-01 0.77793069E+03</pdfrwt>
<pdfrwt beam="2">  1       -2 0.18860166E+00 0.77793069E+03</pdfrwt>
<totfact> 0.95650914E+00</totfact>
</mgrwt>
</event>
<event>
12    1  0.9321077E-008  0.9966288E+03  0.7818608E-02  0.9312250E-01
         -2   -1    0    0    0  501 -0.00000000000E+00  0.00000000000E+00  0.39815824865E+03  0.39815824865E+03  0.00000000000E+00 0.  1.
          2   -1    0    0  501    0  0.00000000000E+00 -0.00000000000E+00 -0.26966560545E+04  0.26966560545E+04  0.00000000000E+00 0. -1.
         23    2    1    2    0    0 -0.61143809080E+03 -0.72235955077E+03 -0.11099006058E+04  0.14612565881E+04  0.87929528686E+02 0.  0.
    5000000    2    1    2    0    0  0.61143809080E+03  0.72235955077E+03 -0.11885972000E+04  0.16335577150E+04  0.60007303302E+03 0.  0.
         23    2    4    4    0    0  0.17454741814E+03  0.52159619157E+03 -0.91794928749E+03  0.10738544835E+04  0.89460432953E+02 0.  0.
         23    2    4    4    0    0  0.43689067266E+03  0.20076335920E+03 -0.27064791250E+03  0.55970323151E+03  0.94010789689E+02 0.  0.
          1    1    3    3  502    0 -0.47172226389E+03 -0.50247908774E+03 -0.77921115374E+03  0.10402774389E+04  0.00000000000E+00 0. -1.
         -1    1    3    3    0  502 -0.13971582691E+03 -0.21988046303E+03 -0.33068945210E+03  0.42097914918E+03  0.00000000000E+00 0.  1.
         15    1    5    5    0    0  0.30235877829E+02  0.21520084749E+03 -0.39429684087E+03  0.45022080085E+03  0.17770000000E+01 0. -1.
        -15    1    5    5    0    0  0.14431154031E+03  0.30639534408E+03 -0.52365244662E+03  0.62363368264E+03  0.17770000000E+01 0.  1.
          4    1    6    6  503    0  0.25461532583E+03  0.72791435596E+02 -0.17438406599E+03  0.31707626798E+03  0.00000000000E+00 0. -1.
         -4    1    6    6    0  503  0.18227534683E+03  0.12797192360E+03 -0.96263846512E+02  0.24262696354E+03  0.00000000000E+00 0.  1.
<mgrwt>
<rscale>  0 0.99662883E+03</rscale>
<asrwt>0</asrwt>
<pdfrwt beam="1">  1        2 0.41487017E+00 0.99662883E+03</pdfrwt>
<pdfrwt beam="2">  1       -2 0.61255114E-01 0.99662883E+03</pdfrwt>
<totfact> 0.67189715E+00</totfact>
</mgrwt>
</event>
<event>
12    1  0.9321077E-008  0.1401165E+04  0.7818608E-02  0.8952976E-01
         -1   -1    0    0    0  501 -0.00000000000E+00  0.00000000000E+00  0.14748733583E+04  0.14748733583E+04  0.00000000000E+00 0.  1.
          1   -1    0    0  501    0  0.00000000000E+00 -0.00000000000E+00 -0.15548112197E+04  0.15548112197E+04  0.00000000000E+00 0. -1.
         23    2    1    2    0    0  0.46123579831E+03 -0.12944897060E+04  0.43520937735E+03  0.14441977113E+04  0.88644044673E+02 0.  0.
    5000000    2    1    2    0    0 -0.46123579831E+03  0.12944897060E+04 -0.51514723873E+03  0.15854868666E+04  0.59995822041E+03 0.  0.
         23    2    4    4    0    0 -0.47018681308E+03  0.13113957061E+04 -0.53021213916E+03  0.14936127224E+04  0.94444242101E+02 0.  0.
         23    2    4    4    0    0  0.89510147747E+01 -0.16906000115E+02  0.15064900433E+02  0.91874144247E+02  0.88588789645E+02 0.  0.
          3    1    3    3  502    0  0.25771210192E+03 -0.84347817401E+03  0.29288898605E+03  0.92933035873E+03  0.00000000000E+00 0. -1.
         -3    1    3    3    0  502  0.20352369638E+03 -0.45101153196E+03  0.14232039131E+03  0.51486735256E+03  0.00000000000E+00 0.  1.
         15    1    5    5    0    0 -0.24742514583E+03  0.57486060284E+03 -0.26596478031E+03  0.68001789505E+03  0.17770000000E+01 0.  1.
        -15    1    5    5    0    0 -0.22276166725E+03  0.73653510325E+03 -0.26424735885E+03  0.81359482735E+03  0.17770000000E+01 0. -1.
          2    1    6    6  503    0  0.13068275536E+02 -0.26129410864E+00 -0.35845294998E+02  0.38154072831E+02  0.00000000000E+00 0.  1.
         -2    1    6    6    0  503 -0.41172607617E+01 -0.16644706006E+02  0.50910195431E+02  0.53720071417E+02  0.00000000000E+00 0. -1.
<mgrwt>
<rscale>  0 0.14011647E+04</rscale>
<asrwt>0</asrwt>
<pdfrwt beam="1">  1        1 0.23920173E+00 0.14011647E+04</pdfrwt>
<pdfrwt beam="2">  1       -1 0.22690359E+00 0.14011647E+04</pdfrwt>
<totfact> 0.56739861E-01</totfact>
</mgrwt>
</event>
<event>
12    1  0.9321077E-008  0.4089558E+03  0.7818608E-02  0.1040722E+00
         -1   -1    0    0    0  501 -0.00000000000E+00  0.00000000000E+00  0.65652759000E+03  0.65652759000E+03  0.00000000000E+00 0.  1.
          1   -1    0    0  501    0  0.00000000000E+00 -0.00000000000E+00 -0.34195818499E+03  0.34195818499E+03  0.00000000000E+00 0. -1.
         23    2    1    2    0    0 -0.99109900668E+02  0.16863248068E+03  0.29713452830E+03  0.36768590702E+03  0.92974794268E+02 0.  0.
    5000000    2    1    2    0    0  0.99109900668E+02 -0.16863248068E+03  0.17434876713E+02  0.63079986796E+03  0.59945376181E+03 0.  0.
         23    2    4    4    0    0  0.31565105223E+03 -0.12536007850E+02  0.86020943583E+02  0.33956738409E+03  0.90075897659E+02 0.  0.
         23    2    4    4    0    0 -0.21654115156E+03 -0.15609647282E+03 -0.68586066870E+02  0.29123248387E+03  0.94107023896E+02 0.  0.
          2    1    3    3  502    0 -0.70559675197E+02  0.17377560088E+03  0.25847727591E+03  0.31935423809E+03  0.00000000000E+00 0. -1.
         -2    1    3    3    0  502 -0.28550225471E+02 -0.51431202024E+01  0.38657252382E+02  0.48331668930E+02  0.00000000000E+00 0.  1.
         15    1    5    5    0    0  0.20653669875E+03 -0.36430233975E+02  0.22189294110E+02  0.21090304024E+03  0.17770000000E+01 0. -1.
        -15    1    5    5    0    0  0.10911435348E+03  0.23894226124E+02  0.63831649472E+02  0.12866434386E+03  0.17770000000E+01 0.  1.
          3    1    6    6  503    0 -0.98331429378E+02 -0.12235329608E+03 -0.59845411509E+02  0.16799069124E+03  0.00000000000E+00 0. -1.
         -3    1    6    6    0  503 -0.11820972218E+03 -0.33743176748E+02 -0.87406553610E+01  0.12324179263E+03  0.00000000000E+00 0.  1.
<mgrwt>
<rscale>  0 0.40895578E+03</rscale>
<asrwt>0</asrwt>
<pdfrwt beam="1">  1        1 0.52608952E-01 0.40895578E+03</pdfrwt>
<pdfrwt beam="2">  1       -1 0.10100424E+00 0.40895578E+03</pdfrwt>
<totfact> 0.72351389E+01</totfact>
</mgrwt>
</event>
<event>
12    1  0.9321077E-008  0.1004782E+04  0.7818608E-02  0.9303315E-01
          1   -1    0    0  501    0  0.00000000000E+00  0.00000000000E+00  0.36459537930E+04  0.36459537930E+04  0.00000000000E+00 0. -1.
         -1   -1    0    0    0  501 -0.00000000000E+00 -0.00000000000E+00 -0.41896002208E+03  0.41896002208E+03  0.00000000000E+00 0.  1.
         23    2    1    2    0    0  0.77571046983E+03  0.63029166919E+03  0.24917544988E+04  0.26865651686E+04  0.98982832508E+02 0.  0.
    5000000    2    1    2    0    0 -0.77571046983E+03 -0.63029166919E+03  0.73523927208E+03  0.13783486465E+04  0.60022819236E+03 0.  0.
         23    2    4    4    0    0 -0.51643163784E+03 -0.44440758927E+03  0.14737607794E+03  0.70332458289E+03  0.93520150698E+02 0.  0.
         23    2    4    4    0    0 -0.25927883199E+03 -0.18588407992E+03  0.58786319414E+03  0.67502406363E+03  0.91082092479E+02 0.  0.
          1    1    3    3  502    0  0.22167403625E+03  0.13955156652E+03  0.73434663442E+03  0.77966595254E+03  0.00000000000E+00 0. -1.
         -1    1    3    3    0  502  0.55403643358E+03  0.49074010267E+03  0.17574078644E+04  0.19068992160E+04  0.00000000000E+00 0.  1.
         15    1    5    5    0    0 -0.37946209236E+03 -0.35306638716E+03  0.75923792709E+02  0.52384628787E+03  0.17770000000E+01 0.  1.
        -15    1    5    5    0    0 -0.13696954548E+03 -0.91341202106E+02  0.71452285230E+02  0.17947829502E+03  0.17770000000E+01 0. -1.
          3    1    6    6  503    0 -0.15939237466E+03 -0.77786225578E+02  0.25028604211E+03  0.30675679106E+03  0.00000000000E+00 0. -1.
         -3    1    6    6    0  503 -0.99886457335E+02 -0.10809785434E+03  0.33757715203E+03  0.36826727257E+03  0.00000000000E+00 0.  1.
<mgrwt>
<rscale>  0 0.10047825E+04</rscale>
<asrwt>0</asrwt>
<pdfrwt beam="1">  1        1 0.56091595E+00 0.10047825E+04</pdfrwt>
<pdfrwt beam="2">  1       -1 0.64455390E-01 0.10047825E+04</pdfrwt>
<totfact> 0.48614421E-01</totfact>
</mgrwt>
</event>
<event>
12    1  0.9321077E-008  0.1874364E+04  0.7818608E-02  0.8667723E-01
          1   -1    0    0  501    0  0.00000000000E+00  0.00000000000E+00  0.28259326009E+04  0.28259326009E+04  0.00000000000E+00 0. -1.
         -1   -1    0    0    0  501 -0.00000000000E+00 -0.00000000000E+00 -0.14392548373E+04  0.14392548373E+04  0.00000000000E+00 0.  1.
         23    2    1    2    0    0 -0.17666431556E+04  0.56702376498E+03  0.13816809416E+04  0.23150704205E+04  0.89245943287E+02 0.  0.
    5000000    2    1    2    0    0  0.17666431556E+04 -0.56702376498E+03  0.49968220071E+01  0.19501170176E+04  0.60032276714E+03 0.  0.
         23    2    4    4    0    0  0.15669294557E+04 -0.36679375607E+03  0.14842467820E+03  0.16187305318E+04  0.91940582925E+02 0.  0.
         23    2    4    4    0    0  0.19971369991E+03 -0.20023000891E+03 -0.14342785619E+03  0.33138648581E+03  0.96269593556E+02 0.  0.
          1    1    3    3  502    0 -0.98663924146E+03  0.30836817155E+03  0.82393690307E+03  0.13219001257E+04  0.00000000000E+00 0. -1.
         -1    1    3    3    0  502 -0.78000391416E+03  0.25865559343E+03  0.55774403852E+03  0.99317029488E+03  0.00000000000E+00 0.  1.
         15    1    5    5    0    0  0.14003652466E+04 -0.31662565216E+03  0.15871954664E+03  0.14444617266E+04  0.17770000000E+01 0. -1.
        -15    1    5    5    0    0  0.16656420915E+03 -0.50168103907E+02 -0.10294868440E+02  0.17426880520E+03  0.17770000000E+01 0.  1.
          3    1    6    6  503    0  0.50600578632E+02 -0.64100099669E+02 -0.92032766107E+02  0.12304174646E+03  0.00000000000E+00 0. -1.
         -3    1    6    6    0  503  0.14911312128E+03 -0.13612990924E+03 -0.51395090087E+02  0.20834473934E+03  0.00000000000E+00 0.  1.
<mgrwt>
<rscale>  0 0.18743644E+04</rscale>
<asrwt>0</asrwt>
<pdfrwt beam="1">  1        1 0.43475886E+00 0.18743644E+04</pdfrwt>
<pdfrwt beam="2">  1       -1 0.22142382E+00 0.18743644E+04</pdfrwt>
<totfact> 0.77748884E-02</totfact>
</mgrwt>
</event>
<event>
12    1  0.9321077E-008  0.1051541E+04  0.7818608E-02  0.9253755E-01
          2   -1    0    0  501    0  0.00000000000E+00  0.00000000000E+00  0.28950707896E+04  0.28950707896E+04  0.00000000000E+00 0. -1.
         -2   -1    0    0    0  501 -0.00000000000E+00 -0.00000000000E+00 -0.78488334015E+03  0.78488334015E+03  0.00000000000E+00 0.  1.
         23    2    1    2    0    0 -0.27600741171E+03  0.10139849861E+04 -0.19846589963E+03  0.10733822319E+04  0.91733630613E+02 0.  0.
    5000000    2    1    2    0    0  0.27600741171E+03 -0.10139849861E+04  0.23086533491E+04  0.26065718979E+04  0.59999260754E+03 0.  0.
         23    2    4    4    0    0  0.28712126903E+02 -0.10679004830E+03  0.88908681233E+03  0.90126546227E+03  0.97854856674E+02 0.  0.
         23    2    4    4    0    0  0.24729528480E+03 -0.90719493782E+03  0.14195665368E+04  0.17053064356E+04  0.93505475326E+02 0.  0.
          2    1    3    3  502    0 -0.25249606255E+03  0.87032644779E+03 -0.14212864589E+03  0.91729108756E+03  0.00000000000E+00 0. -1.
         -2    1    3    3    0  502 -0.23511349156E+02  0.14365853833E+03 -0.56337253746E+02  0.15609114432E+03  0.00000000000E+00 0.  1.
         15    1    5    5    0    0  0.25222905500E+02 -0.10015893844E+03  0.43441133289E+03  0.44652477175E+03  0.17770000000E+01 0. -1.
        -15    1    5    5    0    0  0.34892214032E+01 -0.66311098575E+01  0.45467547944E+03  0.45474069052E+03  0.17770000000E+01 0.  1.
          1    1    6    6  503    0  0.35834899949E+02 -0.13152980695E+03  0.27045114464E+03  0.30286639266E+03  0.00000000000E+00 0. -1.
         -1    1    6    6    0  503  0.21146038485E+03 -0.77566513088E+03  0.11491153921E+04  0.14024400429E+04  0.00000000000E+00 0.  1.
<mgrwt>
<rscale>  0 0.10515409E+04</rscale>
<asrwt>0</asrwt>
<pdfrwt beam="1">  1        2 0.44539550E+00 0.10515409E+04</pdfrwt>
<pdfrwt beam="2">  1       -2 0.12075128E+00 0.10515409E+04</pdfrwt>
<totfact> 0.10653238E+00</totfact>
</mgrwt>
</event>
<event>
12    1  0.9321077E-008  0.9035295E+03  0.7818608E-02  0.9421180E-01
          2   -1    0    0  501    0  0.00000000000E+00  0.00000000000E+00  0.50629719848E+04  0.50629719848E+04  0.00000000000E+00 0. -1.
         -2   -1    0    0    0  501 -0.00000000000E+00 -0.00000000000E+00 -0.22365784984E+03  0.22365784984E+03  0.00000000000E+00 0.  1.
         23    2    1    2    0    0  0.96528005804E+02  0.86581217886E+03  0.11328663110E+04  0.14320949117E+04  0.92527685897E+02 0.  0.
    5000000    2    1    2    0    0 -0.96528005804E+02 -0.86581217886E+03  0.37064478240E+04  0.38545349230E+04  0.60061269979E+03 0.  0.
         23    2    4    4    0    0 -0.17994348220E+03 -0.29858942526E+03  0.64661335207E+03  0.74000280855E+03  0.89218988584E+02 0.  0.
         23    2    4    4    0    0  0.83415476393E+02 -0.56722275360E+03  0.30598344720E+04  0.31145321144E+04  0.94992115675E+02 0.  0.
          2    1    3    3  502    0  0.49983961217E+02  0.13962883650E+03  0.18388249593E+03  0.23623585814E+03  0.00000000000E+00 0. -1.
         -2    1    3    3    0  502  0.46544044587E+02  0.72618334235E+03  0.94898381505E+03  0.11958590536E+04  0.00000000000E+00 0.  1.
         15    1    5    5    0    0 -0.11955097771E+03 -0.14914539404E+03  0.42457237186E+03  0.46561963179E+03  0.17770000000E+01 0.  1.
        -15    1    5    5    0    0 -0.60392504484E+02 -0.14944403122E+03  0.22204098021E+03  0.27438317676E+03  0.17770000000E+01 0. -1.
          3    1    6    6  503    0  0.94666095025E+02 -0.39678648154E+03  0.20222325744E+04  0.20629652849E+04  0.00000000000E+00 0. -1.
         -3    1    6    6    0  503 -0.11250618632E+02 -0.17043627206E+03  0.10376018975E+04  0.10515668295E+04  0.00000000000E+00 0.  1.
<mgrwt>
<rscale>  0 0.90352949E+03</rscale>
<asrwt>0</asrwt>
<pdfrwt beam="1">  1        2 0.77891868E+00 0.90352949E+03</pdfrwt>
<pdfrwt beam="2">  1       -2 0.34408904E-01 0.90352949E+03</pdfrwt>
<totfact> 0.25571495E-01</totfact>
</mgrwt>
</event>
<event>
12    1  0.9321077E-008  0.5112408E+03  0.7818608E-02  0.1010886E+00
          1   -1    0    0  501    0  0.00000000000E+00  0.00000000000E+00  0.10293344761E+04  0.10293344761E+04  0.00000000000E+00 0. -1.
         -1   -1    0    0    0  501 -0.00000000000E+00 -0.00000000000E+00 -0.36244334373E+03  0.36244334373E+03  0.00000000000E+00 0.  1.
         23    2    1    2    0    0  0.18300781356E+03  0.40775745745E+03  0.14051345513E+03  0.47699423214E+03  0.89562617719E+02 0.  0.
    5000000    2    1    2    0    0 -0.18300781356E+03 -0.40775745745E+03  0.52637767723E+03  0.91478358768E+03  0.59999795772E+03 0.  0.
         23    2    4    4    0    0 -0.26474554186E+03 -0.20959405915E+03  0.10548140721E+02  0.34927531121E+03  0.88668529816E+02 0.  0.
         23    2    4    4    0    0  0.81737728301E+02 -0.19816339830E+03  0.51582953651E+03  0.56550827647E+03  0.88145966265E+02 0.  0.
          2    1    3    3  502    0  0.92775561536E+02  0.16395981047E+03  0.10190206864E+03  0.21418252931E+03  0.00000000000E+00 0. -1.
         -2    1    3    3    0  502  0.90232252020E+02  0.24379764698E+03  0.38611386488E+02  0.26281170283E+03  0.00000000000E+00 0.  1.
         15    1    5    5    0    0 -0.13669587964E+03 -0.72206851356E+02 -0.29098499203E+02  0.15731965318E+03  0.17770000000E+01 0.  1.
        -15    1    5    5    0    0 -0.12804966222E+03 -0.13738720780E+03  0.39646639924E+02  0.19195565802E+03  0.17770000000E+01 0. -1.
          1    1    6    6  503    0  0.98380754937E+02 -0.13928319654E+03  0.37373375843E+03  0.41079861729E+03  0.00000000000E+00 0. -1.
         -1    1    6    6    0  503 -0.16643026636E+02 -0.58880201760E+02  0.14209577808E+03  0.15470965918E+03  0.00000000000E+00 0.  1.
<mgrwt>
<rscale>  0 0.51124079E+03</rscale>
<asrwt>0</asrwt>
<pdfrwt beam="1">  1        1 0.15835915E+00 0.51124079E+03</pdfrwt>
<pdfrwt beam="2">  1       -1 0.55760515E-01 0.51124079E+03</pdfrwt>
<totfact> 0.49244167E+01</totfact>
</mgrwt>
</event>
<event>
12    1  0.9321077E-008  0.5190733E+03  0.7818608E-02  0.1008917E+00
         -2   -1    0    0    0  501 -0.00000000000E+00  0.00000000000E+00  0.17478801920E+03  0.17478801920E+03  0.00000000000E+00 0. -1.
          2   -1    0    0  501    0  0.00000000000E+00 -0.00000000000E+00 -0.20544015811E+04  0.20544015811E+04  0.00000000000E+00 0.  1.
         23    2    1    2    0    0  0.34803658345E+03 -0.10266615068E+03 -0.22337660597E+03  0.43064365003E+03  0.62346157085E+02 0.  0.
    5000000    2    1    2    0    0 -0.34803658345E+03  0.10266615068E+03 -0.16562369559E+04  0.17985459503E+04  0.59998073226E+03 0.  0.
         23    2    4    4    0    0 -0.43226986373E+03  0.23365638302E+03 -0.99806822626E+03  0.11161182486E+04  0.90151096975E+02 0.  0.
         23    2    4    4    0    0  0.84233280280E+02 -0.13099023234E+03 -0.65816872969E+03  0.68242770162E+03  0.90927469599E+02 0.  0.
          1    1    3    3  502    0  0.19530342522E+03 -0.86861928058E+02 -0.11520076092E+03  0.24281605748E+03  0.00000000000E+00 0. -1.
         -1    1    3    3    0  502  0.15273315823E+03 -0.15804222620E+02 -0.10817584504E+03  0.18782759256E+03  0.00000000000E+00 0.  1.
         15    1    5    5    0    0 -0.35773288642E+03  0.19889697719E+03 -0.89570886615E+03  0.98479965282E+03  0.17770000000E+01 0. -1.
        -15    1    5    5    0    0 -0.74536977315E+02  0.34759405825E+02 -0.10235936011E+03  0.13131859583E+03  0.17770000000E+01 0.  1.
          4    1    6    6  503    0  0.79324626728E+02 -0.41264926840E+02 -0.29130610003E+03  0.30472025615E+03  0.00000000000E+00 0. -1.
         -4    1    6    6    0  503  0.49086535515E+01 -0.89725305499E+02 -0.36686262966E+03  0.37770744548E+03  0.00000000000E+00 0.  1.
<mgrwt>
<rscale>  0 0.51907333E+03</rscale>
<asrwt>0</asrwt>
<pdfrwt beam="1">  1        2 0.31606177E+00 0.51907333E+03</pdfrwt>
<pdfrwt beam="2">  1       -2 0.26890465E-01 0.51907333E+03</pdfrwt>
<totfact> 0.82934714E+01</totfact>
</mgrwt>
</event>
<event>
12    1  0.9321077E-008  0.1229139E+04  0.7818608E-02  0.9087727E-01
          2   -1    0    0  501    0  0.00000000000E+00  0.00000000000E+00  0.24599372830E+04  0.24599372830E+04  0.00000000000E+00 0.  1.
         -2   -1    0    0    0  501 -0.00000000000E+00 -0.00000000000E+00 -0.77921305360E+03  0.77921305360E+03  0.00000000000E+00 0. -1.
         23    2    1    2    0    0  0.10662996452E+04 -0.48178169021E+03  0.15110805107E+04  0.19133170390E+04  0.91155096198E+02 0.  0.
    5000000    2    1    2    0    0 -0.10662996452E+04  0.48178169021E+03  0.16964371874E+03  0.13258332976E+04  0.59995534107E+03 0.  0.
         23    2    4    4    0    0  0.34613037881E+02  0.19494776878E+01 -0.34354318805E+02  0.10412056448E+03  0.91972875748E+02 0.  0.
         23    2    4    4    0    0 -0.11009126831E+04  0.47983221253E+03  0.20399803754E+03  0.12217127331E+04  0.93376201079E+02 0.  0.
          3    1    3    3  502    0  0.94615306518E+03 -0.41656850937E+03  0.13765601901E+04  0.17215263294E+04  0.00000000000E+00 0. -1.
         -3    1    3    3    0  502  0.12014658005E+03 -0.65213180846E+02  0.13452032055E+03  0.19179070961E+03  0.00000000000E+00 0.  1.
         15    1    5    5    0    0  0.75479756080E+01  0.39338552431E+02  0.86406549772E+01  0.41016000422E+02  0.17770000000E+01 0.  1.
        -15    1    5    5    0    0  0.27065062273E+02 -0.37389074743E+02 -0.42994973782E+02  0.63104564062E+02  0.17770000000E+01 0. -1.
          1    1    6    6  503    0 -0.36108958825E+03  0.17616873296E+03  0.27251572127E+02  0.40269561879E+03  0.00000000000E+00 0. -1.
         -1    1    6    6    0  503 -0.73982309486E+03  0.30366347956E+03  0.17674646542E+03  0.81901711432E+03  0.00000000000E+00 0.  1.
<mgrwt>
<rscale>  0 0.12291390E+04</rscale>
<asrwt>0</asrwt>
<pdfrwt beam="1">  1        2 0.37845189E+00 0.12291390E+04</pdfrwt>
<pdfrwt beam="2">  1       -2 0.11987893E+00 0.12291390E+04</pdfrwt>
<totfact> 0.19096243E+00</totfact>
</mgrwt>
</event>
<event>
12    1  0.9321077E-008  0.4517561E+03  0.7818608E-02  0.1027200E+00
          1   -1    0    0  501    0  0.00000000000E+00  0.00000000000E+00  0.13278320773E+04  0.13278320773E+04  0.00000000000E+00 0. -1.
         -1   -1    0    0    0  501 -0.00000000000E+00 -0.00000000000E+00 -0.23337585062E+03  0.23337585062E+03  0.00000000000E+00 0.  1.
         23    2    1    2    0    0 -0.25873038764E+03  0.23613483907E+03  0.15822570318E+03  0.39538345110E+03  0.92691016520E+02 0.  0.
    5000000    2    1    2    0    0  0.25873038764E+03 -0.23613483907E+03  0.93623052347E+03  0.11658244768E+04  0.59993169771E+03 0.  0.
         23    2    4    4    0    0  0.31356101061E+03 -0.29687353301E+03  0.94882847447E+03  0.10465659912E+04  0.92576983630E+02 0.  0.
         23    2    4    4    0    0 -0.54830622969E+02  0.60738693938E+02 -0.12597951000E+02  0.11925848565E+03  0.85838755077E+02 0.  0.
          2    1    3    3  502    0 -0.96308330264E+02  0.63589364958E+02  0.96688720233E+02  0.15055766481E+03  0.00000000000E+00 0.  1.
         -2    1    3    3    0  502 -0.16242205738E+03  0.17254547412E+03  0.61536982952E+02  0.24482578629E+03  0.00000000000E+00 0. -1.
         15    1    5    5    0    0  0.20637895580E+03 -0.22792659744E+03  0.74766933733E+03  0.80842773513E+03  0.17770000000E+01 0.  1.
        -15    1    5    5    0    0  0.10718205481E+03 -0.68946935572E+02  0.20115913714E+03  0.23813825602E+03  0.17770000000E+01 0. -1.
          2    1    6    6  503    0  0.10921436460E+02  0.47998427785E+02 -0.17154410955E+02  0.52128693245E+02  0.00000000000E+00 0. -1.
         -2    1    6    6    0  503 -0.65752059429E+02  0.12740266153E+02  0.45564599553E+01  0.67129792403E+02  0.00000000000E+00 0.  1.
<mgrwt>
<rscale>  0 0.45175612E+03</rscale>
<asrwt>0</asrwt>
<pdfrwt beam="1">  1        1 0.20428185E+00 0.45175612E+03</pdfrwt>
<pdfrwt beam="2">  1       -1 0.35903978E-01 0.45175612E+03</pdfrwt>
<totfact> 0.68127120E+01</totfact>
</mgrwt>
</event>
<event>
12    1  0.2082644E-007  0.6792538E+03  0.7818608E-02  0.9753384E-01
         -2   -1    0    0    0  501 -0.00000000000E+00  0.00000000000E+00  0.29597913711E+03  0.29597913711E+03  0.00000000000E+00 0. -1.
          2   -1    0    0  501    0  0.00000000000E+00 -0.00000000000E+00 -0.17650526880E+04  0.17650526880E+04  0.00000000000E+00 0.  1.
         23    2    1    2    0    0 -0.57236212624E+03 -0.40804369062E+02 -0.38394366137E+03  0.69490770907E+03  0.78870710139E+02 0.  0.
    5000000    2    1    2    0    0  0.57236212624E+03  0.40804369062E+02 -0.10851298895E+04  0.13661241161E+04  0.59960388861E+03 0.  0.
         23    2    4    4    0    0 -0.92361231968E+02  0.31439334127E+02 -0.32712309579E+03  0.35369532671E+03  0.92584207268E+02 0.  0.
         23    2    4    4    0    0  0.66472335821E+03  0.93650349353E+01 -0.75800679373E+03  0.10124287893E+04  0.92156971062E+02 0.  0.
          3    1    3    3  502    0 -0.36566512304E+03 -0.35394896511E+02 -0.28880080239E+03  0.46730042196E+03  0.00000000000E+00 0. -1.
         -3    1    3    3    0  502 -0.20669700320E+03 -0.54094725513E+01 -0.95142858986E+02  0.22760728710E+03  0.00000000000E+00 0.  1.
         15    1    5    5    0    0 -0.49495519403E+02 -0.18605323341E+02 -0.67110282378E+02  0.85457078276E+02  0.17770000000E+01 0. -1.
        -15    1    5    5    0    0 -0.42865712565E+02  0.50044657468E+02 -0.26001281341E+03  0.26823824843E+03  0.17770000000E+01 0.  1.
          3    1    6    6  503    0  0.22858300116E+03 -0.11805161284E+02 -0.20057601747E+03  0.30433581623E+03  0.00000000000E+00 0. -1.
         -3    1    6    6    0  503  0.43614035705E+03  0.21170196219E+02 -0.55743077626E+03  0.70809297312E+03  0.00000000000E+00 0.  1.
<mgrwt>
<rscale>  0 0.67925375E+03</rscale>
<asrwt>0</asrwt>
<pdfrwt beam="1">  1        2 0.27154656E+00 0.67925375E+03</pdfrwt>
<pdfrwt beam="2">  1       -2 0.45535253E-01 0.67925375E+03</pdfrwt>
<totfact> 0.42733723E+01</totfact>
</mgrwt>
</event>
<event>
12    1  0.9321077E-008  0.6613290E+03  0.7818608E-02  0.9785750E-01
         -2   -1    0    0    0  501 -0.00000000000E+00  0.00000000000E+00  0.19081996958E+04  0.19081996958E+04  0.00000000000E+00 0.  1.
          2   -1    0    0  501    0  0.00000000000E+00 -0.00000000000E+00 -0.44141605911E+03  0.44141605911E+03  0.00000000000E+00 0. -1.
         23    2    1    2    0    0 -0.52385752787E+03 -0.10397935038E+03 -0.13539427051E+03  0.55744445652E+03  0.84701232638E+02 0.  0.
    5000000    2    1    2    0    0  0.52385752787E+03  0.10397935038E+03  0.16021779072E+04  0.17921712984E+04  0.59972118658E+03 0.  0.
         23    2    4    4    0    0  0.63429955714E+03  0.14125338390E+03  0.13106947282E+04  0.14657068483E+04  0.89930239230E+02 0.  0.
         23    2    4    4    0    0 -0.11044202927E+03 -0.37274033527E+02  0.29148317902E+03  0.32646445012E+03  0.89609140923E+02 0.  0.
          4    1    3    3  502    0 -0.32382151517E+03 -0.63834228774E+02 -0.40826687914E+02  0.33256879123E+03  0.00000000000E+00 0. -1.
         -4    1    3    3    0  502 -0.20003601270E+03 -0.40145121602E+02 -0.94567582596E+02  0.22487566529E+03  0.00000000000E+00 0.  1.
         15    1    5    5    0    0  0.17066459468E+03  0.56556216903E+02  0.44657024284E+03  0.48140746677E+03  0.17770000000E+01 0. -1.
        -15    1    5    5    0    0  0.46363496246E+03  0.84697167000E+02  0.86412448535E+03  0.98429938150E+03  0.17770000000E+01 0.  1.
          1    1    6    6  503    0 -0.45939691152E+02  0.21026808202E+02  0.55897345951E+02  0.75346500719E+02  0.00000000000E+00 0. -1.
         -1    1    6    6    0  503 -0.64502338116E+02 -0.58300841729E+02  0.23558583307E+03  0.25111794940E+03  0.00000000000E+00 0.  1.
<mgrwt>
<rscale>  0 0.66132902E+03</rscale>
<asrwt>0</asrwt>
<pdfrwt beam="1">  1        2 0.67910164E-01 0.66132902E+03</pdfrwt>
<pdfrwt beam="2">  1       -2 0.29356918E+00 0.66132902E+03</pdfrwt>
<totfact> 0.26079278E+00</totfact>
</mgrwt>
</event>
<event>
12    1  0.9321077E-008  0.6983124E+03  0.7818608E-02  0.9720123E-01
          2   -1    0    0  501    0  0.00000000000E+00  0.00000000000E+00  0.10076643478E+04  0.10076643478E+04  0.00000000000E+00 0. -1.
         -2   -1    0    0    0  501 -0.00000000000E+00 -0.00000000000E+00 -0.65941901384E+03  0.65941901384E+03  0.00000000000E+00 0.  1.
         23    2    1    2    0    0 -0.12603136397E+02  0.57549883908E+03  0.56100927619E+03  0.80876575491E+03  0.89514722367E+02 0.  0.
    5000000    2    1    2    0    0  0.12603136397E+02 -0.57549883908E+03 -0.21276394219E+03  0.85831760676E+03  0.60006905114E+03 0.  0.
         23    2    4    4    0    0 -0.22355715316E+03 -0.48284022478E+02 -0.64509127656E+02  0.25448184062E+03  0.91051809971E+02 0.  0.
         23    2    4    4    0    0  0.23616028956E+03 -0.52721481661E+03 -0.14825481453E+03  0.60383576613E+03  0.94398078455E+02 0.  0.
          1    1    3    3  502    0  0.25762507728E+02  0.23105341195E+03  0.26926881175E+03  0.35574580667E+03  0.00000000000E+00 0. -1.
         -1    1    3    3    0  502 -0.38365644125E+02  0.34444542713E+03  0.29174046444E+03  0.45301994825E+03  0.00000000000E+00 0.  1.
         15    1    5    5    0    0 -0.15069873473E+03 -0.61060064461E+02 -0.10637092650E+02  0.16295626895E+03  0.17770000000E+01 0.  1.
        -15    1    5    5    0    0 -0.72858418431E+02  0.12776041983E+02 -0.53872035006E+02  0.91525571671E+02  0.17770000000E+01 0. -1.
          4    1    6    6  503    0  0.90377018761E+02 -0.27707745429E+03 -0.11127263433E+03  0.31196397283E+03  0.00000000000E+00 0. -1.
         -4    1    6    6    0  503  0.14578327080E+03 -0.25013736232E+03 -0.36982180205E+02  0.29187179330E+03  0.00000000000E+00 0.  1.
<mgrwt>
<rscale>  0 0.69831241E+03</rscale>
<asrwt>0</asrwt>
<pdfrwt beam="1">  1        2 0.15502528E+00 0.69831241E+03</pdfrwt>
<pdfrwt beam="2">  1       -2 0.10144908E+00 0.69831241E+03</pdfrwt>
<totfact> 0.20322228E+01</totfact>
</mgrwt>
</event>
<event>
12    1  0.9321077E-008  0.2192765E+04  0.7818608E-02  0.8521445E-01
          1   -1    0    0  501    0  0.00000000000E+00  0.00000000000E+00  0.43984820668E+04  0.43984820668E+04  0.00000000000E+00 0. -1.
         -1   -1    0    0    0  501 -0.00000000000E+00 -0.00000000000E+00 -0.12618837002E+04  0.12618837002E+04  0.00000000000E+00 0.  1.
         23    2    1    2    0    0  0.58053169304E+03  0.20887699924E+04  0.56208061666E+03  0.22415669072E+04  0.93329803188E+02 0.  0.
    5000000    2    1    2    0    0 -0.58053169304E+03 -0.20887699924E+04  0.25745177500E+04  0.34187988598E+04  0.60005572308E+03 0.  0.
         23    2    4    4    0    0 -0.55059083148E+03 -0.11631838638E+04  0.17593114785E+04  0.21816259541E+04  0.90376769983E+02 0.  0.
         23    2    4    4    0    0 -0.29940861568E+02 -0.92558612864E+03  0.81520627148E+03  0.12371729057E+04  0.91811746312E+02 0.  0.
          3    1    3    3  502    0  0.32251873692E+03  0.12559913457E+04  0.29684714347E+03  0.13302822342E+04  0.00000000000E+00 0. -1.
         -3    1    3    3    0  502  0.25801295612E+03  0.83277864673E+03  0.26523347319E+03  0.91128467302E+03  0.00000000000E+00 0.  1.
         15    1    5    5    0    0 -0.33586745046E+03 -0.73064438539E+03  0.11705384968E+04  0.14201449547E+04  0.17770000000E+01 0. -1.
        -15    1    5    5    0    0 -0.21472338101E+03 -0.43253947836E+03  0.58877298176E+03  0.76148099941E+03  0.17770000000E+01 0.  1.
          4    1    6    6  503    0  0.29063052514E+02 -0.38913117861E+03  0.31841806654E+03  0.50364451778E+03  0.00000000000E+00 0.  1.
         -4    1    6    6    0  503 -0.59003914082E+02 -0.53645495003E+03  0.49678820494E+03  0.73352838790E+03  0.00000000000E+00 0. -1.
<mgrwt>
<rscale>  0 0.21927650E+04</rscale>
<asrwt>0</asrwt>
<pdfrwt beam="1">  1        1 0.67668954E+00 0.21927650E+04</pdfrwt>
<pdfrwt beam="2">  1       -1 0.19413596E+00 0.21927650E+04</pdfrwt>
<totfact> 0.59248062E-03</totfact>
</mgrwt>
</event>
<event>
12    1  0.9321077E-008  0.6385910E+03  0.7818608E-02  0.9828426E-01
          2   -1    0    0  501    0  0.00000000000E+00  0.00000000000E+00  0.30456349125E+04  0.30456349125E+04  0.00000000000E+00 0.  1.
         -2   -1    0    0    0  501 -0.00000000000E+00 -0.00000000000E+00 -0.14151180974E+03  0.14151180974E+03  0.00000000000E+00 0. -1.
         23    2    1    2    0    0 -0.37530664690E+03 -0.33382131569E+03  0.88676662182E+03  0.10233252215E+04  0.92453866083E+02 0.  0.
    5000000    2    1    2    0    0  0.37530664690E+03  0.33382131569E+03  0.20173564810E+04  0.21638215008E+04  0.60008713191E+03 0.  0.
         23    2    4    4    0    0  0.51936292349E+03  0.20247165255E+03  0.15251814863E+04  0.16269502878E+04  0.10027989056E+03 0.  0.
         23    2    4    4    0    0 -0.14405627659E+03  0.13134966314E+03  0.49217499467E+03  0.53687121297E+03  0.89384165846E+02 0.  0.
          3    1    3    3  502    0 -0.25340987531E+03 -0.19391435529E+03  0.48199942818E+03  0.57805085491E+03  0.00000000000E+00 0. -1.
         -3    1    3    3    0  502 -0.12189677159E+03 -0.13990696040E+03  0.40476719364E+03  0.44527436658E+03  0.00000000000E+00 0.  1.
         15    1    5    5    0    0  0.47194844429E+03  0.19202070914E+03  0.12936130502E+04  0.13903399470E+04  0.17770000000E+01 0.  1.
        -15    1    5    5    0    0  0.47414479205E+02  0.10450943411E+02  0.23156843610E+03  0.23661034082E+03  0.17770000000E+01 0. -1.
          2    1    6    6  503    0 -0.38119237807E+02  0.95103765623E+02  0.24024654942E+03  0.26118232527E+03  0.00000000000E+00 0.  1.
         -2    1    6    6    0  503 -0.10593703878E+03  0.36245897516E+02  0.25192844525E+03  0.27568888770E+03  0.00000000000E+00 0. -1.
<mgrwt>
<rscale>  0 0.63859101E+03</rscale>
<asrwt>0</asrwt>
<pdfrwt beam="1">  1        2 0.46855917E+00 0.63859101E+03</pdfrwt>
<pdfrwt beam="2">  1       -2 0.21771050E-01 0.63859101E+03</pdfrwt>
<totfact> 0.32294244E+01</totfact>
</mgrwt>
</event>
<event>
12    1  0.9321077E-008  0.2358999E+04  0.7818608E-02  0.8455015E-01
          2   -1    0    0  501    0  0.00000000000E+00  0.00000000000E+00  0.32847320212E+04  0.32847320212E+04  0.00000000000E+00 0. -1.
         -2   -1    0    0    0  501 -0.00000000000E+00 -0.00000000000E+00 -0.21638093149E+04  0.21638093149E+04  0.00000000000E+00 0.  1.
         23    2    1    2    0    0 -0.20367302581E+04  0.11230354405E+04  0.18112540936E+04  0.29493555547E+04  0.92617770443E+02 0.  0.
    5000000    2    1    2    0    0  0.20367302581E+04 -0.11230354405E+04 -0.69033138729E+03  0.24991857815E+04  0.59991116095E+03 0.  0.
         23    2    4    4    0    0  0.11290774413E+04 -0.91800635301E+03 -0.31437067110E+03  0.14915369946E+04  0.91116161600E+02 0.  0.
         23    2    4    4    0    0  0.90765281679E+03 -0.20502908753E+03 -0.37596071619E+03  0.10076487868E+04  0.90216710785E+02 0.  0.
          2    1    3    3  502    0 -0.15369018931E+04  0.89197397768E+03  0.13893429646E+04  0.22556504337E+04  0.00000000000E+00 0. -1.
         -2    1    3    3    0  502 -0.49982836496E+03  0.23106146287E+03  0.42191112903E+03  0.69370512096E+03  0.00000000000E+00 0.  1.
         15    1    5    5    0    0  0.47413547244E+03 -0.41664362986E+03 -0.17531878174E+03  0.65508487502E+03  0.17770000000E+01 0. -1.
        -15    1    5    5    0    0  0.65494196886E+03 -0.50136272315E+03 -0.13905188937E+03  0.83645211961E+03  0.17770000000E+01 0.  1.
          3    1    6    6  503    0  0.10919598836E+03  0.30241248137E+01 -0.55017894915E+02  0.12231057994E+03  0.00000000000E+00 0. -1.
         -3    1    6    6    0  503  0.79845682843E+03 -0.20805321235E+03 -0.32094282128E+03  0.88533820689E+03  0.00000000000E+00 0.  1.
<mgrwt>
<rscale>  0 0.23589988E+04</rscale>
<asrwt>0</asrwt>
<pdfrwt beam="1">  1        2 0.50534338E+00 0.23589988E+04</pdfrwt>
<pdfrwt beam="2">  1       -2 0.33289374E+00 0.23589988E+04</pdfrwt>
<totfact> 0.19295428E-02</totfact>
</mgrwt>
</event>
<event>
12    1  0.9321077E-008  0.3771960E+03  0.7818608E-02  0.1051975E+00
         -1   -1    0    0    0  501 -0.00000000000E+00  0.00000000000E+00  0.49556444353E+03  0.49556444353E+03  0.00000000000E+00 0.  1.
          1   -1    0    0  501    0  0.00000000000E+00 -0.00000000000E+00 -0.47047205664E+03  0.47047205664E+03  0.00000000000E+00 0. -1.
         23    2    1    2    0    0  0.15025469466E+03  0.19778116271E+02  0.25207274784E+03  0.30698287405E+03  0.87921371721E+02 0.  0.
    5000000    2    1    2    0    0 -0.15025469466E+03 -0.19778116271E+02 -0.22698036095E+03  0.65905362611E+03  0.59988661486E+03 0.  0.
         23    2    4    4    0    0  0.15275148300E+03  0.15491334800E+03 -0.17689514148E+03  0.29428277912E+03  0.89326939142E+02 0.  0.
         23    2    4    4    0    0 -0.30300617766E+03 -0.17469146427E+03 -0.50085219472E+02  0.36477084700E+03  0.90660852734E+02 0.  0.
          2    1    3    3  502    0  0.11051667836E+03  0.46343988962E+02  0.13494419005E+03  0.18047613675E+03  0.00000000000E+00 0. -1.
         -2    1    3    3    0  502  0.39738016298E+02 -0.26565872691E+02  0.11712855780E+03  0.12650673730E+03  0.00000000000E+00 0.  1.
         15    1    5    5    0    0  0.79151608170E+02  0.35059746406E+02 -0.31913251985E+02  0.92280963774E+02  0.17770000000E+01 0. -1.
        -15    1    5    5    0    0  0.73599874834E+02  0.11985360160E+03 -0.14498188949E+03  0.20200181534E+03  0.17770000000E+01 0.  1.
          1    1    6    6  503    0 -0.16830690274E+03 -0.49058324903E+02 -0.42660493427E+02  0.18042685624E+03  0.00000000000E+00 0. -1.
         -1    1    6    6    0  503 -0.13469927492E+03 -0.12563313937E+03 -0.74247260451E+01  0.18434399076E+03  0.00000000000E+00 0.  1.
<mgrwt>
<rscale>  0 0.37719601E+03</rscale>
<asrwt>0</asrwt>
<pdfrwt beam="1">  1        1 0.72380316E-01 0.37719601E+03</pdfrwt>
<pdfrwt beam="2">  1       -1 0.76240684E-01 0.37719601E+03</pdfrwt>
<totfact> 0.87877208E+01</totfact>
</mgrwt>
</event>
<event>
12    1  0.9321077E-008  0.1275843E+04  0.7818608E-02  0.9048944E-01
          2   -1    0    0  501    0  0.00000000000E+00  0.00000000000E+00  0.12175654512E+04  0.12175654512E+04  0.00000000000E+00 0. -1.
         -2   -1    0    0    0  501 -0.00000000000E+00 -0.00000000000E+00 -0.13884037664E+04  0.13884037664E+04  0.00000000000E+00 0.  1.
         23    2    1    2    0    0  0.46652172049E+03 -0.11368832560E+04 -0.10279644226E+03  0.12366549110E+04  0.92748082584E+02 0.  0.
    5000000    2    1    2    0    0 -0.46652172049E+03  0.11368832560E+04 -0.68041872867E+02  0.13693143066E+04  0.60020489855E+03 0.  0.
         23    2    4    4    0    0  0.97964248460E+02  0.20779839454E+03 -0.11867363477E+03  0.27612153778E+03  0.96863333041E+02 0.  0.
         23    2    4    4    0    0 -0.56448596895E+03  0.92908486150E+03  0.50631761903E+02  0.10931927688E+04  0.10326550958E+03 0.  0.
          4    1    3    3  502    0  0.38092924188E+03 -0.97437061621E+03 -0.11549419298E+03  0.10525417301E+04  0.00000000000E+00 0. -1.
         -4    1    3    3    0  502  0.85592478610E+02 -0.16251263982E+03  0.12697750721E+02  0.18411318087E+03  0.00000000000E+00 0.  1.
         15    1    5    5    0    0  0.27325036682E+02  0.66034014988E+02 -0.90349902193E+02  0.11521029173E+03  0.17770000000E+01 0.  1.
        -15    1    5    5    0    0  0.70639211778E+02  0.14176437955E+03 -0.28323732578E+02  0.16091124605E+03  0.17770000000E+01 0. -1.
          3    1    6    6  503    0 -0.42765845401E+02  0.13660041746E+03  0.11111128703E+02  0.14356896867E+03  0.00000000000E+00 0. -1.
         -3    1    6    6    0  503 -0.52172012355E+03  0.79248444403E+03  0.39520633201E+02  0.94962380014E+03  0.00000000000E+00 0.  1.
<mgrwt>
<rscale>  0 0.12758428E+04</rscale>
<asrwt>0</asrwt>
<pdfrwt beam="1">  1        2 0.18731776E+00 0.12758428E+04</pdfrwt>
<pdfrwt beam="2">  1       -2 0.21360058E+00 0.12758428E+04</pdfrwt>
<totfact> 0.19345552E+00</totfact>
</mgrwt>
</event>
<event>
12    1  0.9321077E-008  0.5514411E+03  0.7818608E-02  0.1001161E+00
          2   -1    0    0  501    0  0.00000000000E+00  0.00000000000E+00  0.10849510090E+04  0.10849510090E+04  0.00000000000E+00 0. -1.
         -2   -1    0    0    0  501 -0.00000000000E+00 -0.00000000000E+00 -0.41919012817E+03  0.41919012817E+03  0.00000000000E+00 0.  1.
         23    2    1    2    0    0  0.14374753436E+03 -0.36624660276E+03 -0.13829352003E+03  0.42651362863E+03  0.89380367256E+02 0.  0.
    5000000    2    1    2    0    0 -0.14374753436E+03  0.36624660276E+03  0.80405440086E+03  0.10776275085E+04  0.59998136636E+03 0.  0.
         23    2    4    4    0    0  0.20543295642E+03  0.25349812613E+03  0.40701361153E+03  0.52938959616E+03  0.90162436845E+02 0.  0.
         23    2    4    4    0    0 -0.34918049079E+03  0.11274847663E+03  0.39704078932E+03  0.54823791239E+03  0.91017504149E+02 0.  0.
          4    1    3    3  502    0  0.13117376869E+02 -0.13220759515E+03 -0.23411745088E+02  0.13490375681E+03  0.00000000000E+00 0.  1.
         -4    1    3    3    0  502  0.13063015749E+03 -0.23403900761E+03 -0.11488177494E+03  0.29160987182E+03  0.00000000000E+00 0. -1.
         15    1    5    5    0    0  0.16286082368E+03  0.22998855154E+03  0.38190510036E+03  0.47462937661E+03  0.17770000000E+01 0.  1.
        -15    1    5    5    0    0  0.42572132742E+02  0.23509574585E+02  0.25108511176E+02  0.54760219556E+02  0.17770000000E+01 0. -1.
          1    1    6    6  503    0 -0.76521889394E+02  0.14964953339E+00  0.44360714986E+02  0.88450522811E+02  0.00000000000E+00 0. -1.
         -1    1    6    6    0  503 -0.27265860139E+03  0.11259882710E+03  0.35268007434E+03  0.45978738958E+03  0.00000000000E+00 0.  1.
<mgrwt>
<rscale>  0 0.55144114E+03</rscale>
<asrwt>0</asrwt>
<pdfrwt beam="1">  1        2 0.16691554E+00 0.55144114E+03</pdfrwt>
<pdfrwt beam="2">  1       -2 0.64490790E-01 0.55144114E+03</pdfrwt>
<totfact> 0.51286312E+01</totfact>
</mgrwt>
</event>
<event>
12    1  0.9321077E-008  0.7363623E+03  0.7818608E-02  0.9656992E-01
         -2   -1    0    0    0  501 -0.00000000000E+00  0.00000000000E+00  0.35811789064E+03  0.35811789064E+03  0.00000000000E+00 0. -1.
          2   -1    0    0  501    0  0.00000000000E+00 -0.00000000000E+00 -0.19703370032E+04  0.19703370032E+04  0.00000000000E+00 0.  1.
         23    2    1    2    0    0 -0.24069292347E+03 -0.64038171704E+03 -0.10576731478E+04  0.12629770598E+04  0.91742787969E+02 0.  0.
    5000000    2    1    2    0    0  0.24069292347E+03  0.64038171704E+03 -0.55454596480E+03  0.10654778341E+04  0.59974991526E+03 0.  0.
         23    2    4    4    0    0 -0.76572756208E+02  0.29113238116E+03  0.22455955078E+02  0.31507558283E+03  0.90260194027E+02 0.  0.
         23    2    4    4    0    0  0.31726567968E+03  0.34924933588E+03 -0.57700191988E+03  0.75040225122E+03  0.86831520657E+02 0.  0.
          1    1    3    3  502    0 -0.14266338519E+03 -0.49235783299E+03 -0.77640212527E+03  0.93035978917E+03  0.00000000000E+00 0. -1.
         -1    1    3    3    0  502 -0.98029538280E+02 -0.14802388406E+03 -0.28127102252E+03  0.33261727065E+03  0.00000000000E+00 0.  1.
         15    1    5    5    0    0 -0.29453144777E+02  0.23517149106E+03 -0.45890124646E+01  0.23705977033E+03  0.17770000000E+01 0. -1.
        -15    1    5    5    0    0 -0.47119611431E+02  0.55960890102E+02  0.27044967543E+02  0.78015812505E+02  0.17770000000E+01 0.  1.
          4    1    6    6  503    0  0.33192760383E+02  0.47545305311E+02 -0.12136917155E+03  0.13450944652E+03  0.00000000000E+00 0. -1.
         -4    1    6    6    0  503  0.28407291930E+03  0.30170403057E+03 -0.45563274832E+03  0.61589280470E+03  0.00000000000E+00 0.  1.
<mgrwt>
<rscale>  0 0.73636229E+03</rscale>
<asrwt>0</asrwt>
<pdfrwt beam="1">  1        2 0.30312877E+00 0.73636229E+03</pdfrwt>
<pdfrwt beam="2">  1       -2 0.55095061E-01 0.73636229E+03</pdfrwt>
<totfact> 0.22250625E+01</totfact>
</mgrwt>
</event>
<event>
12    1  0.9321077E-008  0.9511911E+03  0.7818608E-02  0.9363759E-01
         -2   -1    0    0    0  501 -0.00000000000E+00  0.00000000000E+00  0.83087556634E+03  0.83087556634E+03  0.00000000000E+00 0.  1.
          2   -1    0    0  501    0  0.00000000000E+00 -0.00000000000E+00 -0.11166433082E+04  0.11166433082E+04  0.00000000000E+00 0. -1.
         23    2    1    2    0    0  0.78239800873E+03 -0.37037022447E+03 -0.17798941521E+03  0.88848861127E+03  0.91711685160E+02 0.  0.
    5000000    2    1    2    0    0 -0.78239800873E+03  0.37037022447E+03 -0.10777832668E+03  0.10590302633E+04  0.60050660581E+03 0.  0.
         23    2    4    4    0    0 -0.37611383862E+03 -0.11622595360E+03  0.27928761229E+02  0.40477441278E+03  0.89956754322E+02 0.  0.
         23    2    4    4    0    0 -0.40628417011E+03  0.48659617806E+03 -0.13570708791E+03  0.65425585051E+03  0.88270248825E+02 0.  0.
          2    1    3    3  502    0  0.33093253175E+03 -0.11554924113E+03 -0.45968498853E+02  0.35352661934E+03  0.00000000000E+00 0. -1.
         -2    1    3    3    0  502  0.45146547698E+03 -0.25482098334E+03 -0.13202091635E+03  0.53496199193E+03  0.00000000000E+00 0.  1.
         15    1    5    5    0    0 -0.23593611869E+03 -0.64690610417E+02  0.60240382891E+02  0.25195791045E+03  0.17770000000E+01 0. -1.
        -15    1    5    5    0    0 -0.14017771992E+03 -0.51535343180E+02 -0.32311621662E+02  0.15281650233E+03  0.17770000000E+01 0.  1.
          1    1    6    6  503    0 -0.24163887161E+03  0.35100543335E+03 -0.10372474763E+03  0.43858064457E+03  0.00000000000E+00 0. -1.
         -1    1    6    6    0  503 -0.16464529850E+03  0.13559074471E+03 -0.31982340277E+02  0.21567520594E+03  0.00000000000E+00 0.  1.
<mgrwt>
<rscale>  0 0.95119115E+03</rscale>
<asrwt>0</asrwt>
<pdfrwt beam="1">  1        2 0.17179128E+00 0.95119115E+03</pdfrwt>
<pdfrwt beam="2">  1       -2 0.12782701E+00 0.95119115E+03</pdfrwt>
<totfact> 0.96117439E+00</totfact>
</mgrwt>
</event>
<event>
12    1  0.9321077E-008  0.1310778E+04  0.7818608E-02  0.9021061E-01
          2   -1    0    0  501    0  0.00000000000E+00  0.00000000000E+00  0.94112002254E+03  0.94112002254E+03  0.00000000000E+00 0. -1.
         -2   -1    0    0    0  501 -0.00000000000E+00 -0.00000000000E+00 -0.18785126426E+04  0.18785126426E+04  0.00000000000E+00 0.  1.
         23    2    1    2    0    0  0.95743777275E+03  0.80711032618E+03 -0.29463537393E+03  0.12895482789E+04  0.89501914701E+02 0.  0.
    5000000    2    1    2    0    0 -0.95743777275E+03 -0.80711032618E+03 -0.64275724611E+03  0.15300843862E+04  0.59992264853E+03 0.  0.
         23    2    4    4    0    0  0.27296547834E+02 -0.20522560800E+03 -0.66708085190E+02  0.23719679959E+03  0.94602861486E+02 0.  0.
         23    2    4    4    0    0 -0.98473432058E+03 -0.60188471818E+03 -0.57604916092E+03  0.12928875866E+04  0.88083935908E+02 0.  0.
          2    1    3    3  502    0  0.61266371354E+03  0.46202359515E+03 -0.16671984487E+03  0.78525036456E+03  0.00000000000E+00 0. -1.
         -2    1    3    3    0  502  0.34477405920E+03  0.34508673104E+03 -0.12791552906E+03  0.50429791435E+03  0.00000000000E+00 0.  1.
         15    1    5    5    0    0  0.23953246908E+02 -0.70628971271E+02  0.19759919072E+02  0.77173970683E+02  0.17770000000E+01 0. -1.
        -15    1    5    5    0    0  0.33433009260E+01 -0.13459663673E+03 -0.86468004263E+02  0.16002282891E+03  0.17770000000E+01 0.  1.
          2    1    6    6  503    0 -0.83013043130E+02 -0.80044597307E+02 -0.66539003747E+02  0.13313805582E+03  0.00000000000E+00 0.  1.
         -2    1    6    6    0  503 -0.90172127745E+03 -0.52184012088E+03 -0.50951015717E+03  0.11597495308E+04  0.00000000000E+00 0. -1.
<mgrwt>
<rscale>  0 0.13107784E+04</rscale>
<asrwt>0</asrwt>
<pdfrwt beam="1">  1        2 0.14478770E+00 0.13107784E+04</pdfrwt>
<pdfrwt beam="2">  1       -2 0.28900194E+00 0.13107784E+04</pdfrwt>
<totfact> 0.98667931E-01</totfact>
</mgrwt>
</event>
<event>
12    1  0.9321077E-008  0.5653289E+03  0.7818608E-02  0.9980069E-01
         -1   -1    0    0    0  501 -0.00000000000E+00  0.00000000000E+00  0.41643643393E+03  0.41643643393E+03  0.00000000000E+00 0.  1.
          1   -1    0    0  501    0  0.00000000000E+00 -0.00000000000E+00 -0.14365449921E+04  0.14365449921E+04  0.00000000000E+00 0. -1.
         23    2    1    2    0    0 -0.39527425423E+03  0.36590407853E+03 -0.87846194154E+03  0.10344476173E+04  0.90878817273E+02 0.  0.
    5000000    2    1    2    0    0  0.39527425423E+03 -0.36590407853E+03 -0.14164661665E+03  0.81853380877E+03  0.59983856274E+03 0.  0.
         23    2    4    4    0    0 -0.96579530201E+01 -0.64028037718E+02  0.18202744770E+03  0.21192590072E+03  0.87096096408E+02 0.  0.
         23    2    4    4    0    0  0.40493220725E+03 -0.30187604081E+03 -0.32367406435E+03  0.60660790805E+03  0.90050084359E+02 0.  0.
          4    1    3    3  502    0 -0.15021850434E+03  0.19100888063E+03 -0.43862760657E+03  0.50144208915E+03  0.00000000000E+00 0. -1.
         -4    1    3    3    0  502 -0.24505574990E+03  0.17489519790E+03 -0.43983433497E+03  0.53300552814E+03  0.00000000000E+00 0.  1.
         15    1    5    5    0    0  0.19511654718E+01  0.39007779890E+01  0.11720392948E+03  0.11729851632E+03  0.17770000000E+01 0.  1.
        -15    1    5    5    0    0 -0.11609118492E+02 -0.67928815707E+02  0.64823518218E+02  0.94627384401E+02  0.17770000000E+01 0. -1.
          2    1    6    6  503    0  0.22511247730E+03 -0.22205960430E+03 -0.19385230535E+03  0.37089730599E+03  0.00000000000E+00 0. -1.
         -2    1    6    6    0  503  0.17981972995E+03 -0.79816436513E+02 -0.12982175899E+03  0.23571060206E+03  0.00000000000E+00 0.  1.
<mgrwt>
<rscale>  0 0.56532891E+03</rscale>
<asrwt>0</asrwt>
<pdfrwt beam="1">  1        1 0.22100692E+00 0.56532891E+03</pdfrwt>
<pdfrwt beam="2">  1       -1 0.64067144E-01 0.56532891E+03</pdfrwt>
<totfact> 0.19038634E+01</totfact>
</mgrwt>
</event>
<event>
12    1  0.9321077E-008  0.5339854E+03  0.7818608E-02  0.1005270E+00
          2   -1    0    0  501    0  0.00000000000E+00  0.00000000000E+00  0.58110438208E+03  0.58110438208E+03  0.00000000000E+00 0. -1.
         -2   -1    0    0    0  501 -0.00000000000E+00 -0.00000000000E+00 -0.64828950702E+03  0.64828950702E+03  0.00000000000E+00 0.  1.
         23    2    1    2    0    0  0.23726223894E+03  0.29280226419E+03 -0.29289374362E+03  0.48582551078E+03  0.90626408586E+02 0.  0.
    5000000    2    1    2    0    0 -0.23726223894E+03 -0.29280226419E+03  0.22570861868E+03  0.74356837832E+03  0.59993584386E+03 0.  0.
         23    2    4    4    0    0 -0.21649428507E+03 -0.45856283939E+03  0.13749905905E+03  0.53341376904E+03  0.92057615803E+02 0.  0.
         23    2    4    4    0    0 -0.20767953867E+02  0.16576057520E+03  0.88209559627E+02  0.21015460928E+03  0.92066047997E+02 0.  0.
          3    1    3    3  502    0  0.17924101329E+02  0.74472770596E+01 -0.44417257218E+02  0.48472962389E+02  0.00000000000E+00 0. -1.
         -3    1    3    3    0  502  0.21933813761E+03  0.28535498713E+03 -0.24847648640E+03  0.43735254839E+03  0.00000000000E+00 0.  1.
         15    1    5    5    0    0 -0.82424540889E+02 -0.84693847129E+02  0.32763791769E+02  0.12265185063E+03  0.17770000000E+01 0.  1.
        -15    1    5    5    0    0 -0.13406974418E+03 -0.37386899226E+03  0.10473526728E+03  0.41076191841E+03  0.17770000000E+01 0. -1.
          3    1    6    6  503    0  0.14130972940E+02  0.68359399719E+02  0.80283714506E+02  0.10638687297E+03  0.00000000000E+00 0. -1.
         -3    1    6    6    0  503 -0.34898926807E+02  0.97401175480E+02  0.79258451205E+01  0.10376773631E+03  0.00000000000E+00 0.  1.
<mgrwt>
<rscale>  0 0.53398537E+03</rscale>
<asrwt>0</asrwt>
<pdfrwt beam="1">  1        2 0.89400674E-01 0.53398537E+03</pdfrwt>
<pdfrwt beam="2">  1       -2 0.99736847E-01 0.53398537E+03</pdfrwt>
<totfact> 0.44184661E+01</totfact>
</mgrwt>
</event>
<event>
12    1  0.9321077E-008  0.3110947E+03  0.7818608E-02  0.1079822E+00
          1   -1    0    0  501    0  0.00000000000E+00  0.00000000000E+00  0.26847743572E+03  0.26847743572E+03  0.00000000000E+00 0. -1.
         -1   -1    0    0    0  501 -0.00000000000E+00 -0.00000000000E+00 -0.47820753667E+03  0.47820753667E+03  0.00000000000E+00 0.  1.
         23    2    1    2    0    0 -0.29867654586E+02  0.53212774362E+02 -0.47149852124E+02  0.12243244724E+03  0.95094266048E+02 0.  0.
    5000000    2    1    2    0    0  0.29867654586E+02 -0.53212774362E+02 -0.16258024882E+03  0.62425252516E+03  0.59961254299E+03 0.  0.
         23    2    4    4    0    0  0.22389465640E+03 -0.16546134032E+03  0.54457268236E+02  0.29780666798E+03  0.90647366899E+02 0.  0.
         23    2    4    4    0    0 -0.19402700181E+03  0.11224856596E+03 -0.21703751706E+03  0.32644585718E+03  0.95996853423E+02 0.  0.
          3    1    3    3  502    0  0.12210400137E+02  0.63252804024E+02 -0.95658398992E+01  0.65126925165E+02  0.00000000000E+00 0. -1.
         -3    1    3    3    0  502 -0.42078054723E+02 -0.10040029662E+02 -0.37584012225E+02  0.57305522071E+02  0.00000000000E+00 0.  1.
         15    1    5    5    0    0  0.58016745703E+02 -0.19373331625E+02  0.46084785786E+02  0.76604399157E+02  0.17770000000E+01 0.  1.
        -15    1    5    5    0    0  0.16587791069E+03 -0.14608800870E+03  0.83724824491E+01  0.22120226882E+03  0.17770000000E+01 0. -1.
          2    1    6    6  503    0 -0.16014563082E+03  0.11662511266E+03 -0.21479868266E+03  0.29220970903E+03  0.00000000000E+00 0. -1.
         -2    1    6    6    0  503 -0.33881370986E+02 -0.43765467016E+01 -0.22388343957E+01  0.34236148153E+02  0.00000000000E+00 0.  1.
<mgrwt>
<rscale>  0 0.31109469E+03</rscale>
<asrwt>0</asrwt>
<pdfrwt beam="1">  1        1 0.41304221E-01 0.31109469E+03</pdfrwt>
<pdfrwt beam="2">  1       -1 0.73570390E-01 0.31109469E+03</pdfrwt>
<totfact> 0.19635326E+02</totfact>
</mgrwt>
</event>
<event>
12    1  0.9321077E-008  0.7008737E+03  0.7818608E-02  0.9715739E-01
          2   -1    0    0  501    0  0.00000000000E+00  0.00000000000E+00  0.21575294759E+04  0.21575294759E+04  0.00000000000E+00 0. -1.
         -2   -1    0    0    0  501 -0.00000000000E+00 -0.00000000000E+00 -0.24400083669E+03  0.24400083669E+03  0.00000000000E+00 0.  1.
         23    2    1    2    0    0 -0.40899779618E+03  0.41134903874E+03  0.56003943614E+03  0.81139116955E+03  0.90687546201E+02 0.  0.
    5000000    2    1    2    0    0  0.40899779618E+03 -0.41134903874E+03  0.13534892031E+04  0.15901391430E+04  0.60010186003E+03 0.  0.
         23    2    4    4    0    0 -0.12266938905E+02  0.11972361866E+03  0.24109442757E+03  0.28431616238E+03  0.90691424794E+02 0.  0.
         23    2    4    4    0    0  0.42126473509E+03 -0.53107265740E+03  0.11123947755E+04  0.13058229806E+04  0.90826074199E+02 0.  0.
          3    1    3    3  502    0 -0.14367980213E+03  0.86728676500E+02  0.16455436238E+03  0.23504018177E+03  0.00000000000E+00 0. -1.
         -3    1    3    3    0  502 -0.26531799406E+03  0.32462036224E+03  0.39548507376E+03  0.57635098778E+03  0.00000000000E+00 0.  1.
         15    1    5    5    0    0 -0.37239469686E+02  0.51806132102E+02  0.17507296946E+03  0.18634472301E+03  0.17770000000E+01 0.  1.
        -15    1    5    5    0    0  0.24972530781E+02  0.67917486562E+02  0.66021458107E+02  0.97971439379E+02  0.17770000000E+01 0. -1.
          3    1    6    6  503    0  0.45107333415E+02 -0.71934723042E+02  0.90780863623E+02  0.12429980333E+03  0.00000000000E+00 0. -1.
         -3    1    6    6    0  503  0.37615740167E+03 -0.45913793436E+03  0.10216139119E+04  0.11815231773E+04  0.00000000000E+00 0.  1.
<mgrwt>
<rscale>  0 0.70087369E+03</rscale>
<asrwt>0</asrwt>
<pdfrwt beam="1">  1        2 0.33192760E+00 0.70087369E+03</pdfrwt>
<pdfrwt beam="2">  1       -2 0.37538592E-01 0.70087369E+03</pdfrwt>
<totfact> 0.38030067E+01</totfact>
</mgrwt>
</event>
<event>
12    1  0.9321077E-008  0.1208987E+04  0.7818608E-02  0.9105026E-01
          1   -1    0    0  501    0  0.00000000000E+00  0.00000000000E+00  0.29692915877E+04  0.29692915877E+04  0.00000000000E+00 0. -1.
         -1   -1    0    0    0  501 -0.00000000000E+00 -0.00000000000E+00 -0.51311507387E+03  0.51311507387E+03  0.00000000000E+00 0.  1.
         23    2    1    2    0    0  0.61404110883E+03  0.95674434213E+03  0.83565299891E+03  0.14137957162E+04  0.89978736736E+02 0.  0.
    5000000    2    1    2    0    0 -0.61404110883E+03 -0.95674434213E+03  0.16205235149E+04  0.20686109454E+04  0.60054022452E+03 0.  0.
         23    2    4    4    0    0 -0.57129147896E+03 -0.10131224038E+04  0.14300732156E+04  0.18455735540E+04  0.90782059551E+02 0.  0.
         23    2    4    4    0    0 -0.42749629870E+02  0.56378061677E+02  0.19045029936E+03  0.22303739135E+03  0.92023609579E+02 0.  0.
          1    1    3    3  502    0  0.38633178546E+03  0.60802258453E+03  0.47522014756E+03  0.86300515665E+03  0.00000000000E+00 0. -1.
         -1    1    3    3    0  502  0.22770932337E+03  0.34872175760E+03  0.36043285135E+03  0.55079055956E+03  0.00000000000E+00 0.  1.
         15    1    5    5    0    0 -0.27592056080E+03 -0.41756514046E+03  0.65847778338E+03  0.82709670011E+03  0.17770000000E+01 0. -1.
        -15    1    5    5    0    0 -0.29537091816E+03 -0.59555726335E+03  0.77159543219E+03  0.10184768539E+04  0.17770000000E+01 0.  1.
          2    1    6    6  503    0 -0.71807758068E+02  0.35861214459E+02  0.13847367683E+03  0.16005417832E+03  0.00000000000E+00 0. -1.
         -2    1    6    6    0  503  0.29058128198E+02  0.20516847218E+02  0.51976622530E+02  0.62983213031E+02  0.00000000000E+00 0.  1.
<mgrwt>
<rscale>  0 0.12089873E+04</rscale>
<asrwt>0</asrwt>
<pdfrwt beam="1">  1        1 0.45681408E+00 0.12089873E+04</pdfrwt>
<pdfrwt beam="2">  1       -1 0.78940783E-01 0.12089873E+04</pdfrwt>
<totfact> 0.10063794E+00</totfact>
</mgrwt>
</event>
<event>
12    1  0.9321077E-008  0.4177312E+03  0.7818608E-02  0.1037807E+00
         -2   -1    0    0    0  501 -0.00000000000E+00  0.00000000000E+00  0.12607871225E+03  0.12607871225E+03  0.00000000000E+00 0.  1.
          2   -1    0    0  501    0  0.00000000000E+00 -0.00000000000E+00 -0.25559879952E+04  0.25559879952E+04  0.00000000000E+00 0. -1.
         23    2    1    2    0    0 -0.23427597609E+03 -0.32314363239E+03 -0.10113065185E+04  0.10909089542E+04  0.89634992502E+02 0.  0.
    5000000    2    1    2    0    0  0.23427597609E+03  0.32314363239E+03 -0.14186027645E+04  0.15911577532E+04  0.60003512584E+03 0.  0.
         23    2    4    4    0    0  0.16791455147E+03  0.11807795233E+03 -0.13177824838E+04  0.13366937776E+04  0.89787978010E+02 0.  0.
         23    2    4    4    0    0  0.66361424625E+02  0.20506568006E+03 -0.10082028061E+03  0.25446397562E+03  0.90174353812E+02 0.  0.
          1    1    3    3  502    0 -0.16419514694E+02 -0.73416093513E+01 -0.10825583957E+03  0.10973981270E+03  0.00000000000E+00 0. -1.
         -1    1    3    3    0  502 -0.21785646140E+03 -0.31580202304E+03 -0.90305067891E+03  0.98116914149E+03  0.00000000000E+00 0.  1.
         15    1    5    5    0    0  0.15165096784E+03  0.12268888389E+03 -0.10237101582E+04  0.10421306175E+04  0.17770000000E+01 0.  1.
        -15    1    5    5    0    0  0.16263583630E+02 -0.46109315647E+01 -0.29407232566E+03  0.29456316010E+03  0.17770000000E+01 0. -1.
          3    1    6    6  503    0  0.12262209259E+00  0.81905888043E+02  0.27467292840E+00  0.81906440391E+02  0.00000000000E+00 0. -1.
         -3    1    6    6    0  503  0.66238802532E+02  0.12315979202E+03 -0.10109495354E+03  0.17255753523E+03  0.00000000000E+00 0.  1.
<mgrwt>
<rscale>  0 0.41773124E+03</rscale>
<asrwt>0</asrwt>
<pdfrwt beam="1">  1        2 0.39322891E+00 0.41773124E+03</pdfrwt>
<pdfrwt beam="2">  1       -2 0.19396726E-01 0.41773124E+03</pdfrwt>
<totfact> 0.79973780E+01</totfact>
</mgrwt>
</event>
<event>
12    1  0.9321077E-008  0.6075470E+03  0.7818608E-02  0.9889871E-01
          2   -1    0    0  501    0  0.00000000000E+00  0.00000000000E+00  0.10523996698E+04  0.10523996698E+04  0.00000000000E+00 0.  1.
         -2   -1    0    0    0  501 -0.00000000000E+00 -0.00000000000E+00 -0.48826500399E+03  0.48826500399E+03  0.00000000000E+00 0. -1.
         23    2    1    2    0    0  0.20382904691E+03 -0.42965611702E+03  0.60362458804E+03  0.77382737918E+03  0.91079691532E+02 0.  0.
    5000000    2    1    2    0    0 -0.20382904691E+03  0.42965611702E+03 -0.39489922235E+02  0.76683729461E+03  0.60027437326E+03 0.  0.
         23    2    4    4    0    0  0.19194916479E+03  0.91276063806E+02  0.33306741889E+02  0.23387844473E+03  0.91727782960E+02 0.  0.
         23    2    4    4    0    0 -0.39577821170E+03  0.33838005322E+03 -0.72796664124E+02  0.53295884988E+03  0.87202798626E+02 0.  0.
          2    1    3    3  502    0  0.59263871998E+02 -0.12701875822E+03  0.11570578116E+03  0.18175202683E+03  0.00000000000E+00 0. -1.
         -2    1    3    3    0  502  0.14456517491E+03 -0.30263735880E+03  0.48791880688E+03  0.59207535234E+03  0.00000000000E+00 0.  1.
         15    1    5    5    0    0  0.56662312045E+02  0.25430241403E+01 -0.24842311842E+02  0.61946612213E+02  0.17770000000E+01 0. -1.
        -15    1    5    5    0    0  0.13528685274E+03  0.88733039666E+02  0.58149053730E+02  0.17193183252E+03  0.17770000000E+01 0.  1.
          2    1    6    6  503    0 -0.10804068629E+03  0.10247481508E+03 -0.60339149522E+02  0.16066950733E+03  0.00000000000E+00 0. -1.
         -2    1    6    6    0  503 -0.28773752541E+03  0.23590523814E+03 -0.12457514602E+02  0.37228934256E+03  0.00000000000E+00 0.  1.
<mgrwt>
<rscale>  0 0.60754704E+03</rscale>
<asrwt>0</asrwt>
<pdfrwt beam="1">  1        2 0.16190764E+00 0.60754704E+03</pdfrwt>
<pdfrwt beam="2">  1       -2 0.75117693E-01 0.60754704E+03</pdfrwt>
<totfact> 0.38297445E+01</totfact>
</mgrwt>
</event>
<event>
12    1  0.9321077E-008  0.9120434E+03  0.7818608E-02  0.9410651E-01
         -2   -1    0    0    0  501 -0.00000000000E+00  0.00000000000E+00  0.95899249741E+03  0.95899249741E+03  0.00000000000E+00 0.  1.
          2   -1    0    0  501    0  0.00000000000E+00 -0.00000000000E+00 -0.11287410381E+04  0.11287410381E+04  0.00000000000E+00 0. -1.
         23    2    1    2    0    0 -0.26436885166E+03  0.86291983333E+03  0.22468622237E+03  0.93450028591E+03  0.91023938364E+02 0.  0.
    5000000    2    1    2    0    0  0.26436885166E+03 -0.86291983333E+03 -0.39443476303E+03  0.11532332496E+04  0.59987216736E+03 0.  0.
         23    2    4    4    0    0  0.19471054340E+03 -0.42435783507E+03 -0.49732354949E+03  0.68826178310E+03  0.91552178018E+02 0.  0.
         23    2    4    4    0    0  0.69658308262E+02 -0.43856199826E+03  0.10288878645E+03  0.46497146649E+03  0.91779387891E+02 0.  0.
          4    1    3    3  502    0 -0.75376326997E+02  0.30123756124E+03  0.11888395095E+03  0.33250421466E+03  0.00000000000E+00 0.  1.
         -4    1    3    3    0  502 -0.18899252466E+03  0.56168227209E+03  0.10580227142E+03  0.60199607124E+03  0.00000000000E+00 0. -1.
         15    1    5    5    0    0  0.87965606384E+02 -0.29614010727E+03 -0.32482988840E+03  0.44827951678E+03  0.17770000000E+01 0. -1.
        -15    1    5    5    0    0  0.10674493701E+03 -0.12821772780E+03 -0.17249366109E+03  0.23998226632E+03  0.17770000000E+01 0.  1.
          3    1    6    6  503    0  0.17659011685E+02 -0.47935371863E+02  0.42184620786E+02  0.66250907920E+02  0.00000000000E+00 0. -1.
         -3    1    6    6    0  503  0.51999296576E+02 -0.39062662640E+03  0.60704165668E+02  0.39872055857E+03  0.00000000000E+00 0.  1.
<mgrwt>
<rscale>  0 0.91204340E+03</rscale>
<asrwt>0</asrwt>
<pdfrwt beam="1">  1        2 0.17365247E+00 0.91204340E+03</pdfrwt>
<pdfrwt beam="2">  1       -2 0.14753731E+00 0.91204340E+03</pdfrwt>
<totfact> 0.65506640E+00</totfact>
</mgrwt>
</event>
<event>
12    1  0.9321077E-008  0.5786058E+03  0.7818608E-02  0.9950814E-01
         -1   -1    0    0    0  501 -0.00000000000E+00  0.00000000000E+00  0.57815458839E+03  0.57815458839E+03  0.00000000000E+00 0.  1.
          1   -1    0    0  501    0  0.00000000000E+00 -0.00000000000E+00 -0.95339501873E+03  0.95339501873E+03  0.00000000000E+00 0. -1.
         23    2    1    2    0    0  0.52707223457E+03  0.63086580029E+02 -0.48049664876E+03  0.72332867514E+03  0.10267563383E+03 0.  0.
    5000000    2    1    2    0    0 -0.52707223457E+03 -0.63086580029E+02  0.10525621842E+03  0.80822093197E+03  0.60029754816E+03 0.  0.
         23    2    4    4    0    0 -0.33402769322E+02  0.69759158250E+02 -0.18130302821E+03  0.21529781307E+03  0.86604128751E+02 0.  0.
         23    2    4    4    0    0 -0.49366946525E+03 -0.13284573828E+03  0.28655924663E+03  0.59292311890E+03  0.89911578776E+02 0.  0.
          1    1    3    3  502    0  0.16740619555E+03 -0.25971336244E+02 -0.13348861875E+03  0.21568160781E+03  0.00000000000E+00 0. -1.
         -1    1    3    3    0  502  0.35966603903E+03  0.89057916273E+02 -0.34700803001E+03  0.50764706733E+03  0.00000000000E+00 0.  1.
         15    1    5    5    0    0  0.85253184695E+01 -0.86563720311E+01 -0.78098962020E+02  0.79058329285E+02  0.17770000000E+01 0.  1.
        -15    1    5    5    0    0 -0.41928087791E+02  0.78415530281E+02 -0.10320406619E+03  0.13623948379E+03  0.17770000000E+01 0. -1.
          1    1    6    6  503    0 -0.22298040993E+03 -0.23866992826E+02  0.15640769405E+03  0.27341043016E+03  0.00000000000E+00 0. -1.
         -1    1    6    6    0  503 -0.27068905532E+03 -0.10897874545E+03  0.13015155258E+03  0.31951268874E+03  0.00000000000E+00 0.  1.
<mgrwt>
<rscale>  0 0.57860576E+03</rscale>
<asrwt>0</asrwt>
<pdfrwt beam="1">  1        1 0.14667615E+00 0.57860576E+03</pdfrwt>
<pdfrwt beam="2">  1       -1 0.88946861E-01 0.57860576E+03</pdfrwt>
<totfact> 0.21493269E+01</totfact>
</mgrwt>
</event>
<event>
12    1  0.9321077E-008  0.1304157E+04  0.7818608E-02  0.9026275E-01
          1   -1    0    0  501    0  0.00000000000E+00  0.00000000000E+00  0.26614990863E+04  0.26614990863E+04  0.00000000000E+00 0. -1.
         -1   -1    0    0    0  501 -0.00000000000E+00 -0.00000000000E+00 -0.83864778932E+03  0.83864778932E+03  0.00000000000E+00 0.  1.
         23    2    1    2    0    0 -0.11122634093E+04 -0.55633653456E+03  0.43409267736E+02  0.12478173727E+04  0.92323343972E+02 0.  0.
    5000000    2    1    2    0    0  0.11122634093E+04  0.55633653456E+03  0.17794420292E+04  0.22523295029E+04  0.59994501660E+03 0.  0.
         23    2    4    4    0    0  0.33956154383E+03  0.47752883815E+03  0.87005818831E+03  0.10529379604E+04  0.91330521617E+02 0.  0.
         23    2    4    4    0    0  0.77270186544E+03  0.78807696410E+02  0.90938384094E+03  0.11993915425E+04  0.91007011391E+02 0.  0.
          3    1    3    3  502    0 -0.57936471341E+03 -0.30582727660E+03 -0.20978915577E+02  0.65546465134E+03  0.00000000000E+00 0. -1.
         -3    1    3    3    0  502 -0.53289869586E+03 -0.25050925796E+03  0.64388183313E+02  0.59235272137E+03  0.00000000000E+00 0.  1.
         15    1    5    5    0    0  0.33656205475E+03  0.46836551273E+03  0.82365468346E+03  0.10055100524E+04  0.17770000000E+01 0. -1.
        -15    1    5    5    0    0  0.29994890781E+01  0.91633254231E+01  0.46403504847E+02  0.47427908015E+02  0.17770000000E+01 0.  1.
          1    1    6    6  503    0  0.54364469876E+03  0.74174143748E+02  0.58259032875E+03  0.80028923100E+03  0.00000000000E+00 0. -1.
         -1    1    6    6    0  503  0.22905716668E+03  0.46335526612E+01  0.32679351219E+03  0.39910231148E+03  0.00000000000E+00 0.  1.
<mgrwt>
<rscale>  0 0.13041569E+04</rscale>
<asrwt>0</asrwt>
<pdfrwt beam="1">  1        1 0.40946139E+00 0.13041569E+04</pdfrwt>
<pdfrwt beam="2">  1       -1 0.12902274E+00 0.13041569E+04</pdfrwt>
<totfact> 0.52692037E-01</totfact>
</mgrwt>
</event>
<event>
12    1  0.9321077E-008  0.1950378E+04  0.7818608E-02  0.8630179E-01
          1   -1    0    0  501    0  0.00000000000E+00  0.00000000000E+00  0.28493734147E+04  0.28493734147E+04  0.00000000000E+00 0. -1.
         -1   -1    0    0    0  501 -0.00000000000E+00 -0.00000000000E+00 -0.13926102912E+04  0.13926102912E+04  0.00000000000E+00 0.  1.
         23    2    1    2    0    0  0.11859448675E+04 -0.15043196951E+04  0.34887519523E+03  0.19491736603E+04  0.90117048019E+02 0.  0.
    5000000    2    1    2    0    0 -0.11859448675E+04  0.15043196951E+04  0.11078879283E+04  0.22928100456E+04  0.60009938324E+03 0.  0.
         23    2    4    4    0    0 -0.17181365003E+03  0.24955721651E+02  0.20940950590E+03  0.28472266473E+03  0.84094805246E+02 0.  0.
         23    2    4    4    0    0 -0.10141312175E+04  0.14793639735E+04  0.89847842240E+03  0.20080873809E+04  0.90396689852E+02 0.  0.
          2    1    3    3  502    0  0.44157912101E+03 -0.55452346801E+03  0.17328770382E+03  0.72973764120E+03  0.00000000000E+00 0. -1.
         -2    1    3    3    0  502  0.74436574647E+03 -0.94979622714E+03  0.17558749141E+03  0.12194360191E+04  0.00000000000E+00 0.  1.
         15    1    5    5    0    0 -0.12810763459E+03  0.51548519757E+02  0.17549204761E+03  0.22331464894E+03  0.17770000000E+01 0. -1.
        -15    1    5    5    0    0 -0.43706015441E+02 -0.26592798106E+02  0.33917458287E+02  0.61408015784E+02  0.17770000000E+01 0.  1.
          3    1    6    6  503    0 -0.94303615813E+03  0.13294819762E+04  0.81584103691E+03  0.18227550900E+04  0.00000000000E+00 0. -1.
         -3    1    6    6    0  503 -0.71095059326E+02  0.14988199733E+03  0.82637385490E+02  0.18533229094E+03  0.00000000000E+00 0.  1.
<mgrwt>
<rscale>  0 0.19503777E+04</rscale>
<asrwt>0</asrwt>
<pdfrwt beam="1">  1        1 0.43836514E+00 0.19503777E+04</pdfrwt>
<pdfrwt beam="2">  1       -1 0.21424774E+00 0.19503777E+04</pdfrwt>
<totfact> 0.83009689E-02</totfact>
</mgrwt>
</event>
<event>
12    1  0.9321077E-008  0.3986555E+03  0.7818608E-02  0.1044246E+00
         -1   -1    0    0    0  501 -0.00000000000E+00  0.00000000000E+00  0.14926740339E+03  0.14926740339E+03  0.00000000000E+00 0.  1.
          1   -1    0    0  501    0  0.00000000000E+00 -0.00000000000E+00 -0.15870015712E+04  0.15870015712E+04  0.00000000000E+00 0. -1.
         23    2    1    2    0    0  0.29064168071E+03 -0.27022075395E+02 -0.42707592884E+03  0.52521111254E+03  0.90829976466E+02 0.  0.
    5000000    2    1    2    0    0 -0.29064168071E+03  0.27022075395E+02 -0.10106582390E+04  0.12110578621E+04  0.60002357463E+03 0.  0.
         23    2    4    4    0    0 -0.14415945759E+02  0.17196388642E+03 -0.60135747356E+02  0.20652802662E+03  0.96219124626E+02 0.  0.
         23    2    4    4    0    0 -0.27622573495E+03 -0.14494181103E+03 -0.95052249164E+03  0.10045298355E+04  0.90985702014E+02 0.  0.
          3    1    3    3  502    0  0.24434587541E+03 -0.47396416215E+02 -0.30914232707E+03  0.39688827834E+03  0.00000000000E+00 0. -1.
         -3    1    3    3    0  502  0.46295805303E+02  0.20374340820E+02 -0.11793360177E+03  0.12832283420E+03  0.00000000000E+00 0.  1.
         15    1    5    5    0    0  0.27814492729E+02  0.72758213108E+02  0.90031934484E+01  0.78432256131E+02  0.17770000000E+01 0. -1.
        -15    1    5    5    0    0 -0.42230438488E+02  0.99205673315E+02 -0.69138940805E+02  0.12809577049E+03  0.17770000000E+01 0.  1.
          1    1    6    6  503    0 -0.22415737011E+02 -0.14693918447E+02 -0.19695912184E+03  0.19877442537E+03  0.00000000000E+00 0. -1.
         -1    1    6    6    0  503 -0.25380999794E+03 -0.13024789258E+03 -0.75356336980E+03  0.80575541008E+03  0.00000000000E+00 0.  1.
<mgrwt>
<rscale>  0 0.39865549E+03</rscale>
<asrwt>0</asrwt>
<pdfrwt beam="1">  1        1 0.24415408E+00 0.39865549E+03</pdfrwt>
<pdfrwt beam="2">  1       -1 0.22964217E-01 0.39865549E+03</pdfrwt>
<totfact> 0.98779355E+01</totfact>
</mgrwt>
</event>
<event>
12    1  0.9321077E-008  0.1029947E+04  0.7818608E-02  0.9276296E-01
          2   -1    0    0  501    0  0.00000000000E+00  0.00000000000E+00  0.32446213748E+04  0.32446213748E+04  0.00000000000E+00 0. -1.
         -2   -1    0    0    0  501 -0.00000000000E+00 -0.00000000000E+00 -0.32972618468E+03  0.32972618468E+03  0.00000000000E+00 0.  1.
         23    2    1    2    0    0 -0.57154649825E+03  0.75250374064E+03  0.13316540659E+04  0.16353670428E+04  0.90529189545E+02 0.  0.
    5000000    2    1    2    0    0  0.57154649825E+03 -0.75250374064E+03  0.15832411243E+04  0.19389805167E+04  0.60005475358E+03 0.  0.
         23    2    4    4    0    0  0.49417245881E+03 -0.17911359223E+03  0.75334260520E+03  0.92318780247E+03  0.91992064136E+02 0.  0.
         23    2    4    4    0    0  0.77374039443E+02 -0.57339014841E+03  0.82989851909E+03  0.10157927143E+04  0.91325144847E+02 0.  0.
          1    1    3    3  502    0 -0.21857813795E+02  0.60807420907E+02  0.71858519749E+02  0.96638260134E+02  0.00000000000E+00 0. -1.
         -1    1    3    3    0  502 -0.54968868445E+03  0.69169631974E+03  0.12597955461E+04  0.15387287827E+04  0.00000000000E+00 0.  1.
         15    1    5    5    0    0  0.34062939236E+03 -0.16411697847E+03  0.50588902357E+03  0.63157709542E+03  0.17770000000E+01 0. -1.
        -15    1    5    5    0    0  0.15354306645E+03 -0.14996613758E+02  0.24745358163E+03  0.29161070705E+03  0.17770000000E+01 0.  1.
          2    1    6    6  503    0  0.47971772323E+02 -0.24421192417E+03  0.28372309810E+03  0.37741164694E+03  0.00000000000E+00 0. -1.
         -2    1    6    6    0  503  0.29402267120E+02 -0.32917822424E+03  0.54617542099E+03  0.63838106733E+03  0.00000000000E+00 0.  1.
<mgrwt>
<rscale>  0 0.10299466E+04</rscale>
<asrwt>0</asrwt>
<pdfrwt beam="1">  1        2 0.49917250E+00 0.10299466E+04</pdfrwt>
<pdfrwt beam="2">  1       -2 0.50727108E-01 0.10299466E+04</pdfrwt>
<totfact> 0.45653072E+00</totfact>
</mgrwt>
</event>
<event>
12    1  0.9321077E-008  0.3320608E+03  0.7818608E-02  0.1070229E+00
          2   -1    0    0  501    0  0.00000000000E+00  0.00000000000E+00  0.72634125703E+03  0.72634125703E+03  0.00000000000E+00 0.  1.
         -2   -1    0    0    0  501 -0.00000000000E+00 -0.00000000000E+00 -0.22743243497E+03  0.22743243497E+03  0.00000000000E+00 0. -1.
         23    2    1    2    0    0 -0.11941870639E+03 -0.63615395530E+02  0.23362899750E+03  0.28389084148E+03  0.87771039756E+02 0.  0.
    5000000    2    1    2    0    0  0.11941870639E+03  0.63615395530E+02  0.26527982455E+03  0.66988285052E+03  0.60005158288E+03 0.  0.
         23    2    4    4    0    0  0.27559980460E+03 -0.77981271878E+02  0.31368498619E+03  0.43524038446E+03  0.94866172275E+02 0.  0.
         23    2    4    4    0    0 -0.15618109821E+03  0.14159666741E+03 -0.48405161634E+02  0.23464246606E+03  0.90949851823E+02 0.  0.
          3    1    3    3  502    0 -0.11155023282E+03 -0.31463880337E+02  0.12560552167E+03  0.17090985133E+03  0.00000000000E+00 0. -1.
         -3    1    3    3    0  502 -0.78684735740E+01 -0.32151515193E+02  0.10802347583E+03  0.11298099015E+03  0.00000000000E+00 0.  1.
         15    1    5    5    0    0  0.16073411174E+03  0.20888788098E+01  0.15051698571E+03  0.22022338388E+03  0.17770000000E+01 0. -1.
        -15    1    5    5    0    0  0.11486569286E+03 -0.80070150687E+02  0.16316800047E+03  0.21501700057E+03  0.17770000000E+01 0.  1.
          2    1    6    6  503    0 -0.41679151013E+02  0.62662205996E+02  0.22483851492E+02  0.78544428621E+02  0.00000000000E+00 0.  1.
         -2    1    6    6    0  503 -0.11450194720E+03  0.78934461411E+02 -0.70889013126E+02  0.15609803744E+03  0.00000000000E+00 0. -1.
<mgrwt>
<rscale>  0 0.33206084E+03</rscale>
<asrwt>0</asrwt>
<pdfrwt beam="1">  1        2 0.11174481E+00 0.33206084E+03</pdfrwt>
<pdfrwt beam="2">  1       -2 0.34989606E-01 0.33206084E+03</pdfrwt>
<totfact> 0.30885913E+02</totfact>
</mgrwt>
</event>
<event>
12    1  0.9321077E-008  0.7036951E+03  0.7818608E-02  0.9710934E-01
          1   -1    0    0  501    0  0.00000000000E+00  0.00000000000E+00  0.91083564522E+03  0.91083564522E+03  0.00000000000E+00 0. -1.
         -1   -1    0    0    0  501 -0.00000000000E+00 -0.00000000000E+00 -0.73041285921E+03  0.73041285921E+03  0.00000000000E+00 0.  1.
         23    2    1    2    0    0  0.50413957961E+03  0.28860389983E+03 -0.31874721366E+03  0.66837535199E+03  0.87617910253E+02 0.  0.
    5000000    2    1    2    0    0 -0.50413957961E+03 -0.28860389983E+03  0.49916999967E+03  0.97287315245E+03  0.59988545194E+03 0.  0.
         23    2    4    4    0    0 -0.10699458799E+03 -0.38572754917E+03  0.30185049436E+03  0.50953683583E+03  0.90997154178E+02 0.  0.
         23    2    4    4    0    0 -0.39714499162E+03  0.97123649342E+02  0.19731950531E+03  0.46333631662E+03  0.92673661276E+02 0.  0.
          4    1    3    3  502    0  0.20312767460E+03  0.69404383083E+02 -0.10401823711E+03  0.23853220796E+03  0.00000000000E+00 0. -1.
         -4    1    3    3    0  502  0.30101190501E+03  0.21919951675E+03 -0.21472897655E+03  0.42984314403E+03  0.00000000000E+00 0.  1.
         15    1    5    5    0    0 -0.20987677926E+02 -0.15286233159E+03  0.68480420946E+02  0.16881972878E+03  0.17770000000E+01 0. -1.
        -15    1    5    5    0    0 -0.86006910066E+02 -0.23286521758E+03  0.23337007341E+03  0.34071710704E+03  0.17770000000E+01 0.  1.
          2    1    6    6  503    0 -0.22899137271E+02  0.29763834926E+02  0.73539484164E+01  0.38266655387E+02  0.00000000000E+00 0. -1.
         -2    1    6    6    0  503 -0.37424585435E+03  0.67359814416E+02  0.18996555689E+03  0.42506966123E+03  0.00000000000E+00 0.  1.
<mgrwt>
<rscale>  0 0.70369507E+03</rscale>
<asrwt>0</asrwt>
<pdfrwt beam="1">  1        1 0.14012856E+00 0.70369507E+03</pdfrwt>
<pdfrwt beam="2">  1       -1 0.11237121E+00 0.70369507E+03</pdfrwt>
<totfact> 0.13409217E+01</totfact>
</mgrwt>
</event>
<event>
12    1  0.9321077E-008  0.1134448E+04  0.7818608E-02  0.9172252E-01
         -2   -1    0    0    0  501 -0.00000000000E+00  0.00000000000E+00  0.59136693494E+03  0.59136693494E+03  0.00000000000E+00 0.  1.
          2   -1    0    0  501    0  0.00000000000E+00 -0.00000000000E+00 -0.26947176505E+04  0.26947176505E+04  0.00000000000E+00 0. -1.
         23    2    1    2    0    0  0.10736539166E+04  0.29585989145E+03 -0.45051864505E+03  0.12047096549E+04  0.89958296384E+02 0.  0.
    5000000    2    1    2    0    0 -0.10736539166E+04 -0.29585989145E+03 -0.16528320705E+04  0.20813749304E+04  0.60000161655E+03 0.  0.
         23    2    4    4    0    0 -0.79138676001E+03 -0.82900022527E+02 -0.14670048794E+04  0.16714061645E+04  0.91267918253E+02 0.  0.
         23    2    4    4    0    0 -0.28226715663E+03 -0.21295986893E+03 -0.18582719103E+03  0.40996876592E+03  0.92282125125E+02 0.  0.
          1    1    3    3  502    0  0.63665384662E+03  0.17060455171E+03 -0.21894724999E+03  0.69453000782E+03  0.00000000000E+00 0. -1.
         -1    1    3    3    0  502  0.43700007001E+03  0.12525533975E+03 -0.23157139506E+03  0.51017964712E+03  0.00000000000E+00 0.  1.
         15    1    5    5    0    0 -0.51256140330E+03 -0.90887445780E+02 -0.90681595903E+03  0.10456089428E+04  0.17770000000E+01 0. -1.
        -15    1    5    5    0    0 -0.27882535672E+03  0.79874232527E+01 -0.56018892040E+03  0.62579722174E+03  0.17770000000E+01 0.  1.
          4    1    6    6  503    0 -0.22941686953E+03 -0.15301928036E+03 -0.10165977051E+03  0.29390765408E+03  0.00000000000E+00 0. -1.
         -4    1    6    6    0  503 -0.52850287100E+02 -0.59940588569E+02 -0.84167420520E+02  0.11606111184E+03  0.00000000000E+00 0.  1.
<mgrwt>
<rscale>  0 0.11344485E+04</rscale>
<asrwt>0</asrwt>
<pdfrwt beam="1">  1        2 0.41457194E+00 0.11344485E+04</pdfrwt>
<pdfrwt beam="2">  1       -2 0.90979530E-01 0.11344485E+04</pdfrwt>
<totfact> 0.27434369E+00</totfact>
</mgrwt>
</event>
<event>
12    1  0.9321077E-008  0.2331197E+04  0.7818608E-02  0.8465721E-01
          2   -1    0    0  501    0  0.00000000000E+00  0.00000000000E+00  0.41679542885E+04  0.41679542885E+04  0.00000000000E+00 0. -1.
         -2   -1    0    0    0  501 -0.00000000000E+00 -0.00000000000E+00 -0.13514654755E+04  0.13514654755E+04  0.00000000000E+00 0.  1.
         23    2    1    2    0    0  0.76561961635E+03 -0.21976400009E+04  0.11660195830E+04  0.26039682043E+04  0.72482899096E+02 0.  0.
    5000000    2    1    2    0    0 -0.76561961635E+03  0.21976400009E+04  0.16504692300E+04  0.29154515597E+04  0.60001178934E+03 0.  0.
         23    2    4    4    0    0 -0.24318895577E+03  0.87173623116E+03  0.32157038816E+03  0.96476974065E+03  0.91149399375E+02 0.  0.
         23    2    4    4    0    0 -0.52243066057E+03  0.13259037697E+04  0.13288988418E+04  0.19506818190E+04  0.90734919712E+02 0.  0.
          1    1    3    3  502    0  0.50912082678E+03 -0.14149376337E+04  0.71844314595E+03  0.16665572529E+04  0.00000000000E+00 0. -1.
         -1    1    3    3    0  502  0.25649878957E+03 -0.78270236723E+03  0.44757643707E+03  0.93741095136E+03  0.00000000000E+00 0.  1.
         15    1    5    5    0    0 -0.17434128603E+03  0.71305027491E+03  0.23123159215E+03  0.76961469939E+03  0.17770000000E+01 0. -1.
        -15    1    5    5    0    0 -0.68847669740E+02  0.15868595624E+03  0.90338796008E+02  0.19515504126E+03  0.17770000000E+01 0.  1.
          1    1    6    6  503    0 -0.17808613513E+03  0.57295058608E+03  0.56688341583E+03  0.82543555337E+03  0.00000000000E+00 0. -1.
         -1    1    6    6    0  503 -0.34434452545E+03  0.75295318364E+03  0.76201542599E+03  0.11252462657E+04  0.00000000000E+00 0.  1.
<mgrwt>
<rscale>  0 0.23311970E+04</rscale>
<asrwt>0</asrwt>
<pdfrwt beam="1">  1        2 0.64122373E+00 0.23311970E+04</pdfrwt>
<pdfrwt beam="2">  1       -2 0.20791777E+00 0.23311970E+04</pdfrwt>
<totfact> 0.25326291E-02</totfact>
</mgrwt>
</event>
<event>
12    1  0.9321077E-008  0.5553595E+03  0.7818608E-02  0.1000261E+00
          1   -1    0    0  501    0  0.00000000000E+00  0.00000000000E+00  0.86358777771E+03  0.86358777771E+03  0.00000000000E+00 0. -1.
         -1   -1    0    0    0  501 -0.00000000000E+00 -0.00000000000E+00 -0.49196736731E+03  0.49196736731E+03  0.00000000000E+00 0.  1.
         23    2    1    2    0    0  0.40222182823E+03  0.72168125524E+02  0.46214910936E+03  0.62397763794E+03  0.93678470943E+02 0.  0.
    5000000    2    1    2    0    0 -0.40222182823E+03 -0.72168125524E+02 -0.90528698963E+02  0.73157750707E+03  0.60001630483E+03 0.  0.
         23    2    4    4    0    0 -0.26718035094E+03 -0.31273700260E+03  0.17464098696E+02  0.42157845757E+03  0.90739343280E+02 0.  0.
         23    2    4    4    0    0 -0.13504147729E+03  0.24056887708E+03 -0.10799279766E+03  0.30999904950E+03  0.91254485581E+02 0.  0.
          1    1    3    3  502    0  0.98722957076E+02  0.50377151924E+02  0.86742218916E+02  0.14074193487E+03  0.00000000000E+00 0. -1.
         -1    1    3    3    0  502  0.30349887116E+03  0.21790973600E+02  0.37540689045E+03  0.48323570307E+03  0.00000000000E+00 0.  1.
         15    1    5    5    0    0 -0.27095174037E+03 -0.29303832690E+03  0.25441045769E+02  0.39992088115E+03  0.17770000000E+01 0.  1.
        -15    1    5    5    0    0  0.37713894326E+01 -0.19698675701E+02 -0.79769470726E+01  0.21657576416E+02  0.17770000000E+01 0. -1.
          3    1    6    6  503    0 -0.83562352017E+02  0.16452233667E+03 -0.11577160094E+03  0.21783785144E+03  0.00000000000E+00 0. -1.
         -3    1    6    6    0  503 -0.51479125276E+02  0.76046540407E+02  0.77788032797E+01  0.92161198058E+02  0.00000000000E+00 0.  1.
<mgrwt>
<rscale>  0 0.55535953E+03</rscale>
<asrwt>0</asrwt>
<pdfrwt beam="1">  1        1 0.13285966E+00 0.55535953E+03</pdfrwt>
<pdfrwt beam="2">  1       -1 0.75687287E-01 0.55535953E+03</pdfrwt>
<totfact> 0.35906284E+01</totfact>
</mgrwt>
</event>
<event>
12    1  0.9321077E-008  0.1018648E+04  0.7818608E-02  0.9288326E-01
         -1   -1    0    0    0  501 -0.00000000000E+00  0.00000000000E+00  0.71421957924E+03  0.71421957924E+03  0.00000000000E+00 0.  1.
          1   -1    0    0  501    0  0.00000000000E+00 -0.00000000000E+00 -0.15359942788E+04  0.15359942788E+04  0.00000000000E+00 0. -1.
         23    2    1    2    0    0  0.66785789356E+03 -0.68825338445E+03 -0.36353670964E+03  0.10296895849E+04  0.91514014485E+02 0.  0.
    5000000    2    1    2    0    0 -0.66785789356E+03  0.68825338445E+03 -0.45823798989E+03  0.12205242731E+04  0.59997546503E+03 0.  0.
         23    2    4    4    0    0 -0.71544672789E+03  0.49652117490E+03 -0.48541265813E+03  0.10013160945E+04  0.92796415803E+02 0.  0.
         23    2    4    4    0    0  0.47588834336E+02  0.19173220955E+03  0.27174668235E+02  0.21920817863E+03  0.91037495859E+02 0.  0.
          1    1    3    3  502    0  0.41051945467E+03 -0.38013017724E+03 -0.24765407161E+03  0.61184778621E+03  0.00000000000E+00 0. -1.
         -1    1    3    3    0  502  0.25733843889E+03 -0.30812320721E+03 -0.11588263803E+03  0.41784179871E+03  0.00000000000E+00 0.  1.
         15    1    5    5    0    0 -0.33070430573E+03  0.23639133907E+03 -0.17424619501E+03  0.44227943341E+03  0.17770000000E+01 0.  1.
        -15    1    5    5    0    0 -0.38474242216E+03  0.26012983583E+03 -0.31116646312E+03  0.55903666105E+03  0.17770000000E+01 0. -1.
          4    1    6    6  503    0  0.42512121525E+02  0.59716124031E+02 -0.24587018418E+02  0.77316346400E+02  0.00000000000E+00 0. -1.
         -4    1    6    6    0  503  0.50767128109E+01  0.13201608551E+03  0.51761686653E+02  0.14189183223E+03  0.00000000000E+00 0.  1.
<mgrwt>
<rscale>  0 0.10186476E+04</rscale>
<asrwt>0</asrwt>
<pdfrwt beam="1">  1        1 0.23630681E+00 0.10186476E+04</pdfrwt>
<pdfrwt beam="2">  1       -1 0.10987994E+00 0.10186476E+04</pdfrwt>
<totfact> 0.47429597E+00</totfact>
</mgrwt>
</event>
<event>
12    1  0.9321077E-008  0.8566072E+03  0.7818608E-02  0.9481512E-01
          1   -1    0    0  501    0  0.00000000000E+00  0.00000000000E+00  0.93811706911E+03  0.93811706911E+03  0.00000000000E+00 0. -1.
         -1   -1    0    0    0  501 -0.00000000000E+00 -0.00000000000E+00 -0.89257463999E+03  0.89257463999E+03  0.00000000000E+00 0.  1.
         23    2    1    2    0    0 -0.21356445581E+03  0.74078830609E+03  0.28190995059E+03  0.82559635393E+03  0.88085345908E+02 0.  0.
    5000000    2    1    2    0    0  0.21356445581E+03 -0.74078830609E+03 -0.23636752147E+03  0.10050953552E+04  0.59997497994E+03 0.  0.
         23    2    4    4    0    0 -0.49250923494E+02 -0.64104462338E+03 -0.27833305327E+03  0.70652779015E+03  0.91369399063E+02 0.  0.
         23    2    4    4    0    0  0.26281537930E+03 -0.99743682708E+02  0.41965531799E+02  0.29856756502E+03  0.91437187091E+02 0.  0.
          1    1    3    3  502    0 -0.15803740054E+03  0.64978208868E+03  0.25454426461E+03  0.71553152648E+03  0.00000000000E+00 0. -1.
         -1    1    3    3    0  502 -0.55527055264E+02  0.91006217406E+02  0.27365685985E+02  0.11006482745E+03  0.00000000000E+00 0.  1.
         15    1    5    5    0    0 -0.33837904639E+02 -0.19616565648E+03 -0.45667065914E+02  0.20424154134E+03  0.17770000000E+01 0.  1.
        -15    1    5    5    0    0 -0.15413018855E+02 -0.44487896690E+03 -0.23266598735E+03  0.50228624881E+03  0.17770000000E+01 0. -1.
          3    1    6    6  503    0  0.23224737190E+03 -0.53667941040E+02  0.47307226646E+02  0.24301659067E+03  0.00000000000E+00 0. -1.
         -3    1    6    6    0  503  0.30568007407E+02 -0.46075741668E+02 -0.53416948465E+01  0.55550974347E+02  0.00000000000E+00 0.  1.
<mgrwt>
<rscale>  0 0.85660717E+03</rscale>
<asrwt>0</asrwt>
<pdfrwt beam="1">  1        1 0.14432570E+00 0.85660717E+03</pdfrwt>
<pdfrwt beam="2">  1       -1 0.13731918E+00 0.85660717E+03</pdfrwt>
<totfact> 0.76103703E+00</totfact>
</mgrwt>
</event>
<event>
12    1  0.9321077E-008  0.4118842E+03  0.7818608E-02  0.1039741E+00
         -1   -1    0    0    0  501 -0.00000000000E+00  0.00000000000E+00  0.17775268779E+04  0.17775268779E+04  0.00000000000E+00 0.  1.
          1   -1    0    0  501    0  0.00000000000E+00 -0.00000000000E+00 -0.40236429496E+03  0.40236429496E+03  0.00000000000E+00 0. -1.
         23    2    1    2    0    0 -0.54293330733E+02  0.19190227411E+03 -0.31055260850E+03  0.37949988319E+03  0.88334535310E+02 0.  0.
    5000000    2    1    2    0    0  0.54293330733E+02 -0.19190227411E+03  0.16857151915E+04  0.18003912897E+04  0.59999903391E+03 0.  0.
         23    2    4    4    0    0  0.31377989909E+03 -0.86634401213E+02  0.83365989879E+03  0.89949422564E+03  0.90209148983E+02 0.  0.
         23    2    4    4    0    0 -0.25948656836E+03 -0.10526787289E+03  0.85205529270E+03  0.90089706407E+03  0.84868686904E+02 0.  0.
          2    1    3    3  502    0 -0.53423299782E+02  0.87217646971E+02 -0.93748454439E+02  0.13874343088E+03  0.00000000000E+00 0. -1.
         -2    1    3    3    0  502 -0.87003095140E+00  0.10468462714E+03 -0.21680415406E+03  0.24075645231E+03  0.00000000000E+00 0.  1.
         15    1    5    5    0    0  0.60726407223E+02 -0.16379517360E+02  0.27605876834E+03  0.28313881124E+03  0.17770000000E+01 0. -1.
        -15    1    5    5    0    0  0.25305349187E+03 -0.70254883853E+02  0.55760113044E+03  0.61635541439E+03  0.17770000000E+01 0.  1.
          3    1    6    6  503    0 -0.88780679520E+02  0.34761114098E+01  0.30138048191E+03  0.31420421271E+03  0.00000000000E+00 0. -1.
         -3    1    6    6    0  503 -0.17070588884E+03 -0.10874398430E+03  0.55067481079E+03  0.58669285137E+03  0.00000000000E+00 0.  1.
<mgrwt>
<rscale>  0 0.41188420E+03</rscale>
<asrwt>0</asrwt>
<pdfrwt beam="1">  1        1 0.61902200E-01 0.41188420E+03</pdfrwt>
<pdfrwt beam="2">  1       -1 0.27346567E+00 0.41188420E+03</pdfrwt>
<totfact> 0.32771940E+00</totfact>
</mgrwt>
</event>
<event>
12    1  0.9321077E-008  0.4659103E+03  0.7818608E-02  0.1023081E+00
         -1   -1    0    0    0  501 -0.00000000000E+00  0.00000000000E+00  0.35773884817E+03  0.35773884817E+03  0.00000000000E+00 0.  1.
          1   -1    0    0  501    0  0.00000000000E+00 -0.00000000000E+00 -0.71400791258E+03  0.71400791258E+03  0.00000000000E+00 0. -1.
         23    2    1    2    0    0  0.77726391952E+02 -0.27389289123E+03  0.34843070758E+02  0.30105877061E+03  0.91452916334E+02 0.  0.
    5000000    2    1    2    0    0 -0.77726391952E+02  0.27389289123E+03 -0.39111213517E+03  0.77068799014E+03  0.59994380403E+03 0.  0.
         23    2    4    4    0    0 -0.31343686099E+03  0.69896540109E+02 -0.14607629490E+03  0.36397521695E+03  0.89506885056E+02 0.  0.
         23    2    4    4    0    0  0.23571046904E+03  0.20399635113E+03 -0.24503584027E+03  0.40671277319E+03  0.90547116863E+02 0.  0.
          1    1    3    3  502    0  0.70563782360E+02 -0.25178266551E+03  0.28305120753E+01  0.26149908190E+03  0.00000000000E+00 0. -1.
         -1    1    3    3    0  502  0.71626095926E+01 -0.22110225720E+02  0.32012558682E+02  0.39559688712E+02  0.00000000000E+00 0.  1.
         15    1    5    5    0    0 -0.10705777763E+03  0.65938840207E+02 -0.70419767690E+02  0.14412286359E+03  0.17770000000E+01 0.  1.
        -15    1    5    5    0    0 -0.20637908337E+03  0.39576999025E+01 -0.75656527209E+02  0.21985235336E+03  0.17770000000E+01 0. -1.
          3    1    6    6  503    0  0.56477930899E+02  0.25492498641E+02 -0.12709500584E+02  0.63254688132E+02  0.00000000000E+00 0. -1.
         -3    1    6    6    0  503  0.17923253814E+03  0.17850385248E+03 -0.23232633969E+03  0.34345808506E+03  0.00000000000E+00 0.  1.
<mgrwt>
<rscale>  0 0.46591027E+03</rscale>
<asrwt>0</asrwt>
<pdfrwt beam="1">  1        1 0.10984737E+00 0.46591027E+03</pdfrwt>
<pdfrwt beam="2">  1       -1 0.55036746E-01 0.46591027E+03</pdfrwt>
<totfact> 0.92323170E+01</totfact>
</mgrwt>
</event>
<event>
12    1  0.9321077E-008  0.1020971E+04  0.7818608E-02  0.9285838E-01
         -2   -1    0    0    0  501 -0.00000000000E+00  0.00000000000E+00  0.11751523301E+04  0.11751523301E+04  0.00000000000E+00 0.  1.
          2   -1    0    0  501    0  0.00000000000E+00 -0.00000000000E+00 -0.97134742980E+03  0.97134742980E+03  0.00000000000E+00 0. -1.
         23    2    1    2    0    0 -0.15584604030E+03 -0.92033740424E+03  0.40022688195E+03  0.10196574408E+04  0.90613539935E+02 0.  0.
    5000000    2    1    2    0    0  0.15584604030E+03  0.92033740424E+03 -0.19642198162E+03  0.11268423191E+04  0.59990256827E+03 0.  0.
         23    2    4    4    0    0 -0.15632497841E+03  0.63417626452E+02 -0.15813776589E+02  0.19273262489E+03  0.91850394386E+02 0.  0.
         23    2    4    4    0    0  0.31217101871E+03  0.85691977779E+03 -0.18060820503E+03  0.93410969424E+03  0.90439740557E+02 0.  0.
          1    1    3    3  502    0 -0.13434575909E+03 -0.53397258947E+03  0.24663324164E+03  0.60332699689E+03  0.00000000000E+00 0. -1.
         -1    1    3    3    0  502 -0.21500281212E+02 -0.38636481476E+03  0.15359364031E+03  0.41633044391E+03  0.00000000000E+00 0.  1.
         15    1    5    5    0    0 -0.99928743729E+02  0.85006191172E+02 -0.17034980457E+02  0.13230704686E+03  0.17770000000E+01 0. -1.
        -15    1    5    5    0    0 -0.56396234680E+02 -0.21588564720E+02  0.12212038674E+01  0.60425578033E+02  0.17770000000E+01 0.  1.
          1    1    6    6  503    0  0.15151230081E+03  0.46931665896E+03 -0.13951735000E+03  0.51252238451E+03  0.00000000000E+00 0. -1.
         -1    1    6    6    0  503  0.16065871789E+03  0.38760311882E+03 -0.41090855035E+02  0.42158730973E+03  0.00000000000E+00 0.  1.
<mgrwt>
<rscale>  0 0.10209714E+04</rscale>
<asrwt>0</asrwt>
<pdfrwt beam="1">  1        2 0.14943807E+00 0.10209714E+04</pdfrwt>
<pdfrwt beam="2">  1       -2 0.18079267E+00 0.10209714E+04</pdfrwt>
<totfact> 0.46568460E+00</totfact>
</mgrwt>
</event>
<event>
12    1  0.9321077E-008  0.9380609E+03  0.7818608E-02  0.9379215E-01
          1   -1    0    0  501    0  0.00000000000E+00  0.00000000000E+00  0.15396813514E+04  0.15396813514E+04  0.00000000000E+00 0. -1.
         -1   -1    0    0    0  501 -0.00000000000E+00 -0.00000000000E+00 -0.61959244116E+03  0.61959244116E+03  0.00000000000E+00 0.  1.
         23    2    1    2    0    0 -0.88224382130E+03  0.13352981557E+02  0.42938642238E+03  0.98521040499E+03  0.87945324186E+02 0.  0.
    5000000    2    1    2    0    0  0.88224382130E+03 -0.13352981557E+02  0.49070248791E+03  0.11740633876E+04  0.59925240439E+03 0.  0.
         23    2    4    4    0    0  0.82660178875E+03  0.10270523509E+03  0.55351988173E+03  0.10042664418E+04  0.91367084326E+02 0.  0.
         23    2    4    4    0    0  0.55642032550E+02 -0.11605821665E+03 -0.62817393816E+02  0.16979694586E+03  0.91210922699E+02 0.  0.
          3    1    3    3  502    0 -0.83152173159E+03  0.60076657241E+01  0.42476744131E+03  0.93375149872E+03  0.00000000000E+00 0. -1.
         -3    1    3    3    0  502 -0.50722089702E+02  0.73453158324E+01  0.46189810625E+01  0.51458906269E+02  0.00000000000E+00 0.  1.
         15    1    5    5    0    0  0.61695639934E+03  0.10829246462E+03  0.38525348785E+03  0.73538144130E+03  0.17770000000E+01 0. -1.
        -15    1    5    5    0    0  0.20964538941E+03 -0.55872295259E+01  0.16826639388E+03  0.26888500046E+03  0.17770000000E+01 0.  1.
          4    1    6    6  503    0  0.79873078581E+02 -0.10065836453E+03 -0.45768682671E+02  0.13640596521E+03  0.00000000000E+00 0. -1.
         -4    1    6    6    0  503 -0.24231046031E+02 -0.15399852123E+02 -0.17048711145E+02  0.33390980652E+02  0.00000000000E+00 0.  1.
<mgrwt>
<rscale>  0 0.93806092E+03</rscale>
<asrwt>0</asrwt>
<pdfrwt beam="1">  1        1 0.23687405E+00 0.93806092E+03</pdfrwt>
<pdfrwt beam="2">  1       -1 0.95321914E-01 0.93806092E+03</pdfrwt>
<totfact> 0.66143557E+00</totfact>
</mgrwt>
</event>
<event>
12    1  0.9321077E-008  0.6528010E+03  0.7818608E-02  0.9801537E-01
         -2   -1    0    0    0  501 -0.00000000000E+00  0.00000000000E+00  0.33819536772E+03  0.33819536772E+03  0.00000000000E+00 0.  1.
          2   -1    0    0  501    0  0.00000000000E+00 -0.00000000000E+00 -0.15652878467E+04  0.15652878467E+04  0.00000000000E+00 0. -1.
         23    2    1    2    0    0  0.91765240871E+02  0.51457445446E+03 -0.12699046066E+03  0.54581942386E+03  0.92652780591E+02 0.  0.
    5000000    2    1    2    0    0 -0.91765240871E+02 -0.51457445446E+03 -0.11001020183E+04  0.13576637905E+04  0.59984897172E+03 0.  0.
         23    2    4    4    0    0 -0.16332401318E+03  0.65313866906E+02 -0.35211567302E+03  0.40423461432E+03  0.92084427231E+02 0.  0.
         23    2    4    4    0    0  0.71558772312E+02 -0.57988832137E+03 -0.74798634525E+03  0.95342917619E+03  0.90291185565E+02 0.  0.
          1    1    3    3  502    0  0.54974083199E+02  0.13802375034E+03 -0.66089564276E+02  0.16260546112E+03  0.00000000000E+00 0. -1.
         -1    1    3    3    0  502  0.36791157672E+02  0.37655070412E+03 -0.60900896388E+02  0.38321396274E+03  0.00000000000E+00 0.  1.
         15    1    5    5    0    0 -0.86324779068E+02  0.70479566872E+02 -0.14285703588E+03  0.18119223840E+03  0.17770000000E+01 0. -1.
        -15    1    5    5    0    0 -0.76999234115E+02 -0.51656999656E+01 -0.20925863714E+03  0.22304237592E+03  0.17770000000E+01 0.  1.
          3    1    6    6  503    0  0.26578254443E+02 -0.38478997161E+02 -0.76896629502E+02  0.90000713667E+02  0.00000000000E+00 0. -1.
         -3    1    6    6    0  503  0.44980517870E+02 -0.54140932420E+03 -0.67108971575E+03  0.86342846253E+03  0.00000000000E+00 0.  1.
<mgrwt>
<rscale>  0 0.65280102E+03</rscale>
<asrwt>0</asrwt>
<pdfrwt beam="1">  1        2 0.24081352E+00 0.65280102E+03</pdfrwt>
<pdfrwt beam="2">  1       -2 0.52030056E-01 0.65280102E+03</pdfrwt>
<totfact> 0.42109652E+01</totfact>
</mgrwt>
</event>
<event>
12    1  0.9321077E-008  0.9247171E+03  0.7818608E-02  0.9395201E-01
          1   -1    0    0  501    0  0.00000000000E+00  0.00000000000E+00  0.11370136137E+04  0.11370136137E+04  0.00000000000E+00 0. -1.
         -1   -1    0    0    0  501 -0.00000000000E+00 -0.00000000000E+00 -0.88454384257E+03  0.88454384257E+03  0.00000000000E+00 0.  1.
         23    2    1    2    0    0 -0.27770455714E+03  0.86374729956E+03  0.19258689423E+03  0.93212032040E+03  0.92624841761E+02 0.  0.
    5000000    2    1    2    0    0  0.27770455714E+03 -0.86374729956E+03  0.59882876889E+02  0.10894371359E+04  0.60009007282E+03 0.  0.
         23    2    4    4    0    0  0.30379026838E+03 -0.62781622692E+03  0.27563800237E+03  0.75600985746E+03  0.95565968238E+02 0.  0.
         23    2    4    4    0    0 -0.26085711242E+02 -0.23593107264E+03 -0.21575512548E+03  0.33342727840E+03  0.90991980075E+02 0.  0.
          1    1    3    3  502    0 -0.71952525746E+02  0.35661352376E+03  0.56381703654E+02  0.36814299912E+03  0.00000000000E+00 0. -1.
         -1    1    3    3    0  502 -0.20575203139E+03  0.50713377580E+03  0.13620519057E+03  0.56397732128E+03  0.00000000000E+00 0.  1.
         15    1    5    5    0    0  0.19317615125E+03 -0.37962145174E+03  0.21692514430E+03  0.47800538489E+03  0.17770000000E+01 0.  1.
        -15    1    5    5    0    0  0.11061411713E+03 -0.24819477518E+03  0.58712858074E+02  0.27800447257E+03  0.17770000000E+01 0. -1.
          3    1    6    6  503    0  0.16927711209E+01 -0.15669569671E+03 -0.85657743877E+02  0.17858795012E+03  0.00000000000E+00 0. -1.
         -3    1    6    6    0  503 -0.27778482363E+02 -0.79235375938E+02 -0.13009738161E+03  0.15483932828E+03  0.00000000000E+00 0.  1.
<mgrwt>
<rscale>  0 0.92471710E+03</rscale>
<asrwt>0</asrwt>
<pdfrwt beam="1">  1        1 0.17492517E+00 0.92471710E+03</pdfrwt>
<pdfrwt beam="2">  1       -1 0.13608367E+00 0.92471710E+03</pdfrwt>
<totfact> 0.54322320E+00</totfact>
</mgrwt>
</event>
<event>
12    1  0.9321077E-008  0.1112974E+04  0.7818608E-02  0.9192638E-01
         -2   -1    0    0    0  501 -0.00000000000E+00  0.00000000000E+00  0.51077645719E+03  0.51077645719E+03  0.00000000000E+00 0.  1.
          2   -1    0    0  501    0  0.00000000000E+00 -0.00000000000E+00 -0.31964980447E+04  0.31964980447E+04  0.00000000000E+00 0. -1.
         23    2    1    2    0    0 -0.93757543853E+03  0.57712666305E+03 -0.55524012679E+03  0.12352458384E+04  0.73605670992E+02 0.  0.
    5000000    2    1    2    0    0  0.93757543853E+03 -0.57712666305E+03 -0.21304814607E+04  0.24720286635E+04  0.59987629587E+03 0.  0.
         23    2    4    4    0    0  0.73435294037E+03 -0.33235482109E+03 -0.19083457574E+04  0.20737659269E+04  0.94803068654E+02 0.  0.
         23    2    4    4    0    0  0.20322249816E+03 -0.24477184196E+03 -0.22213570336E+03  0.39826273655E+03  0.89756884094E+02 0.  0.
          4    1    3    3  502    0 -0.60844763443E+03  0.37980062954E+03 -0.40029654810E+03  0.82139781377E+03  0.00000000000E+00 0.  1.
         -4    1    3    3    0  502 -0.32912780410E+03  0.19732603351E+03 -0.15494357869E+03  0.41384802466E+03  0.00000000000E+00 0. -1.
         15    1    5    5    0    0  0.13847158370E+03 -0.48936800185E+02 -0.26665602097E+03  0.30443025663E+03  0.17770000000E+01 0.  1.
        -15    1    5    5    0    0  0.59588135667E+03 -0.28341802090E+03 -0.16416897364E+04  0.17693356703E+04  0.17770000000E+01 0. -1.
          2    1    6    6  503    0  0.15492621351E+03 -0.19117692719E+03 -0.21316629794E+03  0.32556200592E+03  0.00000000000E+00 0.  1.
         -2    1    6    6    0  503  0.48296284654E+02 -0.53594914769E+02 -0.89694054194E+01  0.72700730629E+02  0.00000000000E+00 0. -1.
<mgrwt>
<rscale>  0 0.11129736E+04</rscale>
<asrwt>0</asrwt>
<pdfrwt beam="1">  1        2 0.49176891E+00 0.11129736E+04</pdfrwt>
<pdfrwt beam="2">  1       -2 0.78580997E-01 0.11129736E+04</pdfrwt>
<totfact> 0.18931810E+00</totfact>
</mgrwt>
</event>
<event>
12    1  0.9321077E-008  0.1325221E+04  0.7818608E-02  0.9009800E-01
         -1   -1    0    0    0  501 -0.00000000000E+00  0.00000000000E+00  0.92384635166E+03  0.92384635166E+03  0.00000000000E+00 0.  1.
          1   -1    0    0  501    0  0.00000000000E+00 -0.00000000000E+00 -0.32528781617E+04  0.32528781617E+04  0.00000000000E+00 0. -1.
         23    2    1    2    0    0 -0.10545528974E+04  0.69270186761E+03  0.20647449725E+03  0.12817800546E+04  0.91709866440E+02 0.  0.
    5000000    2    1    2    0    0  0.10545528974E+04 -0.69270186761E+03 -0.25355063073E+04  0.28949444588E+04  0.59999457843E+03 0.  0.
         23    2    4    4    0    0  0.32992525207E+03  0.61158526994E+02 -0.60596094159E+03  0.69832253919E+03  0.88739329646E+02 0.  0.
         23    2    4    4    0    0  0.72462764532E+03 -0.75386039461E+03 -0.19295453657E+04  0.21966219196E+04  0.92799893818E+02 0.  0.
          2    1    3    3  502    0 -0.73631349183E+03  0.43277652080E+03  0.13344995134E+03  0.86444315297E+03  0.00000000000E+00 0.  1.
         -2    1    3    3    0  502 -0.31823940556E+03  0.25992534681E+03  0.73024545906E+02  0.41733690164E+03  0.00000000000E+00 0. -1.
         15    1    5    5    0    0  0.69684621499E+02  0.35421769527E+02 -0.20714162831E+03  0.22140790442E+03  0.17770000000E+01 0.  1.
        -15    1    5    5    0    0  0.26024063057E+03  0.25736757467E+02 -0.39881931328E+03  0.47691463477E+03  0.17770000000E+01 0. -1.
          1    1    6    6  503    0  0.32761008606E+03 -0.33027655625E+03 -0.95444304593E+03  0.10617779900E+04  0.00000000000E+00 0. -1.
         -1    1    6    6    0  503  0.39701755926E+03 -0.42358383836E+03 -0.97510231982E+03  0.11348439296E+04  0.00000000000E+00 0.  1.
<mgrwt>
<rscale>  0 0.13252212E+04</rscale>
<asrwt>0</asrwt>
<pdfrwt beam="1">  1        1 0.50044279E+00 0.13252212E+04</pdfrwt>
<pdfrwt beam="2">  1       -1 0.14213021E+00 0.13252212E+04</pdfrwt>
<totfact> 0.15277434E-01</totfact>
</mgrwt>
</event>
<event>
12    1  0.9321077E-008  0.4110065E+03  0.7818608E-02  0.1040034E+00
          2   -1    0    0  501    0  0.00000000000E+00  0.00000000000E+00  0.98946451898E+03  0.98946451898E+03  0.00000000000E+00 0. -1.
         -2   -1    0    0    0  501 -0.00000000000E+00 -0.00000000000E+00 -0.23080036937E+03  0.23080036937E+03  0.00000000000E+00 0.  1.
         23    2    1    2    0    0 -0.25202521765E+03  0.10224575554E+02  0.38687578370E+03  0.47080659507E+03  0.91458874215E+02 0.  0.
    5000000    2    1    2    0    0  0.25202521765E+03 -0.10224575554E+02  0.37178836591E+03  0.74945829329E+03  0.59986656189E+03 0.  0.
         23    2    4    4    0    0  0.36322018488E+03 -0.12874612041E+03  0.40113245237E+03  0.56362070446E+03  0.90865768701E+02 0.  0.
         23    2    4    4    0    0 -0.11119496724E+03  0.11852154486E+03 -0.29344086460E+02  0.18583758883E+03  0.85222395393E+02 0.  0.
          4    1    3    3  502    0 -0.14837850454E+03  0.16578763457E+02  0.30123964974E+03  0.33620880801E+03  0.00000000000E+00 0. -1.
         -4    1    3    3    0  502 -0.10364671311E+03 -0.63541879026E+01  0.85636133956E+02  0.13459778706E+03  0.00000000000E+00 0.  1.
         15    1    5    5    0    0  0.15396156210E+03 -0.48554656676E+02  0.10636106152E+03  0.19333274536E+03  0.17770000000E+01 0. -1.
        -15    1    5    5    0    0  0.20925862278E+03 -0.80191463738E+02  0.29477139085E+03  0.37028795910E+03  0.17770000000E+01 0.  1.
          2    1    6    6  503    0 -0.18551605599E+02  0.81445883016E+02 -0.91912061947E+01  0.84036136286E+02  0.00000000000E+00 0. -1.
         -2    1    6    6    0  503 -0.92643361637E+02  0.37075661844E+02 -0.20152880265E+02  0.10180145254E+03  0.00000000000E+00 0.  1.
<mgrwt>
<rscale>  0 0.41100649E+03</rscale>
<asrwt>0</asrwt>
<pdfrwt beam="1">  1        2 0.15222531E+00 0.41100649E+03</pdfrwt>
<pdfrwt beam="2">  1       -2 0.35507750E-01 0.41100649E+03</pdfrwt>
<totfact> 0.19775692E+02</totfact>
</mgrwt>
</event>
<event>
12    1  0.9321077E-008  0.1278195E+04  0.7818608E-02  0.9047038E-01
         -2   -1    0    0    0  501 -0.00000000000E+00  0.00000000000E+00  0.24553609144E+04  0.24553609144E+04  0.00000000000E+00 0.  1.
          2   -1    0    0  501    0  0.00000000000E+00 -0.00000000000E+00 -0.70964358078E+03  0.70964358078E+03  0.00000000000E+00 0. -1.
         23    2    1    2    0    0 -0.66388183849E+03  0.10330236374E+04  0.54791987204E+03  0.13476889881E+04  0.90401833080E+02 0.  0.
    5000000    2    1    2    0    0  0.66388183849E+03 -0.10330236374E+04  0.11977974615E+04  0.18173155071E+04  0.60003330113E+03 0.  0.
         23    2    4    4    0    0  0.58598130074E+03 -0.10509234921E+04  0.11905601559E+04  0.16952740172E+04  0.93307221564E+02 0.  0.
         23    2    4    4    0    0  0.77900537751E+02  0.17899854672E+02  0.72373056603E+01  0.12204148988E+03  0.91939371759E+02 0.  0.
          3    1    3    3  502    0 -0.38060933771E+03  0.50893653342E+03  0.28668756248E+03  0.69718693439E+03  0.00000000000E+00 0. -1.
         -3    1    3    3    0  502 -0.28327250079E+03  0.52408710399E+03  0.26123230955E+03  0.65050205367E+03  0.00000000000E+00 0.  1.
         15    1    5    5    0    0  0.23200210317E+03 -0.49171331654E+03  0.57670479225E+03  0.79258976568E+03  0.17770000000E+01 0. -1.
        -15    1    5    5    0    0  0.35397919758E+03 -0.55921017554E+03  0.61385536363E+03  0.90268425152E+03  0.17770000000E+01 0.  1.
          1    1    6    6  503    0 -0.20174338626E+02  0.33511229407E+01 -0.75435456643E+01  0.21797684399E+02  0.00000000000E+00 0. -1.
         -1    1    6    6    0  503  0.98074876377E+02  0.14548731731E+02  0.14780851325E+02  0.10024380548E+03  0.00000000000E+00 0.  1.
<mgrwt>
<rscale>  0 0.12781948E+04</rscale>
<asrwt>0</asrwt>
<pdfrwt beam="1">  1        2 0.10917594E+00 0.12781948E+04</pdfrwt>
<pdfrwt beam="2">  1       -2 0.37774783E+00 0.12781948E+04</pdfrwt>
<totfact> 0.40828222E-01</totfact>
</mgrwt>
</event>
<event>
12    1  0.9321077E-008  0.7366205E+03  0.7818608E-02  0.9656578E-01
          2   -1    0    0  501    0  0.00000000000E+00  0.00000000000E+00  0.95408123693E+03  0.95408123693E+03  0.00000000000E+00 0. -1.
         -2   -1    0    0    0  501 -0.00000000000E+00 -0.00000000000E+00 -0.75579305626E+03  0.75579305626E+03  0.00000000000E+00 0.  1.
         23    2    1    2    0    0 -0.72017036530E+03 -0.39845493798E+02  0.25359792646E+03  0.77002759906E+03  0.91638292071E+02 0.  0.
    5000000    2    1    2    0    0  0.72017036530E+03  0.39845493798E+02 -0.55309745782E+02  0.93984669413E+03  0.60001635148E+03 0.  0.
         23    2    4    4    0    0  0.88058806975E+02  0.14534612337E+02 -0.24111855206E+03  0.27428319936E+03  0.95537996943E+02 0.  0.
         23    2    4    4    0    0  0.63211155833E+03  0.25310881461E+02  0.18580880628E+03  0.66556349477E+03  0.90797523010E+02 0.  0.
          2    1    3    3  502    0 -0.28865356875E+03 -0.25199917866E+02  0.55641815218E+02  0.29504564090E+03  0.00000000000E+00 0. -1.
         -2    1    3    3    0  502 -0.43151679655E+03 -0.14645575932E+02  0.19795611124E+03  0.47498195816E+03  0.00000000000E+00 0.  1.
         15    1    5    5    0    0  0.87543565897E+02  0.33390289104E+02 -0.12287941168E+03  0.15453573982E+03  0.17770000000E+01 0.  1.
        -15    1    5    5    0    0  0.51524107841E+00 -0.18855676767E+02 -0.11823914038E+03  0.11974745954E+03  0.17770000000E+01 0. -1.
          1    1    6    6  503    0  0.13294415869E+03  0.42590034131E+02  0.43464079827E+02  0.14620939290E+03  0.00000000000E+00 0. -1.
         -1    1    6    6    0  503  0.49916739963E+03 -0.17279152670E+02  0.14234472645E+03  0.51935410187E+03  0.00000000000E+00 0.  1.
<mgrwt>
<rscale>  0 0.73662051E+03</rscale>
<asrwt>0</asrwt>
<pdfrwt beam="1">  1        2 0.14678173E+00 0.73662051E+03</pdfrwt>
<pdfrwt beam="2">  1       -2 0.11627585E+00 0.73662051E+03</pdfrwt>
<totfact> 0.15761181E+01</totfact>
</mgrwt>
</event>
<event>
12    1  0.9321077E-008  0.7251046E+03  0.7818608E-02  0.9675238E-01
         -1   -1    0    0    0  501 -0.00000000000E+00  0.00000000000E+00  0.10323589747E+04  0.10323589747E+04  0.00000000000E+00 0.  1.
          1   -1    0    0  501    0  0.00000000000E+00 -0.00000000000E+00 -0.67822645924E+03  0.67822645924E+03  0.00000000000E+00 0. -1.
         23    2    1    2    0    0 -0.60108746778E+03  0.19140199183E+03 -0.21244096412E+03  0.67185627462E+03  0.91207588042E+02 0.  0.
    5000000    2    1    2    0    0  0.60108746778E+03 -0.19140199183E+03  0.56657347954E+03  0.10387291593E+04  0.60000991009E+03 0.  0.
         23    2    4    4    0    0  0.68520549960E+03 -0.16138912628E+03  0.35927803901E+03  0.79563594368E+03  0.91666890451E+02 0.  0.
         23    2    4    4    0    0 -0.84118031819E+02 -0.30012865552E+02  0.20729544052E+03  0.24309321559E+03  0.90256835899E+02 0.  0.
          1    1    3    3  502    0 -0.18831834773E+03  0.87047884439E+02 -0.10610376625E+03  0.23302176612E+03  0.00000000000E+00 0. -1.
         -1    1    3    3    0  502 -0.41276912005E+03  0.10435410740E+03 -0.10633719787E+03  0.43883450850E+03  0.00000000000E+00 0.  1.
         15    1    5    5    0    0  0.19497151569E+03 -0.88561129478E+02  0.10139847600E+03  0.23694255474E+03  0.17770000000E+01 0.  1.
        -15    1    5    5    0    0  0.49023398391E+03 -0.72827996806E+02  0.25787956301E+03  0.55869338894E+03  0.17770000000E+01 0. -1.
          4    1    6    6  503    0 -0.87219094139E+02 -0.10943697310E+02  0.96127883648E+02  0.13025937551E+03  0.00000000000E+00 0. -1.
         -4    1    6    6    0  503  0.31010623204E+01 -0.19069168242E+02  0.11116755688E+03  0.11283384008E+03  0.00000000000E+00 0.  1.
<mgrwt>
<rscale>  0 0.72510459E+03</rscale>
<asrwt>0</asrwt>
<pdfrwt beam="1">  1        1 0.10434253E+00 0.72510459E+03</pdfrwt>
<pdfrwt beam="2">  1       -1 0.15882446E+00 0.72510459E+03</pdfrwt>
<totfact> 0.88241554E+00</totfact>
</mgrwt>
</event>
<event>
12    1  0.9321077E-008  0.5328080E+03  0.7818608E-02  0.1005553E+00
          1   -1    0    0  501    0  0.00000000000E+00  0.00000000000E+00  0.56477553278E+03  0.56477553278E+03  0.00000000000E+00 0. -1.
         -1   -1    0    0    0  501 -0.00000000000E+00 -0.00000000000E+00 -0.51380237545E+03  0.51380237545E+03  0.00000000000E+00 0.  1.
         23    2    1    2    0    0 -0.35424162964E+03  0.85125170095E+02  0.10653751749E+02  0.37542371305E+03  0.89977970309E+02 0.  0.
    5000000    2    1    2    0    0  0.35424162964E+03 -0.85125170095E+02  0.40319405584E+02  0.70315419518E+03  0.60005561491E+03 0.  0.
         23    2    4    4    0    0  0.41768989267E+03 -0.25376046716E+03  0.54627022704E+02  0.50019151453E+03  0.91368585801E+02 0.  0.
         23    2    4    4    0    0 -0.63448263028E+02  0.16863529706E+03 -0.14307617120E+02  0.20296268065E+03  0.92334155827E+02 0.  0.
          4    1    3    3  502    0 -0.22051954567E+03  0.16951729236E+02 -0.20531102776E+02  0.22212104206E+03  0.00000000000E+00 0. -1.
         -4    1    3    3    0  502 -0.13372208397E+03  0.68173440859E+02  0.31184854525E+02  0.15330267099E+03  0.00000000000E+00 0.  1.
         15    1    5    5    0    0  0.32620190915E+02 -0.53169406959E+02  0.15128514144E+02  0.64211310226E+02  0.17770000000E+01 0.  1.
        -15    1    5    5    0    0  0.38506970175E+03 -0.20059106020E+03  0.39498508559E+02  0.43598020431E+03  0.17770000000E+01 0. -1.
          1    1    6    6  503    0 -0.11650059994E+02 -0.77046712387E+01 -0.13128329305E+02  0.19168695498E+02  0.00000000000E+00 0. -1.
         -1    1    6    6    0  503 -0.51798203034E+02  0.17633996830E+03 -0.11792878148E+01  0.18379398515E+03  0.00000000000E+00 0.  1.
<mgrwt>
<rscale>  0 0.53280799E+03</rscale>
<asrwt>0</asrwt>
<pdfrwt beam="1">  1        1 0.86888543E-01 0.53280799E+03</pdfrwt>
<pdfrwt beam="2">  1       -1 0.79046519E-01 0.53280799E+03</pdfrwt>
<totfact> 0.62295284E+01</totfact>
</mgrwt>
</event>
<event>
12    1  0.9321077E-008  0.1252308E+04  0.7818608E-02  0.9068264E-01
          1   -1    0    0  501    0  0.00000000000E+00  0.00000000000E+00  0.10993506753E+04  0.10993506753E+04  0.00000000000E+00 0. -1.
         -1   -1    0    0    0  501 -0.00000000000E+00 -0.00000000000E+00 -0.17108952573E+04  0.17108952573E+04  0.00000000000E+00 0.  1.
         23    2    1    2    0    0  0.10066851034E+04 -0.63062610555E+03 -0.84290183163E+03  0.14594487358E+04  0.91667509413E+02 0.  0.
    5000000    2    1    2    0    0 -0.10066851034E+04  0.63062610555E+03  0.23135724966E+03  0.13507971968E+04  0.60001892251E+03 0.  0.
         23    2    4    4    0    0 -0.24870882298E+03 -0.90974686426E+02  0.54404372081E+02  0.28528758904E+03  0.91086225953E+02 0.  0.
         23    2    4    4    0    0 -0.75797628046E+03  0.72160079198E+03  0.17695287758E+03  0.10655096077E+04  0.93609073228E+02 0.  0.
          1    1    3    3  502    0  0.38736448291E+03 -0.29143761253E+03 -0.36506527793E+03  0.60684411653E+03  0.00000000000E+00 0. -1.
         -1    1    3    3    0  502  0.61932062053E+03 -0.33918849302E+03 -0.47783655370E+03  0.85260461931E+03  0.00000000000E+00 0.  1.
         15    1    5    5    0    0 -0.22302647906E+03 -0.80626855744E+02  0.77168495354E+02  0.24939854577E+03  0.17770000000E+01 0. -1.
        -15    1    5    5    0    0 -0.25682343924E+02 -0.10347830682E+02 -0.22764123274E+02  0.35889043267E+02  0.17770000000E+01 0.  1.
          4    1    6    6  503    0 -0.30786050712E+03  0.34064706669E+03  0.45918957612E+02  0.46144020908E+03  0.00000000000E+00 0.  1.
         -4    1    6    6    0  503 -0.45011577335E+03  0.38095372529E+03  0.13103391997E+03  0.60406939867E+03  0.00000000000E+00 0. -1.
<mgrwt>
<rscale>  0 0.12523085E+04</rscale>
<asrwt>0</asrwt>
<pdfrwt beam="1">  1        1 0.16913087E+00 0.12523085E+04</pdfrwt>
<pdfrwt beam="2">  1       -1 0.26321465E+00 0.12523085E+04</pdfrwt>
<totfact> 0.70841561E-01</totfact>
</mgrwt>
</event>
<event>
12    1  0.9321077E-008  0.9524990E+03  0.7818608E-02  0.9362234E-01
         -2   -1    0    0    0  501 -0.00000000000E+00  0.00000000000E+00  0.37944370314E+03  0.37944370314E+03  0.00000000000E+00 0.  1.
          2   -1    0    0  501    0  0.00000000000E+00 -0.00000000000E+00 -0.35680095756E+04  0.35680095756E+04  0.00000000000E+00 0. -1.
         23    2    1    2    0    0 -0.18222274572E+03 -0.89009090187E+03 -0.24941391384E+04  0.26560264514E+04  0.90991899445E+02 0.  0.
    5000000    2    1    2    0    0  0.18222274572E+03  0.89009090187E+03 -0.69442673401E+03  0.12914268274E+04  0.60007317794E+03 0.  0.
         23    2    4    4    0    0 -0.30062850145E+02  0.24612047352E+02 -0.29455790899E+03  0.31044868230E+03  0.90024967441E+02 0.  0.
         23    2    4    4    0    0  0.21228559586E+03  0.86547885452E+03 -0.39986882502E+03  0.98097814506E+03  0.91127504306E+02 0.  0.
          3    1    3    3  502    0 -0.57958261910E+02 -0.50615249915E+03 -0.13731928948E+04  0.14646529414E+04  0.00000000000E+00 0. -1.
         -3    1    3    3    0  502 -0.12426448381E+03 -0.38393840272E+03 -0.11209462437E+04  0.11913735099E+04  0.00000000000E+00 0.  1.
         15    1    5    5    0    0 -0.44362615131E+02 -0.21724299411E+02 -0.15556182828E+03  0.16322569330E+03  0.17770000000E+01 0. -1.
        -15    1    5    5    0    0  0.14299764987E+02  0.46336346763E+02 -0.13899608070E+03  0.14722298900E+03  0.17770000000E+01 0.  1.
          1    1    6    6  503    0  0.30341105835E+02  0.26134286542E+03 -0.90104836729E+02  0.27809990581E+03  0.00000000000E+00 0. -1.
         -1    1    6    6    0  503  0.18194449003E+03  0.60413598909E+03 -0.30976398829E+03  0.70287823925E+03  0.00000000000E+00 0.  1.
<mgrwt>
<rscale>  0 0.95249896E+03</rscale>
<asrwt>0</asrwt>
<pdfrwt beam="1">  1        2 0.54892454E+00 0.95249896E+03</pdfrwt>
<pdfrwt beam="2">  1       -2 0.58375956E-01 0.95249896E+03</pdfrwt>
<totfact> 0.20921349E+00</totfact>
</mgrwt>
</event>
<event>
12    1  0.9321077E-008  0.3180417E+03  0.7818608E-02  0.1076554E+00
          1   -1    0    0  501    0  0.00000000000E+00  0.00000000000E+00  0.39564076239E+03  0.39564076239E+03  0.00000000000E+00 0. -1.
         -1   -1    0    0    0  501 -0.00000000000E+00 -0.00000000000E+00 -0.10440334731E+04  0.10440334731E+04  0.00000000000E+00 0.  1.
         23    2    1    2    0    0 -0.27296296593E+02 -0.24953323553E+03 -0.73557382527E+03  0.78254360974E+03  0.91069892274E+02 0.  0.
    5000000    2    1    2    0    0  0.27296296593E+02  0.24953323553E+03  0.87181114510E+02  0.65713062579E+03  0.60100598099E+03 0.  0.
         23    2    4    4    0    0  0.13766148892E+03  0.12779955137E+03 -0.21763350512E+03  0.29992816117E+03  0.85493557931E+02 0.  0.
         23    2    4    4    0    0 -0.11036519232E+03  0.12173368416E+03  0.30481461963E+03  0.35720246462E+03  0.87647492015E+02 0.  0.
          3    1    3    3  502    0 -0.59637195570E+02 -0.13369271853E+03 -0.42419884857E+03  0.44874826040E+03  0.00000000000E+00 0. -1.
         -3    1    3    3    0  502  0.32340898978E+02 -0.11584051700E+03 -0.31137497670E+03  0.33379534934E+03  0.00000000000E+00 0.  1.
         15    1    5    5    0    0 -0.16553372049E+01  0.40549117145E+02 -0.57767984233E+02  0.70620597376E+02  0.17770000000E+01 0.  1.
        -15    1    5    5    0    0  0.13931682612E+03  0.87250434228E+02 -0.15986552089E+03  0.22930756379E+03  0.17770000000E+01 0. -1.
          2    1    6    6  503    0 -0.69338694261E+02  0.80398386159E+02  0.26810088792E+03  0.28835714161E+03  0.00000000000E+00 0. -1.
         -2    1    6    6    0  503 -0.41026498062E+02  0.41335297997E+02  0.36713731719E+02  0.68845323011E+02  0.00000000000E+00 0.  1.
<mgrwt>
<rscale>  0 0.31804172E+03</rscale>
<asrwt>0</asrwt>
<pdfrwt beam="1">  1        1 0.60867809E-01 0.31804172E+03</pdfrwt>
<pdfrwt beam="2">  1       -1 0.16062054E+00 0.31804172E+03</pdfrwt>
<totfact> 0.19361764E+01</totfact>
</mgrwt>
</event>
<event>
12    1  0.9321077E-008  0.6467693E+03  0.7818608E-02  0.9812860E-01
         -2   -1    0    0    0  501 -0.00000000000E+00  0.00000000000E+00  0.34853205298E+03  0.34853205298E+03  0.00000000000E+00 0.  1.
          2   -1    0    0  501    0  0.00000000000E+00 -0.00000000000E+00 -0.20119391337E+04  0.20119391337E+04  0.00000000000E+00 0. -1.
         23    2    1    2    0    0  0.32232504608E+03  0.52060568111E+03 -0.12790816486E+04  0.14210196004E+04  0.91231192650E+02 0.  0.
    5000000    2    1    2    0    0 -0.32232504608E+03 -0.52060568111E+03 -0.38432543215E+03  0.93945158627E+03  0.59994961006E+03 0.  0.
         23    2    4    4    0    0 -0.33554438126E+03 -0.43984886329E+03 -0.51453965027E+03  0.76072023976E+03  0.88809780639E+02 0.  0.
         23    2    4    4    0    0  0.13219335183E+02 -0.80756817814E+02  0.13021421812E+03  0.17873134651E+03  0.91064467150E+02 0.  0.
          4    1    3    3  502    0  0.28887345144E+03  0.40624852888E+03 -0.10687393272E+04  0.11792749839E+04  0.00000000000E+00 0. -1.
         -4    1    3    3    0  502  0.33451594641E+02  0.11435715223E+03 -0.21034232138E+03  0.24174461651E+03  0.00000000000E+00 0.  1.
         15    1    5    5    0    0 -0.20471006043E+03 -0.28196209238E+03 -0.37944431761E+03  0.51516014818E+03  0.17770000000E+01 0.  1.
        -15    1    5    5    0    0 -0.13083432084E+03 -0.15788677091E+03 -0.13509533266E+03  0.24556009157E+03  0.17770000000E+01 0. -1.
          1    1    6    6  503    0 -0.35443434656E+02 -0.10546318138E+02  0.41011115348E+02  0.55221132446E+02  0.00000000000E+00 0. -1.
         -1    1    6    6    0  503  0.48662769839E+02 -0.70210499676E+02  0.89203102774E+02  0.12351021406E+03  0.00000000000E+00 0.  1.
<mgrwt>
<rscale>  0 0.64676932E+03</rscale>
<asrwt>0</asrwt>
<pdfrwt beam="1">  1        2 0.30952909E+00 0.64676932E+03</pdfrwt>
<pdfrwt beam="2">  1       -2 0.53620317E-01 0.64676932E+03</pdfrwt>
<totfact> 0.22638351E+01</totfact>
</mgrwt>
</event>
<event>
12    1  0.9321077E-008  0.6672476E+03  0.7818608E-02  0.9774943E-01
         -2   -1    0    0    0  501 -0.00000000000E+00  0.00000000000E+00  0.47000785226E+03  0.47000785226E+03  0.00000000000E+00 0.  1.
          2   -1    0    0  501    0  0.00000000000E+00 -0.00000000000E+00 -0.11516883170E+04  0.11516883170E+04  0.00000000000E+00 0. -1.
         23    2    1    2    0    0  0.81834207380E+02 -0.60221157163E+03 -0.23206204749E+03  0.65654318382E+03  0.88546845400E+02 0.  0.
    5000000    2    1    2    0    0 -0.81834207380E+02  0.60221157163E+03 -0.44961841722E+03  0.96515298542E+03  0.60000662468E+03 0.  0.
         23    2    4    4    0    0  0.64197912195E+01 -0.55307359816E+02 -0.24442175382E+03  0.26404324510E+03  0.82926013862E+02 0.  0.
         23    2    4    4    0    0 -0.88253998600E+02  0.65751893144E+03 -0.20519666340E+03  0.70110974032E+03  0.96588217818E+02 0.  0.
          2    1    3    3  502    0  0.60566869884E+02 -0.27116598126E+03 -0.66035006348E+02  0.28558703960E+03  0.00000000000E+00 0. -1.
         -2    1    3    3    0  502  0.21267337497E+02 -0.33104559036E+03 -0.16602704114E+03  0.37095614422E+03  0.00000000000E+00 0.  1.
         15    1    5    5    0    0  0.11554992249E+02 -0.23174705832E+02 -0.22418426895E+03  0.22568191999E+03  0.17770000000E+01 0.  1.
        -15    1    5    5    0    0 -0.51352010291E+01 -0.32132653984E+02 -0.20237484870E+02  0.38361325114E+02  0.17770000000E+01 0. -1.
          4    1    6    6  503    0 -0.92937802277E+02  0.48688058027E+03 -0.11843876919E+03  0.50962523150E+03  0.00000000000E+00 0. -1.
         -4    1    6    6    0  503  0.46838036769E+01  0.17063835117E+03 -0.86757894215E+02  0.19148450882E+03  0.00000000000E+00 0.  1.
<mgrwt>
<rscale>  0 0.66724758E+03</rscale>
<asrwt>0</asrwt>
<pdfrwt beam="1">  1        2 0.17718282E+00 0.66724758E+03</pdfrwt>
<pdfrwt beam="2">  1       -2 0.72308900E-01 0.66724758E+03</pdfrwt>
<totfact> 0.35998604E+01</totfact>
</mgrwt>
</event>
<event>
12    1  0.9321077E-008  0.6236355E+03  0.7818608E-02  0.9857548E-01
         -1   -1    0    0    0  501 -0.00000000000E+00  0.00000000000E+00  0.49674711534E+03  0.49674711534E+03  0.00000000000E+00 0.  1.
          1   -1    0    0  501    0  0.00000000000E+00 -0.00000000000E+00 -0.11641056661E+04  0.11641056661E+04  0.00000000000E+00 0. -1.
         23    2    1    2    0    0  0.30702033413E+03 -0.36998914126E+03 -0.74045053044E+03  0.88837606005E+03  0.98952442205E+02 0.  0.
    5000000    2    1    2    0    0 -0.30702033413E+03  0.36998914126E+03  0.73091979717E+02  0.77247672136E+03  0.60018696864E+03 0.  0.
         23    2    4    4    0    0  0.12599911939E+03  0.27608795070E+03  0.26865545789E+02  0.31757136909E+03  0.89607378632E+02 0.  0.
         23    2    4    4    0    0 -0.43301945352E+03  0.93901190563E+02  0.46226433928E+02  0.45490535228E+03  0.92079941445E+02 0.  0.
          2    1    3    3  502    0  0.26990718672E+03 -0.35415105434E+03 -0.70893950789E+03  0.83717864556E+03  0.00000000000E+00 0. -1.
         -2    1    3    3    0  502  0.37113147413E+02 -0.15838086915E+02 -0.31511022547E+02  0.51197414486E+02  0.00000000000E+00 0.  1.
         15    1    5    5    0    0  0.28480603642E+02  0.15438252198E+03  0.36926107248E+02  0.16128175037E+03  0.17770000000E+01 0. -1.
        -15    1    5    5    0    0  0.97518515748E+02  0.12170542872E+03 -0.10060561459E+02  0.15628961872E+03  0.17770000000E+01 0.  1.
          2    1    6    6  503    0 -0.36799864058E+03  0.10507118504E+03  0.60358895065E+02  0.38743534894E+03  0.00000000000E+00 0. -1.
         -2    1    6    6    0  503 -0.65020812945E+02 -0.11169994476E+02 -0.14132461137E+02  0.67470003338E+02  0.00000000000E+00 0.  1.
<mgrwt>
<rscale>  0 0.62363548E+03</rscale>
<asrwt>0</asrwt>
<pdfrwt beam="1">  1        1 0.17909317E+00 0.62363548E+03</pdfrwt>
<pdfrwt beam="2">  1       -1 0.76422635E-01 0.62363548E+03</pdfrwt>
<totfact> 0.20468086E+01</totfact>
</mgrwt>
</event>
<event>
12    1  0.9321077E-008  0.1049087E+04  0.7818608E-02  0.9256287E-01
          2   -1    0    0  501    0  0.00000000000E+00  0.00000000000E+00  0.91750191471E+03  0.91750191471E+03  0.00000000000E+00 0. -1.
         -2   -1    0    0    0  501 -0.00000000000E+00 -0.00000000000E+00 -0.13153565836E+04  0.13153565836E+04  0.00000000000E+00 0.  1.
         23    2    1    2    0    0 -0.10141520029E+04  0.26388221882E+02 -0.19755252154E+03  0.10373437276E+04  0.88624981675E+02 0.  0.
    5000000    2    1    2    0    0  0.10141520029E+04 -0.26388221882E+02 -0.20030214738E+03  0.11955147707E+04  0.59994499212E+03 0.  0.
         23    2    4    4    0    0  0.58596644127E+03 -0.19503001351E+03 -0.33052823408E+03  0.70622787819E+03  0.90086213901E+02 0.  0.
         23    2    4    4    0    0  0.42818556158E+03  0.16864179163E+03  0.13022608670E+03  0.48928689251E+03  0.10324679412E+03 0.  0.
          3    1    3    3  502    0 -0.85521089928E+03  0.50952802682E+02 -0.15118322848E+03  0.86996450441E+03  0.00000000000E+00 0. -1.
         -3    1    3    3    0  502 -0.15894110357E+03 -0.24564580800E+02 -0.46369293053E+02  0.16737922324E+03  0.00000000000E+00 0.  1.
         15    1    5    5    0    0  0.25964957925E+03 -0.92768955461E+02 -0.19808516379E+03  0.33950680839E+03  0.17770000000E+01 0. -1.
        -15    1    5    5    0    0  0.32631686202E+03 -0.10226105805E+03 -0.13244307029E+03  0.36672106980E+03  0.17770000000E+01 0.  1.
          3    1    6    6  503    0  0.17395969665E+03  0.95163673729E+02  0.97654466274E+01  0.19852824687E+03  0.00000000000E+00 0. -1.
         -3    1    6    6    0  503  0.25422586493E+03  0.73478117902E+02  0.12046064007E+03  0.29075864564E+03  0.00000000000E+00 0.  1.
<mgrwt>
<rscale>  0 0.10490874E+04</rscale>
<asrwt>0</asrwt>
<pdfrwt beam="1">  1        2 0.14115414E+00 0.10490874E+04</pdfrwt>
<pdfrwt beam="2">  1       -2 0.20236255E+00 0.10490874E+04</pdfrwt>
<totfact> 0.36162575E+00</totfact>
</mgrwt>
</event>
<event>
12    1  0.9701860E-008  0.9074134E+03  0.7818608E-02  0.9416361E-01
         -2   -1    0    0    0  501 -0.00000000000E+00  0.00000000000E+00  0.64397979863E+03  0.64397979863E+03  0.00000000000E+00 0. -1.
          2   -1    0    0  501    0  0.00000000000E+00 -0.00000000000E+00 -0.15082259941E+04  0.15082259941E+04  0.00000000000E+00 0.  1.
         23    2    1    2    0    0 -0.69955708465E+03  0.44526525194E+03 -0.34558308276E+02  0.83474013250E+03  0.89193906013E+02 0.  0.
    5000000    2    1    2    0    0  0.69955708465E+03 -0.44526525194E+03 -0.82968788724E+03  0.13174656603E+04  0.59974370899E+03 0.  0.
         23    2    4    4    0    0  0.14965898260E+03  0.11316391790E+03 -0.30707117423E+03  0.37107637253E+03  0.90559841081E+02 0.  0.
         23    2    4    4    0    0  0.54989810205E+03 -0.55842916984E+03 -0.52261671301E+03  0.94638928774E+03  0.91068078165E+02 0.  0.
          3    1    3    3  502    0 -0.35330570609E+03  0.27579721113E+03 -0.30088998684E+02  0.44921528410E+03  0.00000000000E+00 0. -1.
         -3    1    3    3    0  502 -0.34625137856E+03  0.16946804081E+03 -0.44693095916E+01  0.38552484841E+03  0.00000000000E+00 0.  1.
         15    1    5    5    0    0  0.12358812303E+03  0.64307234240E+02 -0.15098665279E+03  0.20544968138E+03  0.17770000000E+01 0.  1.
        -15    1    5    5    0    0  0.26070859570E+02  0.48856683660E+02 -0.15608452145E+03  0.16562669115E+03  0.17770000000E+01 0. -1.
          4    1    6    6  503    0  0.11302873024E+03 -0.79813040644E+02 -0.63687339670E+02  0.15232101809E+03  0.00000000000E+00 0. -1.
         -4    1    6    6    0  503  0.43686937180E+03 -0.47861612920E+03 -0.45892937334E+03  0.79406826965E+03  0.00000000000E+00 0.  1.
<mgrwt>
<rscale>  0 0.90741344E+03</rscale>
<asrwt>0</asrwt>
<pdfrwt beam="1">  1        2 0.23203476E+00 0.90741344E+03</pdfrwt>
<pdfrwt beam="2">  1       -2 0.99073818E-01 0.90741344E+03</pdfrwt>
<totfact> 0.10660953E+01</totfact>
</mgrwt>
</event>
<event>
12    1  0.9321077E-008  0.1834812E+04  0.7818608E-02  0.8688003E-01
          3   -1    0    0  501    0  0.00000000000E+00  0.00000000000E+00  0.27556276607E+04  0.27556276607E+04  0.00000000000E+00 0. -1.
         -3   -1    0    0    0  501 -0.00000000000E+00 -0.00000000000E+00 -0.13662477314E+04  0.13662477314E+04  0.00000000000E+00 0.  1.
         23    2    1    2    0    0  0.11016793042E+04 -0.14639872081E+04  0.17364410354E+03  0.18426456606E+04  0.90746466070E+02 0.  0.
    5000000    2    1    2    0    0 -0.11016793042E+04  0.14639872081E+04  0.12157358258E+04  0.22792297315E+04  0.59993227622E+03 0.  0.
         23    2    4    4    0    0 -0.22142737781E+03  0.37064268570E+03  0.59664768126E+03  0.74204197117E+03  0.90728977243E+02 0.  0.
         23    2    4    4    0    0 -0.88025192643E+03  0.10933445224E+04  0.61908814458E+03  0.15371877603E+04  0.97110150103E+02 0.  0.
          3    1    3    3  502    0  0.63243362052E+03 -0.86409703260E+03  0.14402699071E+03  0.10804534882E+04  0.00000000000E+00 0. -1.
         -3    1    3    3    0  502  0.46924568372E+03 -0.59989017545E+03  0.29617112823E+02  0.76219217240E+03  0.00000000000E+00 0.  1.
         15    1    5    5    0    0 -0.11636055473E+02  0.23571055981E+02  0.85976916582E+02  0.89923191564E+02  0.17770000000E+01 0.  1.
        -15    1    5    5    0    0 -0.20979132234E+03  0.34707162972E+03  0.51067076468E+03  0.65211877960E+03  0.17770000000E+01 0. -1.
          4    1    6    6  503    0 -0.42619571008E+03  0.58347297978E+03  0.35620951546E+03  0.80558594844E+03  0.00000000000E+00 0. -1.
         -4    1    6    6    0  503 -0.45405621635E+03  0.50987154257E+03  0.26287862912E+03  0.73160181190E+03  0.00000000000E+00 0.  1.
<mgrwt>
<rscale>  0 0.18348117E+04</rscale>
<asrwt>0</asrwt>
<pdfrwt beam="1">  1        3 0.42394272E+00 0.18348117E+04</pdfrwt>
<pdfrwt beam="2">  1       -3 0.21019196E+00 0.18348117E+04</pdfrwt>
<totfact> 0.24332861E-03</totfact>
</mgrwt>
</event>
<event>
12    1  0.9321077E-008  0.1093778E+04  0.7818608E-02  0.9211277E-01
          1   -1    0    0  501    0  0.00000000000E+00  0.00000000000E+00  0.21441560024E+04  0.21441560024E+04  0.00000000000E+00 0. -1.
         -1   -1    0    0    0  501 -0.00000000000E+00 -0.00000000000E+00 -0.13004279158E+04  0.13004279158E+04  0.00000000000E+00 0.  1.
         23    2    1    2    0    0 -0.91944406731E+03 -0.44053238342E+03 -0.88274228959E+03  0.13516699333E+04  0.91276968279E+02 0.  0.
    5000000    2    1    2    0    0  0.91944406731E+03  0.44053238342E+03  0.17264703762E+04  0.20929139849E+04  0.60011900039E+03 0.  0.
         23    2    4    4    0    0  0.71156357191E+03  0.46136529190E+02  0.92960574843E+03  0.11750667808E+04  0.90353724851E+02 0.  0.
         23    2    4    4    0    0  0.20788049540E+03  0.39439585423E+03  0.79686462774E+03  0.91784720411E+03  0.93208717130E+02 0.  0.
          4    1    3    3  502    0 -0.64403900881E+03 -0.28283272679E+03 -0.65399573084E+03  0.96046395673E+03  0.00000000000E+00 0. -1.
         -4    1    3    3    0  502 -0.27540505850E+03 -0.15769965663E+03 -0.22874655875E+03  0.39120597655E+03  0.00000000000E+00 0.  1.
         15    1    5    5    0    0  0.19501749596E+03  0.35212532181E+02  0.20506382601E+03  0.28517727228E+03  0.17770000000E+01 0. -1.
        -15    1    5    5    0    0  0.51654607595E+03  0.10923997009E+02  0.72454192241E+03  0.88988950851E+03  0.17770000000E+01 0.  1.
          3    1    6    6  503    0  0.13915822230E+03  0.18455874263E+03  0.35047205175E+03  0.41983044121E+03  0.00000000000E+00 0. -1.
         -3    1    6    6    0  503  0.68722273103E+02  0.20983711160E+03  0.44639257599E+03  0.49801676289E+03  0.00000000000E+00 0.  1.
<mgrwt>
<rscale>  0 0.10937781E+04</rscale>
<asrwt>0</asrwt>
<pdfrwt beam="1">  1        1 0.32987016E+00 0.10937781E+04</pdfrwt>
<pdfrwt beam="2">  1       -1 0.20006583E+00 0.10937781E+04</pdfrwt>
<totfact> 0.35709596E-01</totfact>
</mgrwt>
</event>
<event>
12    1  0.9321077E-008  0.8208864E+03  0.7818608E-02  0.9530267E-01
          1   -1    0    0  501    0  0.00000000000E+00  0.00000000000E+00  0.20085609445E+04  0.20085609445E+04  0.00000000000E+00 0. -1.
         -1   -1    0    0    0  501 -0.00000000000E+00 -0.00000000000E+00 -0.41543869940E+03  0.41543869940E+03  0.00000000000E+00 0.  1.
         23    2    1    2    0    0  0.55961071795E+03 -0.45850109390E+03  0.12019918872E+04  0.14059081075E+04  0.91682610595E+02 0.  0.
    5000000    2    1    2    0    0 -0.55961071795E+03  0.45850109390E+03  0.39113035791E+03  0.10180915364E+04  0.60011666438E+03 0.  0.
         23    2    4    4    0    0 -0.48668282944E+03  0.57064230454E+03  0.40192613690E+03  0.85557676236E+03  0.89298155420E+02 0.  0.
         23    2    4    4    0    0 -0.72927888513E+02 -0.11214121064E+03 -0.10795778985E+02  0.16251477405E+03  0.91653559081E+02 0.  0.
          3    1    3    3  502    0  0.35629252663E+03 -0.24768409298E+03  0.66059330138E+03  0.79036402011E+03  0.00000000000E+00 0. -1.
         -3    1    3    3    0  502  0.20331819132E+03 -0.21081700092E+03  0.54139858582E+03  0.61554408740E+03  0.00000000000E+00 0.  1.
         15    1    5    5    0    0 -0.59458090328E+02  0.39122621341E+02  0.57944022776E+02  0.91796032106E+02  0.17770000000E+01 0.  1.
        -15    1    5    5    0    0 -0.42722473911E+03  0.53151968320E+03  0.34398211412E+03  0.76378073025E+03  0.17770000000E+01 0. -1.
          4    1    6    6  503    0 -0.94796380643E+02 -0.91853422787E+02 -0.47799076439E+01  0.13208426317E+03  0.00000000000E+00 0.  1.
         -4    1    6    6    0  503  0.21868492130E+02 -0.20287787855E+02 -0.60158713411E+01  0.30430510874E+02  0.00000000000E+00 0. -1.
<mgrwt>
<rscale>  0 0.82088643E+03</rscale>
<asrwt>0</asrwt>
<pdfrwt beam="1">  1        1 0.30900937E+00 0.82088643E+03</pdfrwt>
<pdfrwt beam="2">  1       -1 0.63913647E-01 0.82088643E+03</pdfrwt>
<totfact> 0.75634158E+00</totfact>
</mgrwt>
</event>
<event>
12    1  0.9321077E-008  0.1180295E+04  0.7818608E-02  0.9130281E-01
         -2   -1    0    0    0  501 -0.00000000000E+00  0.00000000000E+00  0.72583498598E+03  0.72583498598E+03  0.00000000000E+00 0. -1.
          2   -1    0    0  501    0  0.00000000000E+00 -0.00000000000E+00 -0.21910021796E+04  0.21910021796E+04  0.00000000000E+00 0.  1.
         23    2    1    2    0    0  0.33082500983E+03 -0.11266168050E+04 -0.48276192854E+03  0.12725624957E+04  0.87439198002E+02 0.  0.
    5000000    2    1    2    0    0 -0.33082500983E+03  0.11266168050E+04 -0.98240526507E+03  0.16442746698E+04  0.59984037251E+03 0.  0.
         23    2    4    4    0    0 -0.15298800444E+03  0.74395565927E+03 -0.26958521340E+03  0.81132951426E+03  0.93295449849E+02 0.  0.
         23    2    4    4    0    0 -0.17783700540E+03  0.38266114578E+03 -0.71282005167E+03  0.83294515558E+03  0.87347885867E+02 0.  0.
          2    1    3    3  502    0  0.20571575064E+03 -0.56164911824E+03 -0.26641637699E+03  0.65478728455E+03  0.00000000000E+00 0. -1.
         -2    1    3    3    0  502  0.12510925919E+03 -0.56496768681E+03 -0.21634555155E+03  0.61777521118E+03  0.00000000000E+00 0.  1.
         15    1    5    5    0    0 -0.10869618618E+03  0.43671632619E+03 -0.11478035113E+03  0.46444988663E+03  0.17770000000E+01 0.  1.
        -15    1    5    5    0    0 -0.44291818254E+02  0.30723933308E+03 -0.15480486227E+03  0.34687962763E+03  0.17770000000E+01 0. -1.
          2    1    6    6  503    0 -0.17843621672E+03  0.37123731408E+03 -0.65308613297E+03  0.77212571766E+03  0.00000000000E+00 0. -1.
         -2    1    6    6    0  503  0.59921132423E+00  0.11423831696E+02 -0.59733918704E+02  0.60819437917E+02  0.00000000000E+00 0.  1.
<mgrwt>
<rscale>  0 0.11802948E+04</rscale>
<asrwt>0</asrwt>
<pdfrwt beam="1">  1        2 0.33707726E+00 0.11802948E+04</pdfrwt>
<pdfrwt beam="2">  1       -2 0.11166692E+00 0.11802948E+04</pdfrwt>
<totfact> 0.32460581E+00</totfact>
</mgrwt>
</event>
<event>
12    1  0.9321077E-008  0.1011466E+04  0.7818608E-02  0.9296057E-01
         -2   -1    0    0    0  501 -0.00000000000E+00  0.00000000000E+00  0.48766861006E+03  0.48766861006E+03  0.00000000000E+00 0.  1.
          2   -1    0    0  501    0  0.00000000000E+00 -0.00000000000E+00 -0.21947835621E+04  0.21947835621E+04  0.00000000000E+00 0. -1.
         23    2    1    2    0    0  0.93953557806E+03  0.32687662145E+02 -0.65735692114E+03  0.11508319977E+04  0.92198587085E+02 0.  0.
    5000000    2    1    2    0    0 -0.93953557806E+03 -0.32687662145E+02 -0.10497580309E+04  0.15316201745E+04  0.60006070499E+03 0.  0.
         23    2    4    4    0    0 -0.42848736951E+01 -0.13552587635E+03 -0.17638794883E+03  0.24486433800E+03  0.10227517894E+03 0.  0.
         23    2    4    4    0    0 -0.93525070436E+03  0.10283821421E+03 -0.87337008209E+03  0.12867558365E+04  0.87725162302E+02 0.  0.
          2    1    3    3  502    0  0.25836216382E+03  0.26346797511E+02 -0.22818388169E+03  0.34570658845E+03  0.00000000000E+00 0. -1.
         -2    1    3    3    0  502  0.68117341423E+03  0.63408646337E+01 -0.42917303944E+03  0.80512540924E+03  0.00000000000E+00 0.  1.
         15    1    5    5    0    0 -0.15751117164E+02 -0.91859754211E+02 -0.40451306531E+02  0.10161583570E+03  0.17770000000E+01 0.  1.
        -15    1    5    5    0    0  0.11466243469E+02 -0.43666122140E+02 -0.13593664230E+03  0.14324850230E+03  0.17770000000E+01 0. -1.
          4    1    6    6  503    0 -0.57863274990E+03  0.98680175044E+02 -0.57618909873E+03  0.82252508393E+03  0.00000000000E+00 0. -1.
         -4    1    6    6    0  503 -0.35661795446E+03  0.41580391626E+01 -0.29718098336E+03  0.46423075254E+03  0.00000000000E+00 0.  1.
<mgrwt>
<rscale>  0 0.10114664E+04</rscale>
<asrwt>0</asrwt>
<pdfrwt beam="1">  1        2 0.33765900E+00 0.10114664E+04</pdfrwt>
<pdfrwt beam="2">  1       -2 0.75025942E-01 0.10114664E+04</pdfrwt>
<totfact> 0.83284289E+00</totfact>
</mgrwt>
</event>
<event>
12    1  0.9321077E-008  0.7537187E+03  0.7818608E-02  0.9629534E-01
         -3   -1    0    0    0  501 -0.00000000000E+00  0.00000000000E+00  0.91735869812E+03  0.91735869812E+03  0.00000000000E+00 0.  1.
          3   -1    0    0  501    0  0.00000000000E+00 -0.00000000000E+00 -0.93727190562E+03  0.93727190562E+03  0.00000000000E+00 0. -1.
         23    2    1    2    0    0  0.37384164600E+03 -0.62738228931E+03 -0.39800390914E+03  0.83660416710E+03  0.90184851776E+02 0.  0.
    5000000    2    1    2    0    0 -0.37384164600E+03  0.62738228931E+03  0.37809070164E+03  0.10180264366E+04  0.60004927616E+03 0.  0.
         23    2    4    4    0    0 -0.33484779975E+03  0.50994228025E+03  0.51747330704E+03  0.80523274316E+03  0.91961779975E+02 0.  0.
         23    2    4    4    0    0 -0.38993846250E+02  0.11744000905E+03 -0.13938260539E+03  0.21279369349E+03  0.10266922387E+03 0.  0.
          3    1    3    3  502    0  0.10838209059E+03 -0.19789393001E+03 -0.17052791087E+03  0.28282230018E+03  0.00000000000E+00 0. -1.
         -3    1    3    3    0  502  0.26545955542E+03 -0.42948835930E+03 -0.22747599827E+03  0.55378186691E+03  0.00000000000E+00 0.  1.
         15    1    5    5    0    0 -0.24080513029E+03  0.28961018615E+03  0.29710671868E+03  0.47972568277E+03  0.17770000000E+01 0.  1.
        -15    1    5    5    0    0 -0.94042669458E+02  0.22033209410E+03  0.22036658835E+03  0.32550706039E+03  0.17770000000E+01 0. -1.
          1    1    6    6  503    0 -0.17896840120E+02  0.13317122063E+03 -0.11363493852E+03  0.17597661817E+03  0.00000000000E+00 0. -1.
         -1    1    6    6    0  503 -0.21097006130E+02 -0.15731211578E+02 -0.25747666874E+02  0.36817075316E+02  0.00000000000E+00 0.  1.
<mgrwt>
<rscale>  0 0.75371869E+03</rscale>
<asrwt>0</asrwt>
<pdfrwt beam="1">  1        3 0.14419568E+00 0.75371869E+03</pdfrwt>
<pdfrwt beam="2">  1       -3 0.14113211E+00 0.75371869E+03</pdfrwt>
<totfact> 0.34940813E-01</totfact>
</mgrwt>
</event>
<event>
12    1  0.9321077E-008  0.5461666E+03  0.7818608E-02  0.1002385E+00
          1   -1    0    0  501    0  0.00000000000E+00  0.00000000000E+00  0.57946582373E+03  0.57946582373E+03  0.00000000000E+00 0. -1.
         -1   -1    0    0    0  501 -0.00000000000E+00 -0.00000000000E+00 -0.85368288980E+03  0.85368288980E+03  0.00000000000E+00 0.  1.
         23    2    1    2    0    0  0.30645015767E+03 -0.26979696953E+03  0.29425276335E+03  0.51119778059E+03  0.89645848952E+02 0.  0.
    5000000    2    1    2    0    0 -0.30645015767E+03  0.26979696953E+03 -0.56846982942E+03  0.92195093294E+03  0.60011121626E+03 0.  0.
         23    2    4    4    0    0 -0.25022455452E+03  0.41687513069E+03 -0.24782025969E+03  0.55342040882E+03  0.91989485891E+02 0.  0.
         23    2    4    4    0    0 -0.56225603148E+02 -0.14707816116E+03 -0.32064956974E+03  0.36853052412E+03  0.90583092757E+02 0.  0.
          2    1    3    3  502    0  0.92614204316E+02 -0.13989711914E+03  0.11455020103E+03  0.20315103578E+03  0.00000000000E+00 0. -1.
         -2    1    3    3    0  502  0.21383595336E+03 -0.12989985039E+03  0.17970256233E+03  0.30804674481E+03  0.00000000000E+00 0.  1.
         15    1    5    5    0    0 -0.10219451552E+03  0.25188091581E+03 -0.11626347695E+03  0.29564855581E+03  0.17770000000E+01 0.  1.
        -15    1    5    5    0    0 -0.14803003901E+03  0.16499421488E+03 -0.13155678273E+03  0.25777185301E+03  0.17770000000E+01 0. -1.
          1    1    6    6  503    0 -0.71114772009E+02 -0.61580747225E+02 -0.18398020728E+03  0.20663546621E+03  0.00000000000E+00 0. -1.
         -1    1    6    6    0  503  0.14889168860E+02 -0.85497413936E+02 -0.13666936246E+03  0.16189505791E+03  0.00000000000E+00 0.  1.
<mgrwt>
<rscale>  0 0.54616657E+03</rscale>
<asrwt>0</asrwt>
<pdfrwt beam="1">  1        1 0.89148589E-01 0.54616657E+03</pdfrwt>
<pdfrwt beam="2">  1       -1 0.13133583E+00 0.54616657E+03</pdfrwt>
<totfact> 0.18766266E+01</totfact>
</mgrwt>
</event>
<event>
12    1  0.9321077E-008  0.1735118E+04  0.7818608E-02  0.8741585E-01
         -2   -1    0    0    0  501 -0.00000000000E+00  0.00000000000E+00  0.11068331446E+04  0.11068331446E+04  0.00000000000E+00 0.  1.
          2   -1    0    0  501    0  0.00000000000E+00 -0.00000000000E+00 -0.28441342120E+04  0.28441342120E+04  0.00000000000E+00 0. -1.
         23    2    1    2    0    0 -0.16360099615E+04 -0.44737512458E+03 -0.11777989783E+04  0.20668890691E+04  0.90260150102E+02 0.  0.
    5000000    2    1    2    0    0  0.16360099615E+04  0.44737512458E+03 -0.55950208899E+03  0.18840782875E+04  0.60002942403E+03 0.  0.
         23    2    4    4    0    0  0.77246836332E+03 -0.53894585744E+02 -0.12103787462E+03  0.78987008487E+03  0.98145734411E+02 0.  0.
         23    2    4    4    0    0  0.86354159813E+03  0.50126971032E+03 -0.43846421437E+03  0.10942082026E+04  0.89807066411E+02 0.  0.
          4    1    3    3  502    0 -0.12576359208E+04 -0.36113724821E+03 -0.86616878803E+03  0.15691770425E+04  0.00000000000E+00 0. -1.
         -4    1    3    3    0  502 -0.37837404069E+03 -0.86237876364E+02 -0.31163019030E+03  0.49771202667E+03  0.00000000000E+00 0.  1.
         15    1    5    5    0    0  0.75447349800E+03 -0.52887409650E+02 -0.13332037199E+03  0.76798751070E+03  0.17770000000E+01 0. -1.
        -15    1    5    5    0    0  0.17994865317E+02 -0.10071760940E+01  0.12282497369E+02  0.21882574165E+02  0.17770000000E+01 0.  1.
          2    1    6    6  503    0  0.50098003675E+03  0.26828378502E+03 -0.20552153863E+03  0.60431472708E+03  0.00000000000E+00 0.  1.
         -2    1    6    6    0  503  0.36256156138E+03  0.23298592530E+03 -0.23294267574E+03  0.48989347553E+03  0.00000000000E+00 0. -1.
<mgrwt>
<rscale>  0 0.17351180E+04</rscale>
<asrwt>0</asrwt>
<pdfrwt beam="1">  1        2 0.43755910E+00 0.17351180E+04</pdfrwt>
<pdfrwt beam="2">  1       -2 0.17028203E+00 0.17351180E+04</pdfrwt>
<totfact> 0.42475164E-01</totfact>
</mgrwt>
</event>
<event>
12    1  0.9321077E-008  0.2824303E+03  0.7818608E-02  0.1094369E+00
         -2   -1    0    0    0  501 -0.00000000000E+00  0.00000000000E+00  0.37960103123E+03  0.37960103123E+03  0.00000000000E+00 0.  1.
          2   -1    0    0  501    0  0.00000000000E+00 -0.00000000000E+00 -0.63474608715E+03  0.63474608715E+03  0.00000000000E+00 0. -1.
         23    2    1    2    0    0  0.97533663395E+02  0.12095549377E+03  0.18109475511E+03  0.25637674426E+03  0.93758614017E+02 0.  0.
    5000000    2    1    2    0    0 -0.97533663395E+02 -0.12095549377E+03 -0.43623981102E+03  0.75797037412E+03  0.60005905406E+03 0.  0.
         23    2    4    4    0    0 -0.39288326699E+02 -0.24756820445E+03 -0.51145644517E+03  0.57687514125E+03  0.91452965097E+02 0.  0.
         23    2    4    4    0    0 -0.58245336696E+02  0.12661271068E+03  0.75216634142E+02  0.18109523287E+03  0.87833043690E+02 0.  0.
          2    1    3    3  502    0  0.53341444494E+02  0.34883122064E+02  0.17135790883E+02  0.65998312364E+02  0.00000000000E+00 0. -1.
         -2    1    3    3    0  502  0.44192218901E+02  0.86072371702E+02  0.16395896422E+03  0.19037843190E+03  0.00000000000E+00 0.  1.
         15    1    5    5    0    0  0.21445620592E+01 -0.20219848046E+03 -0.42653420154E+03  0.47204174335E+03  0.17770000000E+01 0. -1.
        -15    1    5    5    0    0 -0.41432888758E+02 -0.45369723985E+02 -0.84922243625E+02  0.10483339791E+03  0.17770000000E+01 0.  1.
          4    1    6    6  503    0 -0.37695881086E+00  0.14631506290E+02  0.50586911365E+02  0.52661738252E+02  0.00000000000E+00 0. -1.
         -4    1    6    6    0  503 -0.57868377885E+02  0.11198120439E+03  0.24629722777E+02  0.12843349462E+03  0.00000000000E+00 0.  1.
<mgrwt>
<rscale>  0 0.28243028E+03</rscale>
<asrwt>0</asrwt>
<pdfrwt beam="1">  1        2 0.97653244E-01 0.28243028E+03</pdfrwt>
<pdfrwt beam="2">  1       -2 0.58400159E-01 0.28243028E+03</pdfrwt>
<totfact> 0.13333715E+02</totfact>
</mgrwt>
</event>
<event>
12    1  0.9321077E-008  0.7806073E+03  0.7818608E-02  0.9588519E-01
         -2   -1    0    0    0  501 -0.00000000000E+00  0.00000000000E+00  0.51269434883E+03  0.51269434883E+03  0.00000000000E+00 0.  1.
          2   -1    0    0  501    0  0.00000000000E+00 -0.00000000000E+00 -0.15222845092E+04  0.15222845092E+04  0.00000000000E+00 0. -1.
         23    2    1    2    0    0 -0.58725845517E+03  0.49492877123E+03 -0.30065739354E+03  0.82985567290E+03  0.91861786302E+02 0.  0.
    5000000    2    1    2    0    0  0.58725845517E+03 -0.49492877123E+03 -0.70893276682E+03  0.12051231851E+04  0.59992436329E+03 0.  0.
         23    2    4    4    0    0  0.20133663686E+03 -0.21282441650E+03 -0.64477655124E+03  0.71440341997E+03  0.93833745712E+02 0.  0.
         23    2    4    4    0    0  0.38592181831E+03 -0.28210435473E+03 -0.64156215578E+02  0.49071976514E+03  0.90395525893E+02 0.  0.
          3    1    3    3  502    0 -0.42569907705E+03  0.40004900333E+03 -0.25248704801E+03  0.63640287451E+03  0.00000000000E+00 0. -1.
         -3    1    3    3    0  502 -0.16155937812E+03  0.94879767900E+02 -0.48170345530E+02  0.19345279839E+03  0.00000000000E+00 0.  1.
         15    1    5    5    0    0 -0.73583514835E+01  0.97736067391E+00 -0.82258147599E+01  0.11221511837E+02  0.17770000000E+01 0.  1.
        -15    1    5    5    0    0  0.20869498835E+03 -0.21380177718E+03 -0.63655073648E+03  0.70318190814E+03  0.17770000000E+01 0. -1.
          2    1    6    6  503    0  0.11398684264E+03 -0.45219972575E+02 -0.41131989508E+02  0.12934329042E+03  0.00000000000E+00 0. -1.
         -2    1    6    6    0  503  0.27193497567E+03 -0.23688438215E+03 -0.23024226070E+02  0.36137647473E+03  0.00000000000E+00 0.  1.
<mgrwt>
<rscale>  0 0.78060728E+03</rscale>
<asrwt>0</asrwt>
<pdfrwt beam="1">  1        2 0.23419761E+00 0.78060728E+03</pdfrwt>
<pdfrwt beam="2">  1       -2 0.78876055E-01 0.78060728E+03</pdfrwt>
<totfact> 0.17960292E+01</totfact>
</mgrwt>
</event>
<event>
12    1  0.9321077E-008  0.6382530E+03  0.7818608E-02  0.9829075E-01
         -1   -1    0    0    0  501 -0.00000000000E+00  0.00000000000E+00  0.30317098927E+03  0.30317098927E+03  0.00000000000E+00 0.  1.
          1   -1    0    0  501    0  0.00000000000E+00 -0.00000000000E+00 -0.15962078573E+04  0.15962078573E+04  0.00000000000E+00 0. -1.
         23    2    1    2    0    0 -0.11017924402E+03 -0.55002387356E+03 -0.48399153115E+03  0.74641812934E+03  0.90700023610E+02 0.  0.
    5000000    2    1    2    0    0  0.11017924402E+03  0.55002387356E+03 -0.80904533688E+03  0.11529607172E+04  0.60008193695E+03 0.  0.
         23    2    4    4    0    0 -0.13805513596E+03  0.81813491486E+02 -0.41167001457E+01  0.18497415615E+03  0.91901160329E+02 0.  0.
         23    2    4    4    0    0  0.24823437998E+03  0.46821038208E+03 -0.80492863674E+03  0.96798656109E+03  0.90810808366E+02 0.  0.
          1    1    3    3  502    0 -0.72814048613E+02 -0.21144895883E+03 -0.14941938332E+03  0.26895854695E+03  0.00000000000E+00 0. -1.
         -1    1    3    3    0  502 -0.37365195411E+02 -0.33857491473E+03 -0.33457214783E+03  0.47745958239E+03  0.00000000000E+00 0.  1.
         15    1    5    5    0    0 -0.45373450722E+02 -0.14413741404E+02 -0.17359935708E+02  0.50705335700E+02  0.17770000000E+01 0. -1.
        -15    1    5    5    0    0 -0.92681685235E+02  0.96227232890E+02  0.13243235563E+02  0.13426882045E+03  0.17770000000E+01 0.  1.
          2    1    6    6  503    0  0.74684976073E+02  0.11014210236E+03 -0.27289689358E+03  0.30361462891E+03  0.00000000000E+00 0. -1.
         -2    1    6    6    0  503  0.17354940391E+03  0.35806827972E+03 -0.53203174316E+03  0.66437193218E+03  0.00000000000E+00 0.  1.
<mgrwt>
<rscale>  0 0.63825300E+03</rscale>
<asrwt>0</asrwt>
<pdfrwt beam="1">  1        1 0.24557044E+00 0.63825300E+03</pdfrwt>
<pdfrwt beam="2">  1       -1 0.46641691E-01 0.63825300E+03</pdfrwt>
<totfact> 0.26986063E+01</totfact>
</mgrwt>
</event>
<event>
12    1  0.9321077E-008  0.1575450E+04  0.7818608E-02  0.8835773E-01
         -1   -1    0    0    0  501 -0.00000000000E+00  0.00000000000E+00  0.16255518887E+04  0.16255518887E+04  0.00000000000E+00 0.  1.
          1   -1    0    0  501    0  0.00000000000E+00 -0.00000000000E+00 -0.21023148282E+04  0.21023148282E+04  0.00000000000E+00 0. -1.
         23    2    1    2    0    0  0.21727101271E+03 -0.15500342296E+04 -0.11260582845E+04  0.19302354128E+04  0.89379432206E+02 0.  0.
    5000000    2    1    2    0    0 -0.21727101271E+03  0.15500342296E+04  0.64929534499E+03  0.17976313041E+04  0.60006754189E+03 0.  0.
         23    2    4    4    0    0 -0.18024698545E+03  0.13215387766E+04  0.74427191347E+03  0.15300323341E+04  0.90025265162E+02 0.  0.
         23    2    4    4    0    0 -0.37024027263E+02  0.22849545299E+03 -0.94976568479E+02  0.26759897008E+03  0.94908954235E+02 0.  0.
          4    1    3    3  502    0  0.14069102948E+03 -0.92802818958E+03 -0.62253369118E+03  0.11263118942E+04  0.00000000000E+00 0. -1.
         -4    1    3    3    0  502  0.76579983234E+02 -0.62200603997E+03 -0.50352459334E+03  0.80392351856E+03  0.00000000000E+00 0.  1.
         15    1    5    5    0    0 -0.79081327362E+01  0.31369448273E+03  0.15657997588E+03  0.35069532878E+03  0.17770000000E+01 0.  1.
        -15    1    5    5    0    0 -0.17233885271E+03  0.10078442938E+04  0.58769193759E+03  0.11793370053E+04  0.17770000000E+01 0. -1.
          4    1    6    6  503    0  0.31079907997E+02  0.83591974151E+02 -0.44852953287E+02  0.99826681013E+02  0.00000000000E+00 0. -1.
         -4    1    6    6    0  503 -0.68103935260E+02  0.14490347884E+03 -0.50123615191E+02  0.16777228907E+03  0.00000000000E+00 0.  1.
<mgrwt>
<rscale>  0 0.15754505E+04</rscale>
<asrwt>0</asrwt>
<pdfrwt beam="1">  1        1 0.32343305E+00 0.15754505E+04</pdfrwt>
<pdfrwt beam="2">  1       -1 0.25008491E+00 0.15754505E+04</pdfrwt>
<totfact> 0.16527566E-01</totfact>
</mgrwt>
</event>
<event>
12    1  0.9321077E-008  0.1065372E+04  0.7818608E-02  0.9239616E-01
         -1   -1    0    0    0  501 -0.00000000000E+00  0.00000000000E+00  0.67329920938E+03  0.67329920938E+03  0.00000000000E+00 0.  1.
          1   -1    0    0  501    0  0.00000000000E+00 -0.00000000000E+00 -0.21981100281E+04  0.21981100281E+04  0.00000000000E+00 0. -1.
         23    2    1    2    0    0  0.39254939583E+03 -0.94353022768E+03 -0.11922655613E+03  0.10329102831E+04  0.91347482928E+02 0.  0.
    5000000    2    1    2    0    0 -0.39254939583E+03  0.94353022768E+03 -0.14055842626E+04  0.18384989543E+04  0.60005580334E+03 0.  0.
         23    2    4    4    0    0 -0.20431375910E+03  0.88631810721E+03 -0.87457038748E+03  0.12651133854E+04  0.91294118485E+02 0.  0.
         23    2    4    4    0    0 -0.18823563673E+03  0.57212120472E+02 -0.53101387508E+03  0.57338556886E+03  0.89941055036E+02 0.  0.
          4    1    3    3  502    0  0.63155954814E+02 -0.16559690913E+03  0.13528194845E+02  0.17774707592E+03  0.00000000000E+00 0. -1.
         -4    1    3    3    0  502  0.32939344102E+03 -0.77793331854E+03 -0.13275475098E+03  0.85516320723E+03  0.00000000000E+00 0.  1.
         15    1    5    5    0    0 -0.63414832284E+02  0.33989294659E+03 -0.39109520390E+03  0.52202229104E+03  0.17770000000E+01 0. -1.
        -15    1    5    5    0    0 -0.14089892681E+03  0.54642516061E+03 -0.48347518357E+03  0.74309109441E+03  0.17770000000E+01 0.  1.
          3    1    6    6  503    0 -0.62248907089E+02  0.55891851519E+01 -0.28919730534E+03  0.29587370083E+03  0.00000000000E+00 0. -1.
         -3    1    6    6    0  503 -0.12598672964E+03  0.51622935320E+02 -0.24181656974E+03  0.27751186803E+03  0.00000000000E+00 0.  1.
<mgrwt>
<rscale>  0 0.10653719E+04</rscale>
<asrwt>0</asrwt>
<pdfrwt beam="1">  1        1 0.33817077E+00 0.10653719E+04</pdfrwt>
<pdfrwt beam="2">  1       -1 0.10358449E+00 0.10653719E+04</pdfrwt>
<totfact> 0.19284977E+00</totfact>
</mgrwt>
</event>
<event>
12    1  0.9321077E-008  0.6813438E+03  0.7818608E-02  0.9749680E-01
          2   -1    0    0  501    0  0.00000000000E+00  0.00000000000E+00  0.30445527081E+04  0.30445527081E+04  0.00000000000E+00 0. -1.
         -2   -1    0    0    0  501 -0.00000000000E+00 -0.00000000000E+00 -0.22352483858E+03  0.22352483858E+03  0.00000000000E+00 0.  1.
         23    2    1    2    0    0  0.61459459356E+03  0.25427982608E+03  0.17346236492E+04  0.18600273662E+04  0.91639806988E+02 0.  0.
    5000000    2    1    2    0    0 -0.61459459356E+03 -0.25427982608E+03  0.10864042203E+04  0.14080501804E+04  0.59995536205E+03 0.  0.
         23    2    4    4    0    0 -0.41538480613E+03 -0.79709508827E+02  0.19778961915E+03  0.47602919230E+03  0.92654819205E+02 0.  0.
         23    2    4    4    0    0 -0.19920978744E+03 -0.17457031725E+03  0.88861460111E+03  0.93202098814E+03  0.94169410866E+02 0.  0.
          3    1    3    3  502    0  0.31340155217E+03  0.83975255063E+02  0.88866526282E+03  0.94604351153E+03  0.00000000000E+00 0. -1.
         -3    1    3    3    0  502  0.30119304140E+03  0.17030457102E+03  0.84595838639E+03  0.91398385467E+03  0.00000000000E+00 0.  1.
         15    1    5    5    0    0 -0.10664639860E+03 -0.81484897605E+00  0.12455977587E+02  0.10738914014E+03  0.17770000000E+01 0. -1.
        -15    1    5    5    0    0 -0.30873840753E+03 -0.78894659851E+02  0.18533364156E+03  0.36864005216E+03  0.17770000000E+01 0.  1.
          2    1    6    6  503    0 -0.82921327555E+02 -0.51690520563E+02  0.19552294913E+03  0.21857968825E+03  0.00000000000E+00 0.  1.
         -2    1    6    6    0  503 -0.11628845988E+03 -0.12287979669E+03  0.69309165198E+03  0.71344129988E+03  0.00000000000E+00 0. -1.
<mgrwt>
<rscale>  0 0.68134378E+03</rscale>
<asrwt>0</asrwt>
<pdfrwt beam="1">  1        2 0.46839270E+00 0.68134378E+03</pdfrwt>
<pdfrwt beam="2">  1       -2 0.34388439E-01 0.68134378E+03</pdfrwt>
<totfact> 0.13917416E+01</totfact>
</mgrwt>
</event>
<event>
12    1  0.9321077E-008  0.3430568E+03  0.7818608E-02  0.1065501E+00
          1   -1    0    0  501    0  0.00000000000E+00  0.00000000000E+00  0.46109464886E+03  0.46109464886E+03  0.00000000000E+00 0. -1.
         -1   -1    0    0    0  501 -0.00000000000E+00 -0.00000000000E+00 -0.48977419297E+03  0.48977419297E+03  0.00000000000E+00 0.  1.
         23    2    1    2    0    0  0.23441110155E+03 -0.13928365383E+03  0.28112463568E+02  0.28969293368E+03  0.93718645231E+02 0.  0.
    5000000    2    1    2    0    0 -0.23441110155E+03  0.13928365383E+03 -0.56792007679E+02  0.66117590816E+03  0.59964968827E+03 0.  0.
         23    2    4    4    0    0 -0.21595883978E+03  0.18455171656E+03  0.21743256795E+03  0.36849114697E+03  0.88381260607E+02 0.  0.
         23    2    4    4    0    0 -0.18452261764E+02 -0.45268062730E+02 -0.27422457563E+03  0.29268476118E+03  0.89864164621E+02 0.  0.
          2    1    3    3  502    0  0.18309683439E+03 -0.14749893315E+03  0.33311132256E+02  0.23746582401E+03  0.00000000000E+00 0. -1.
         -2    1    3    3    0  502  0.51314267160E+02  0.82152793124E+01 -0.51986686875E+01  0.52227109670E+02  0.00000000000E+00 0.  1.
         15    1    5    5    0    0 -0.83701437317E+02  0.12890293823E+03  0.10416301570E+03  0.18567441844E+03  0.17770000000E+01 0. -1.
        -15    1    5    5    0    0 -0.13225740247E+03  0.55648778332E+02  0.11326955225E+03  0.18281672854E+03  0.17770000000E+01 0.  1.
          1    1    6    6  503    0  0.23432821660E+02 -0.54154820895E+02 -0.14479869981E+03  0.15636017787E+03  0.00000000000E+00 0. -1.
         -1    1    6    6    0  503 -0.41885083424E+02  0.88867581649E+01 -0.12942587581E+03  0.13632458331E+03  0.00000000000E+00 0.  1.
<mgrwt>
<rscale>  0 0.34305679E+03</rscale>
<asrwt>0</asrwt>
<pdfrwt beam="1">  1        1 0.70937639E-01 0.34305679E+03</pdfrwt>
<pdfrwt beam="2">  1       -1 0.75349875E-01 0.34305679E+03</pdfrwt>
<totfact> 0.92918295E+01</totfact>
</mgrwt>
</event>
<event>
12    1  0.9321077E-008  0.2101899E+03  0.7818608E-02  0.1141416E+00
         -1   -1    0    0    0  501 -0.00000000000E+00  0.00000000000E+00  0.84223355478E+03  0.84223355478E+03  0.00000000000E+00 0.  1.
          1   -1    0    0  501    0  0.00000000000E+00 -0.00000000000E+00 -0.27305091575E+03  0.27305091575E+03  0.00000000000E+00 0. -1.
         23    2    1    2    0    0 -0.69113322200E+02 -0.15269245787E+03 -0.88136983447E+02  0.20967974808E+03  0.90032388119E+02 0.  0.
    5000000    2    1    2    0    0  0.69113322200E+02  0.15269245787E+03  0.65731962248E+03  0.90560472244E+03  0.59996599006E+03 0.  0.
         23    2    4    4    0    0 -0.23957790137E+02  0.10116495935E+03 -0.76316483923E+02  0.15859823270E+03  0.92308553174E+02 0.  0.
         23    2    4    4    0    0  0.93071112337E+02  0.51527498515E+02  0.73363610640E+03  0.74700648974E+03  0.92083896777E+02 0.  0.
          1    1    3    3  502    0 -0.65343422901E+02 -0.89614768758E+02 -0.95112077864E+02  0.14610570506E+03  0.00000000000E+00 0. -1.
         -1    1    3    3    0  502 -0.37698992992E+01 -0.63077689109E+02  0.69750944174E+01  0.63574043022E+02  0.00000000000E+00 0.  1.
         15    1    5    5    0    0  0.33577624797E+02  0.57632594144E+02 -0.40154863601E+02  0.77875179580E+02  0.17770000000E+01 0.  1.
        -15    1    5    5    0    0 -0.57535414934E+02  0.43532365208E+02 -0.36161620322E+02  0.80723053123E+02  0.17770000000E+01 0. -1.
          2    1    6    6  503    0  0.27335664955E+01 -0.97334632927E+00  0.33166605489E+03  0.33167874782E+03  0.00000000000E+00 0. -1.
         -2    1    6    6    0  503  0.90337545841E+02  0.52500844844E+02  0.40197005151E+03  0.41532774192E+03  0.00000000000E+00 0.  1.
<mgrwt>
<rscale>  0 0.21018994E+03</rscale>
<asrwt>0</asrwt>
<pdfrwt beam="1">  1        1 0.42007834E-01 0.21018994E+03</pdfrwt>
<pdfrwt beam="2">  1       -1 0.12957439E+00 0.21018994E+03</pdfrwt>
<totfact> 0.55538734E+01</totfact>
</mgrwt>
</event>
<event>
12    1  0.9321077E-008  0.7260357E+03  0.7818608E-02  0.9673715E-01
          1   -1    0    0  501    0  0.00000000000E+00  0.00000000000E+00  0.33223049760E+04  0.33223049760E+04  0.00000000000E+00 0. -1.
         -1   -1    0    0    0  501 -0.00000000000E+00 -0.00000000000E+00 -0.41751969196E+03  0.41751969196E+03  0.00000000000E+00 0.  1.
         23    2    1    2    0    0  0.23326606055E+03 -0.64308374866E+03  0.27265696258E+04  0.28125731115E+04  0.91737783171E+02 0.  0.
    5000000    2    1    2    0    0 -0.23326606055E+03  0.64308374866E+03  0.17821565828E+03  0.92725155642E+03  0.60005405192E+03 0.  0.
         23    2    4    4    0    0 -0.26750428256E+03  0.61795595981E+03  0.32193270356E+03  0.75182204149E+03  0.90374813925E+02 0.  0.
         23    2    4    4    0    0  0.34238222007E+02  0.25127788853E+02 -0.14371704528E+03  0.17542951493E+03  0.91199035000E+02 0.  0.
          4    1    3    3  502    0  0.11582174062E+03 -0.40330882513E+03  0.18031272120E+04  0.18513077612E+04  0.00000000000E+00 0. -1.
         -4    1    3    3    0  502  0.11744431993E+03 -0.23977492354E+03  0.92344241379E+03  0.96126535037E+03  0.00000000000E+00 0.  1.
         15    1    5    5    0    0 -0.13273728712E+03  0.37617161184E+03  0.22821638397E+03  0.45957604875E+03  0.17770000000E+01 0. -1.
        -15    1    5    5    0    0 -0.13476699543E+03  0.24178434797E+03  0.93716319591E+02  0.29224599273E+03  0.17770000000E+01 0.  1.
          1    1    6    6  503    0 -0.10077131376E+02  0.41347678849E+02 -0.29316862550E+02  0.51678405091E+02  0.00000000000E+00 0. -1.
         -1    1    6    6    0  503  0.44315353383E+02 -0.16219889997E+02 -0.11440018273E+03  0.12375110984E+03  0.00000000000E+00 0.  1.
<mgrwt>
<rscale>  0 0.72603566E+03</rscale>
<asrwt>0</asrwt>
<pdfrwt beam="1">  1        1 0.51112382E+00 0.72603566E+03</pdfrwt>
<pdfrwt beam="2">  1       -1 0.64233801E-01 0.72603566E+03</pdfrwt>
<totfact> 0.92272902E-01</totfact>
</mgrwt>
</event>
<event>
12    1  0.9321077E-008  0.4069889E+03  0.7818608E-02  0.1041386E+00
          2   -1    0    0  501    0  0.00000000000E+00  0.00000000000E+00  0.41672935150E+03  0.41672935150E+03  0.00000000000E+00 0. -1.
         -2   -1    0    0    0  501 -0.00000000000E+00 -0.00000000000E+00 -0.59026459154E+03  0.59026459154E+03  0.00000000000E+00 0.  1.
         23    2    1    2    0    0  0.27496302388E+03  0.11357222408E+03  0.15936751932E+02  0.31130750604E+03  0.90305418834E+02 0.  0.
    5000000    2    1    2    0    0 -0.27496302388E+03 -0.11357222408E+03 -0.18947199197E+03  0.69568643700E+03  0.59964711982E+03 0.  0.
         23    2    4    4    0    0 -0.37245781234E+03 -0.14030951206E+03  0.58364454775E+02  0.41236824254E+03  0.90717014543E+02 0.  0.
         23    2    4    4    0    0  0.97494788464E+02  0.26737287980E+02 -0.24783644674E+03  0.28331819446E+03  0.92877223424E+02 0.  0.
          4    1    3    3  502    0  0.14241434368E+03  0.95739314007E+02  0.37989828750E+02  0.17575860896E+03  0.00000000000E+00 0. -1.
         -4    1    3    3    0  502  0.13254868020E+03  0.17832910069E+02 -0.22053076818E+02  0.13554889708E+03  0.00000000000E+00 0.  1.
         15    1    5    5    0    0 -0.50841335269E+02 -0.54549779491E+02  0.96371423043E+00  0.74596288705E+02  0.17770000000E+01 0. -1.
        -15    1    5    5    0    0 -0.32161647708E+03 -0.85759732565E+02  0.57400740544E+02  0.33777195384E+03  0.17770000000E+01 0.  1.
          4    1    6    6  503    0  0.72409045743E+02  0.21754439109E+02 -0.24635913915E+03  0.25769973025E+03  0.00000000000E+00 0.  1.
         -4    1    6    6    0  503  0.25085742720E+02  0.49828488704E+01 -0.14773075891E+01  0.25618464209E+02  0.00000000000E+00 0. -1.
<mgrwt>
<rscale>  0 0.40698894E+03</rscale>
<asrwt>0</asrwt>
<pdfrwt beam="1">  1        2 0.64112208E-01 0.40698894E+03</pdfrwt>
<pdfrwt beam="2">  1       -2 0.90809937E-01 0.40698894E+03</pdfrwt>
<totfact> 0.81373850E+01</totfact>
</mgrwt>
</event>
<event>
12    1  0.9321077E-008  0.8157157E+03  0.7818608E-02  0.9537544E-01
          1   -1    0    0  501    0  0.00000000000E+00  0.00000000000E+00  0.76269091462E+03  0.76269091462E+03  0.00000000000E+00 0. -1.
         -1   -1    0    0    0  501 -0.00000000000E+00 -0.00000000000E+00 -0.97392634589E+03  0.97392634589E+03  0.00000000000E+00 0.  1.
         23    2    1    2    0    0 -0.63460446936E+03  0.35933596745E+03  0.10139355133E+03  0.74178029559E+03  0.90067667001E+02 0.  0.
    5000000    2    1    2    0    0  0.63460446936E+03 -0.35933596745E+03 -0.31262898261E+03  0.99483696492E+03  0.60009877185E+03 0.  0.
         23    2    4    4    0    0  0.70262788823E+03 -0.39279894465E+03 -0.20834163842E+03  0.83652714595E+03  0.91621326012E+02 0.  0.
         23    2    4    4    0    0 -0.68023418866E+02  0.33462977199E+02 -0.10428734419E+03  0.15830981897E+03  0.91865076436E+02 0.  0.
          1    1    3    3  502    0 -0.49667348819E+03  0.23799152874E+03  0.86045215707E+02  0.55743008599E+03  0.00000000000E+00 0. -1.
         -1    1    3    3    0  502 -0.13793098117E+03  0.12134443871E+03  0.15348335625E+02  0.18435020960E+03  0.00000000000E+00 0.  1.
         15    1    5    5    0    0  0.32284264785E+03 -0.23272449458E+03 -0.10641106638E+03  0.41196424411E+03  0.17770000000E+01 0.  1.
        -15    1    5    5    0    0  0.37978524037E+03 -0.16007445007E+03 -0.10193057204E+03  0.42456290184E+03  0.17770000000E+01 0. -1.
          4    1    6    6  503    0 -0.43080020767E+02 -0.24133683045E+01 -0.10614028134E+03  0.11457517994E+03  0.00000000000E+00 0. -1.
         -4    1    6    6    0  503 -0.24943398099E+02  0.35876345503E+02  0.18529371495E+01  0.43734639034E+02  0.00000000000E+00 0.  1.
<mgrwt>
<rscale>  0 0.81571575E+03</rscale>
<asrwt>0</asrwt>
<pdfrwt beam="1">  1        1 0.11733706E+00 0.81571575E+03</pdfrwt>
<pdfrwt beam="2">  1       -1 0.14983482E+00 0.81571575E+03</pdfrwt>
<totfact> 0.85414770E+00</totfact>
</mgrwt>
</event>
<event>
12    1  0.9321077E-008  0.5199887E+03  0.7818608E-02  0.1008689E+00
         -2   -1    0    0    0  501 -0.00000000000E+00  0.00000000000E+00  0.14998749028E+03  0.14998749028E+03  0.00000000000E+00 0. -1.
          2   -1    0    0  501    0  0.00000000000E+00 -0.00000000000E+00 -0.31908283048E+04  0.31908283048E+04  0.00000000000E+00 0.  1.
         23    2    1    2    0    0  0.24803953248E+03  0.32035761055E+03 -0.31590964367E+03  0.52182428960E+03  0.91373288992E+02 0.  0.
    5000000    2    1    2    0    0 -0.24803953248E+03 -0.32035761055E+03 -0.27249311708E+04  0.28189915055E+04  0.59775464343E+03 0.  0.
         23    2    4    4    0    0 -0.25490334955E+03 -0.41826364524E+03 -0.13815183151E+04  0.14685480102E+04  0.90112200342E+02 0.  0.
         23    2    4    4    0    0  0.68638170754E+01  0.97906034690E+02 -0.13434128558E+04  0.13504434953E+04  0.96471909985E+02 0.  0.
          3    1    3    3  502    0  0.12477025592E+02  0.70549304455E+02 -0.62595062469E+02  0.95136861269E+02  0.00000000000E+00 0. -1.
         -3    1    3    3    0  502  0.23556250689E+03  0.24980830610E+03 -0.25331458120E+03  0.42668742833E+03  0.00000000000E+00 0.  1.
         15    1    5    5    0    0 -0.11092714876E+03 -0.14306799836E+03 -0.62674396816E+03  0.65236833449E+03  0.17770000000E+01 0. -1.
        -15    1    5    5    0    0 -0.14397620079E+03 -0.27519564689E+03 -0.75477434693E+03  0.81617967567E+03  0.17770000000E+01 0.  1.
          1    1    6    6  503    0  0.42990910996E+02  0.84507450149E+02 -0.78549077512E+03  0.79119244521E+03  0.00000000000E+00 0. -1.
         -1    1    6    6    0  503 -0.36127093921E+02  0.13398584541E+02 -0.55792208064E+03  0.55925105011E+03  0.00000000000E+00 0.  1.
<mgrwt>
<rscale>  0 0.51998874E+03</rscale>
<asrwt>0</asrwt>
<pdfrwt beam="1">  1        2 0.49089662E+00 0.51998874E+03</pdfrwt>
<pdfrwt beam="2">  1       -2 0.23075000E-01 0.51998874E+03</pdfrwt>
<totfact> 0.24274449E+01</totfact>
</mgrwt>
</event>
<event>
12    1  0.9321077E-008  0.6231053E+03  0.7818608E-02  0.9858597E-01
          2   -1    0    0  501    0  0.00000000000E+00  0.00000000000E+00  0.19168257477E+04  0.19168257477E+04  0.00000000000E+00 0. -1.
         -2   -1    0    0    0  501 -0.00000000000E+00 -0.00000000000E+00 -0.26380070101E+03  0.26380070101E+03  0.00000000000E+00 0.  1.
         23    2    1    2    0    0 -0.25442573085E+03 -0.51294996026E+03  0.82452387351E+03  0.10082622490E+04  0.94355871905E+02 0.  0.
    5000000    2    1    2    0    0  0.25442573085E+03  0.51294996026E+03  0.82850117323E+03  0.11723641997E+04  0.60014457304E+03 0.  0.
         23    2    4    4    0    0  0.25125814046E+03  0.13122550284E+03  0.69759125176E+03  0.75837600076E+03  0.90276343838E+02 0.  0.
         23    2    4    4    0    0  0.31675903966E+01  0.38172445742E+03  0.13090992146E+03  0.41398819898E+03  0.92332152210E+02 0.  0.
          3    1    3    3  502    0 -0.11171108849E+03 -0.14939140223E+03  0.21863839477E+03  0.28740199376E+03  0.00000000000E+00 0. -1.
         -3    1    3    3    0  502 -0.14271464236E+03 -0.36355855803E+03  0.60588547874E+03  0.72086025526E+03  0.00000000000E+00 0.  1.
         15    1    5    5    0    0  0.21482400391E+03  0.11140157845E+03  0.48794709379E+03  0.54466061764E+03  0.17770000000E+01 0. -1.
        -15    1    5    5    0    0  0.36434136550E+02  0.19823924385E+02  0.20964415797E+03  0.21371538313E+03  0.17770000000E+01 0.  1.
          1    1    6    6  503    0 -0.24858728104E+02  0.22607784484E+03  0.11550680822E+03  0.25509012336E+03  0.00000000000E+00 0. -1.
         -1    1    6    6    0  503  0.28026318501E+02  0.15564661259E+03  0.15403113242E+02  0.15889807562E+03  0.00000000000E+00 0.  1.
<mgrwt>
<rscale>  0 0.62310525E+03</rscale>
<asrwt>0</asrwt>
<pdfrwt beam="1">  1        2 0.29489626E+00 0.62310525E+03</pdfrwt>
<pdfrwt beam="2">  1       -2 0.40584725E-01 0.62310525E+03</pdfrwt>
<totfact> 0.44704500E+01</totfact>
</mgrwt>
</event>
<event>
12    1  0.9321077E-008  0.3706106E+03  0.7818608E-02  0.1054460E+00
          2   -1    0    0  501    0  0.00000000000E+00  0.00000000000E+00  0.69948144900E+03  0.69948144900E+03  0.00000000000E+00 0. -1.
         -2   -1    0    0    0  501 -0.00000000000E+00 -0.00000000000E+00 -0.26448416703E+03  0.26448416703E+03  0.00000000000E+00 0.  1.
         23    2    1    2    0    0 -0.15683636230E+03 -0.62123062710E+02  0.24584635654E+03  0.31264353436E+03  0.94067152054E+02 0.  0.
    5000000    2    1    2    0    0  0.15683636230E+03  0.62123062710E+02  0.18915092543E+03  0.65132208166E+03  0.59998788489E+03 0.  0.
         23    2    4    4    0    0  0.18487169500E+02 -0.22377496580E+03 -0.44980700151E+02  0.24629323437E+03  0.90664674238E+02 0.  0.
         23    2    4    4    0    0  0.13834919280E+03  0.28589802851E+03  0.23413162558E+03  0.40502884729E+03  0.91392380360E+02 0.  0.
          3    1    3    3  502    0 -0.58909122951E+02 -0.45843457441E+02  0.17625355489E+03  0.19140852376E+03  0.00000000000E+00 0. -1.
         -3    1    3    3    0  502 -0.97927239348E+02 -0.16279605268E+02  0.69592801646E+02  0.12123501060E+03  0.00000000000E+00 0.  1.
         15    1    5    5    0    0 -0.34507322980E+02 -0.10191532761E+03 -0.59215030068E+01  0.10777620919E+03  0.17770000000E+01 0.  1.
        -15    1    5    5    0    0  0.52994492480E+02 -0.12185963820E+03 -0.39059197145E+02  0.13851702518E+03  0.17770000000E+01 0. -1.
          1    1    6    6  503    0  0.11739626648E+03  0.15610515884E+03  0.16909852139E+03  0.25835056404E+03  0.00000000000E+00 0. -1.
         -1    1    6    6    0  503  0.20952926316E+02  0.12979286967E+03  0.65033104187E+02  0.14667828326E+03  0.00000000000E+00 0.  1.
<mgrwt>
<rscale>  0 0.37061055E+03</rscale>
<asrwt>0</asrwt>
<pdfrwt beam="1">  1        2 0.10761253E+00 0.37061055E+03</pdfrwt>
<pdfrwt beam="2">  1       -2 0.40689872E-01 0.37061055E+03</pdfrwt>
<totfact> 0.24196301E+02</totfact>
</mgrwt>
</event>
<event>
12    1  0.9321077E-008  0.7416204E+03  0.7818608E-02  0.9648589E-01
          1   -1    0    0  501    0  0.00000000000E+00  0.00000000000E+00  0.14878124508E+04  0.14878124508E+04  0.00000000000E+00 0.  1.
         -1   -1    0    0    0  501 -0.00000000000E+00 -0.00000000000E+00 -0.43692489719E+03  0.43692489719E+03  0.00000000000E+00 0. -1.
         23    2    1    2    0    0 -0.63270752482E+03 -0.27411514382E+03  0.51044039377E+03  0.86288007939E+03  0.92491684824E+02 0.  0.
    5000000    2    1    2    0    0  0.63270752482E+03  0.27411514382E+03  0.54044715984E+03  0.10618572686E+04  0.59999983524E+03 0.  0.
         23    2    4    4    0    0  0.61447006131E+03  0.31307590030E+03  0.22719196097E+03  0.73182693115E+03  0.91457610044E+02 0.  0.
         23    2    4    4    0    0  0.18237463518E+02 -0.38960756476E+02  0.31325519886E+03  0.33003033747E+03  0.94555054925E+02 0.  0.
          1    1    3    3  502    0 -0.34096574001E+03 -0.98027204546E+02  0.26985634459E+03  0.44574590902E+03  0.00000000000E+00 0. -1.
         -1    1    3    3    0  502 -0.29174178481E+03 -0.17608793927E+03  0.24058404918E+03  0.41713417036E+03  0.00000000000E+00 0.  1.
         15    1    5    5    0    0  0.30666342004E+03  0.19898108115E+03  0.14611606675E+03  0.39368640634E+03  0.17770000000E+01 0. -1.
        -15    1    5    5    0    0  0.30780664127E+03  0.11409481915E+03  0.81075894218E+02  0.33814052481E+03  0.17770000000E+01 0.  1.
          1    1    6    6  503    0 -0.29677748893E+02  0.34364057771E+01  0.17697547370E+03  0.17947951402E+03  0.00000000000E+00 0. -1.
         -1    1    6    6    0  503  0.47915212411E+02 -0.42397162253E+02  0.13627972517E+03  0.15055082344E+03  0.00000000000E+00 0.  1.
<mgrwt>
<rscale>  0 0.74162042E+03</rscale>
<asrwt>0</asrwt>
<pdfrwt beam="1">  1        1 0.22889422E+00 0.74162042E+03</pdfrwt>
<pdfrwt beam="2">  1       -1 0.67219216E-01 0.74162042E+03</pdfrwt>
<totfact> 0.15508530E+01</totfact>
</mgrwt>
</event>
<event>
12    1  0.9321077E-008  0.1318281E+04  0.7818608E-02  0.9015193E-01
          2   -1    0    0  501    0  0.00000000000E+00  0.00000000000E+00  0.24661844991E+04  0.24661844991E+04  0.00000000000E+00 0. -1.
         -2   -1    0    0    0  501 -0.00000000000E+00 -0.00000000000E+00 -0.91226852356E+03  0.91226852356E+03  0.00000000000E+00 0.  1.
         23    2    1    2    0    0  0.70560740537E+03 -0.10360632088E+04  0.15413025349E+04  0.19887169637E+04  0.89849175414E+02 0.  0.
    5000000    2    1    2    0    0 -0.70560740537E+03  0.10360632088E+04  0.12613440672E+02  0.13897360590E+04  0.59991535369E+03 0.  0.
         23    2    4    4    0    0 -0.55303084536E+03  0.32416872398E+03  0.81335695592E+02  0.65290023694E+03  0.93459865673E+02 0.  0.
         23    2    4    4    0    0 -0.15257656001E+03  0.71189448486E+03 -0.68722254919E+02  0.73683582207E+03  0.90171592656E+02 0.  0.
          1    1    3    3  502    0  0.40813718722E+03 -0.67181818576E+03  0.98787214239E+03  0.12624606956E+04  0.00000000000E+00 0. -1.
         -1    1    3    3    0  502  0.29747021816E+03 -0.36424502308E+03  0.55343039249E+03  0.72625626804E+03  0.00000000000E+00 0.  1.
         15    1    5    5    0    0 -0.67841383175E+02  0.97546515932E+01 -0.29712105612E+01  0.68626469528E+02  0.17770000000E+01 0.  1.
        -15    1    5    5    0    0 -0.48518946219E+03  0.31441407238E+03  0.84306906153E+02  0.58427376741E+03  0.17770000000E+01 0. -1.
          3    1    6    6  503    0 -0.70930418783E+02  0.52179049042E+03 -0.55796807832E+02  0.52953727344E+03  0.00000000000E+00 0.  1.
         -3    1    6    6    0  503 -0.81646141228E+02  0.19010399444E+03 -0.12925447088E+02  0.20729854863E+03  0.00000000000E+00 0. -1.
<mgrwt>
<rscale>  0 0.13182809E+04</rscale>
<asrwt>0</asrwt>
<pdfrwt beam="1">  1        2 0.37941300E+00 0.13182809E+04</pdfrwt>
<pdfrwt beam="2">  1       -2 0.14034900E+00 0.13182809E+04</pdfrwt>
<totfact> 0.12533949E+00</totfact>
</mgrwt>
</event>
<event>
12    1  0.9321077E-008  0.7273951E+03  0.7818608E-02  0.9671497E-01
         -2   -1    0    0    0  501 -0.00000000000E+00  0.00000000000E+00  0.16525791161E+04  0.16525791161E+04  0.00000000000E+00 0.  1.
          2   -1    0    0  501    0  0.00000000000E+00 -0.00000000000E+00 -0.60630053544E+03  0.60630053544E+03  0.00000000000E+00 0. -1.
         23    2    1    2    0    0 -0.42407150686E+03 -0.43894814159E+03  0.12367035044E+04  0.13820995942E+04  0.90838408779E+02 0.  0.
    5000000    2    1    2    0    0  0.42407150686E+03  0.43894814159E+03 -0.19042492373E+03  0.87678005735E+03  0.59997458567E+03 0.  0.
         23    2    4    4    0    0  0.55788192085E+03  0.34159210207E+03 -0.19306271233E+03  0.68839393533E+03  0.93250187637E+02 0.  0.
         23    2    4    4    0    0 -0.13381041398E+03  0.97356039521E+02  0.26377885997E+01  0.18838612203E+03  0.89994153826E+02 0.  0.
          2    1    3    3  502    0 -0.22659569438E+03 -0.27175527500E+03  0.63079575132E+03  0.72325639858E+03  0.00000000000E+00 0. -1.
         -2    1    3    3    0  502 -0.19747581248E+03 -0.16719286660E+03  0.60590775304E+03  0.65884319558E+03  0.00000000000E+00 0.  1.
         15    1    5    5    0    0  0.33857030826E+03  0.17654216860E+03 -0.72787285899E+02  0.38871343899E+03  0.17770000000E+01 0.  1.
        -15    1    5    5    0    0  0.21931161258E+03  0.16504993347E+03 -0.12027542643E+03  0.29968049634E+03  0.17770000000E+01 0. -1.
          4    1    6    6  503    0 -0.95997802742E+02  0.11001812915E+03  0.14635797468E+02  0.14674390427E+03  0.00000000000E+00 0. -1.
         -4    1    6    6    0  503 -0.37812611241E+02 -0.12662089634E+02 -0.11998008869E+02  0.41642217755E+02  0.00000000000E+00 0.  1.
<mgrwt>
<rscale>  0 0.72739514E+03</rscale>
<asrwt>0</asrwt>
<pdfrwt beam="1">  1        2 0.93277006E-01 0.72739514E+03</pdfrwt>
<pdfrwt beam="2">  1       -2 0.25424294E+00 0.72739514E+03</pdfrwt>
<totfact> 0.30654499E+00</totfact>
</mgrwt>
</event>
<event>
12    1  0.9321077E-008  0.1815509E+04  0.7818608E-02  0.8698095E-01
          1   -1    0    0  501    0  0.00000000000E+00  0.00000000000E+00  0.26949872117E+04  0.26949872117E+04  0.00000000000E+00 0. -1.
         -1   -1    0    0    0  501 -0.00000000000E+00 -0.00000000000E+00 -0.13897073100E+04  0.13897073100E+04  0.00000000000E+00 0.  1.
         23    2    1    2    0    0 -0.38138607989E+03  0.17534079503E+04  0.12557880888E+04  0.21920260162E+04  0.89886316968E+02 0.  0.
    5000000    2    1    2    0    0  0.38138607989E+03 -0.17534079503E+04  0.49491812893E+02  0.18926685054E+04  0.59987486191E+03 0.  0.
         23    2    4    4    0    0  0.35561921269E+03 -0.77762732286E+03 -0.19642791161E+03  0.88210439758E+03  0.91405503560E+02 0.  0.
         23    2    4    4    0    0  0.25766867201E+02 -0.97578062739E+03  0.24591972450E+03  0.10105641078E+04  0.89171413173E+02 0.  0.
          3    1    3    3  502    0 -0.30684760142E+03  0.13670587677E+04  0.10235778811E+04  0.17351417243E+04  0.00000000000E+00 0. -1.
         -3    1    3    3    0  502 -0.74538478466E+02  0.38634918257E+03  0.23221020766E+03  0.45688429190E+03  0.00000000000E+00 0.  1.
         15    1    5    5    0    0  0.16406513469E+03 -0.25515107381E+03 -0.62358128774E+02  0.30969522574E+03  0.17770000000E+01 0.  1.
        -15    1    5    5    0    0  0.19155407799E+03 -0.52247624905E+03 -0.13406978284E+03  0.57240917185E+03  0.17770000000E+01 0. -1.
          1    1    6    6  503    0 -0.68908047568E+01 -0.28193295862E+03  0.32402609562E+02  0.28387251620E+03  0.00000000000E+00 0. -1.
         -1    1    6    6    0  503  0.32657671958E+02 -0.69384766877E+03  0.21351711494E+03  0.72669159165E+03  0.00000000000E+00 0.  1.
<mgrwt>
<rscale>  0 0.18155094E+04</rscale>
<asrwt>0</asrwt>
<pdfrwt beam="1">  1        1 0.41461342E+00 0.18155094E+04</pdfrwt>
<pdfrwt beam="2">  1       -1 0.21380113E+00 0.18155094E+04</pdfrwt>
<totfact> 0.10920162E-01</totfact>
</mgrwt>
</event>
<event>
12    1  0.9321077E-008  0.1883157E+04  0.7818608E-02  0.8663286E-01
          1   -1    0    0  501    0  0.00000000000E+00  0.00000000000E+00  0.24586350025E+04  0.24586350025E+04  0.00000000000E+00 0. -1.
         -1   -1    0    0    0  501 -0.00000000000E+00 -0.00000000000E+00 -0.16754696747E+04  0.16754696747E+04  0.00000000000E+00 0.  1.
         23    2    1    2    0    0 -0.15900571517E+04 -0.91813767601E+03  0.11493688214E+04  0.21680594996E+04  0.90414425475E+02 0.  0.
    5000000    2    1    2    0    0  0.15900571517E+04  0.91813767601E+03 -0.36620349366E+03  0.19660451776E+04  0.59997508606E+03 0.  0.
         23    2    4    4    0    0  0.10854881064E+04  0.30467402822E+03 -0.18395146714E+03  0.11460779549E+04  0.92443733007E+02 0.  0.
         23    2    4    4    0    0  0.50456904528E+03  0.61346364780E+03 -0.18225202652E+03  0.81996722273E+03  0.90569733126E+02 0.  0.
          4    1    3    3  502    0 -0.85360355750E+03 -0.49720265860E+03  0.67124834842E+03  0.11943298800E+04  0.00000000000E+00 0. -1.
         -4    1    3    3    0  502 -0.73645359422E+03 -0.42093501741E+03  0.47812047300E+03  0.97372961957E+03  0.00000000000E+00 0.  1.
         15    1    5    5    0    0  0.94833480322E+03  0.29707007714E+03 -0.15753887405E+03  0.10061864560E+04  0.17770000000E+01 0.  1.
        -15    1    5    5    0    0  0.13715330322E+03  0.76039510780E+01 -0.26412593097E+02  0.13989149888E+03  0.17770000000E+01 0. -1.
          3    1    6    6  503    0  0.67017537123E+02  0.13475627444E+03 -0.24127622963E+02  0.15242291814E+03  0.00000000000E+00 0. -1.
         -3    1    6    6    0  503  0.43755150816E+03  0.47870737335E+03 -0.15812440356E+03  0.66754430459E+03  0.00000000000E+00 0.  1.
<mgrwt>
<rscale>  0 0.18831568E+04</rscale>
<asrwt>0</asrwt>
<pdfrwt beam="1">  1        1 0.37825154E+00 0.18831568E+04</pdfrwt>
<pdfrwt beam="2">  1       -1 0.25776457E+00 0.18831568E+04</pdfrwt>
<totfact> 0.80969185E-02</totfact>
</mgrwt>
</event>
<event>
12    1  0.9321077E-008  0.4493733E+03  0.7818608E-02  0.1027909E+00
         -1   -1    0    0    0  501 -0.00000000000E+00  0.00000000000E+00  0.74119526093E+03  0.74119526093E+03  0.00000000000E+00 0.  1.
          1   -1    0    0  501    0  0.00000000000E+00 -0.00000000000E+00 -0.54151856419E+03  0.54151856419E+03  0.00000000000E+00 0. -1.
         23    2    1    2    0    0  0.19551497443E+03  0.35302940489E+03 -0.19683022071E+03  0.45814151650E+03  0.91080444741E+02 0.  0.
    5000000    2    1    2    0    0 -0.19551497443E+03 -0.35302940489E+03  0.39650691745E+03  0.82457230863E+03  0.59987156178E+03 0.  0.
         23    2    4    4    0    0  0.52384646121E+02 -0.74886830214E+02 -0.12339180688E+03  0.17824998181E+03  0.90528059321E+02 0.  0.
         23    2    4    4    0    0 -0.24789962055E+03 -0.27814257467E+03  0.51989872432E+03  0.64632232681E+03  0.92845855423E+02 0.  0.
          3    1    3    3  502    0  0.47711702076E+02  0.26857085578E+02 -0.36412335537E+02  0.65753842017E+02  0.00000000000E+00 0. -1.
         -3    1    3    3    0  502  0.14780327235E+03  0.32617231931E+03 -0.16041788517E+03  0.39238767448E+03  0.00000000000E+00 0.  1.
         15    1    5    5    0    0  0.36230315785E+02 -0.85864662337E+02 -0.57544473001E+02  0.10954405562E+03  0.17770000000E+01 0. -1.
        -15    1    5    5    0    0  0.16154330336E+02  0.10977832123E+02 -0.65847333874E+02  0.68705926193E+02  0.17770000000E+01 0.  1.
          4    1    6    6  503    0 -0.55946443215E+02 -0.75236251917E+02  0.20483853363E+03  0.22527610386E+03  0.00000000000E+00 0. -1.
         -4    1    6    6    0  503 -0.19195317733E+03 -0.20290632276E+03  0.31506019070E+03  0.42104622296E+03  0.00000000000E+00 0.  1.
<mgrwt>
<rscale>  0 0.44937331E+03</rscale>
<asrwt>0</asrwt>
<pdfrwt beam="1">  1        1 0.83310548E-01 0.44937331E+03</pdfrwt>
<pdfrwt beam="2">  1       -1 0.11403004E+00 0.44937331E+03</pdfrwt>
<totfact> 0.29563175E+01</totfact>
</mgrwt>
</event>
<event>
12    1  0.2292784E-007  0.1170054E+04  0.7818608E-02  0.9139480E-01
          1   -1    0    0  501    0  0.00000000000E+00  0.00000000000E+00  0.15903314183E+04  0.15903314183E+04  0.00000000000E+00 0. -1.
         -1   -1    0    0    0  501 -0.00000000000E+00 -0.00000000000E+00 -0.87670944388E+03  0.87670944388E+03  0.00000000000E+00 0.  1.
         23    2    1    2    0    0 -0.36339334522E+03 -0.10383961014E+04  0.41133535663E+03  0.11779753943E+04  0.90044806027E+02 0.  0.
    5000000    2    1    2    0    0  0.36339334522E+03  0.10383961014E+04  0.30228661775E+03  0.12890654679E+04  0.59999282857E+03 0.  0.
         23    2    4    4    0    0  0.27301916778E+03  0.12070161381E+03  0.51770054031E+01  0.31550700386E+03  0.10202706772E+03 0.  0.
         23    2    4    4    0    0  0.90374177444E+02  0.91769448762E+03  0.29710961235E+03  0.97355846400E+03  0.95975499613E+02 0.  0.
          3    1    3    3  502    0 -0.20624305347E+03 -0.57761354491E+03  0.27670800703E+03  0.67286025705E+03  0.00000000000E+00 0. -1.
         -3    1    3    3    0  502 -0.15715029175E+03 -0.46078255652E+03  0.13462734959E+03  0.50511513722E+03  0.00000000000E+00 0.  1.
         15    1    5    5    0    0  0.16480445436E+03  0.12288764475E+03 -0.11844567782E+02  0.20592555190E+03  0.17770000000E+01 0.  1.
        -15    1    5    5    0    0  0.10821471342E+03 -0.21860309382E+01  0.17021573185E+02  0.10958145196E+03  0.17770000000E+01 0. -1.
          2    1    6    6  503    0  0.78540600162E+02  0.36855087514E+03  0.98556989256E+02  0.38950205850E+03  0.00000000000E+00 0.  1.
         -2    1    6    6    0  503  0.11833577282E+02  0.54914361248E+03  0.19855262310E+03  0.58405640551E+03  0.00000000000E+00 0. -1.
<mgrwt>
<rscale>  0 0.11700537E+04</rscale>
<asrwt>0</asrwt>
<pdfrwt beam="1">  1        1 0.24466637E+00 0.11700537E+04</pdfrwt>
<pdfrwt beam="2">  1       -1 0.13487838E+00 0.11700537E+04</pdfrwt>
<totfact> 0.25776728E+00</totfact>
</mgrwt>
</event>
<event>
12    1  0.9321077E-008  0.9495315E+03  0.7818608E-02  0.9365698E-01
          2   -1    0    0  501    0  0.00000000000E+00  0.00000000000E+00  0.26652101870E+04  0.26652101870E+04  0.00000000000E+00 0.  1.
         -2   -1    0    0    0  501 -0.00000000000E+00 -0.00000000000E+00 -0.34852900232E+03  0.34852900232E+03  0.00000000000E+00 0. -1.
         23    2    1    2    0    0 -0.69231045306E+03 -0.51125031160E+03  0.88144593984E+03  0.12359078725E+04  0.99250591580E+02 0.  0.
    5000000    2    1    2    0    0  0.69231045306E+03  0.51125031160E+03  0.14352352449E+04  0.17778313168E+04  0.60009444134E+03 0.  0.
         23    2    4    4    0    0  0.30669863710E+03  0.56067566598E+03  0.96227636097E+03  0.11587493595E+04  0.91120945779E+02 0.  0.
         23    2    4    4    0    0  0.38561181596E+03 -0.49425354380E+02  0.47295888389E+03  0.61908195738E+03  0.91831507865E+02 0.  0.
          3    1    3    3  502    0 -0.20085861754E+03 -0.10676350700E+03  0.19306875194E+03  0.29835913535E+03  0.00000000000E+00 0. -1.
         -3    1    3    3    0  502 -0.49145183552E+03 -0.40448680459E+03  0.68837718789E+03  0.93754873715E+03  0.00000000000E+00 0.  1.
         15    1    5    5    0    0  0.22749934598E+03  0.48487407839E+03  0.81181958397E+03  0.97258059767E+03  0.17770000000E+01 0.  1.
        -15    1    5    5    0    0  0.79199291113E+02  0.75801587585E+02  0.15045677700E+03  0.18616876179E+03  0.17770000000E+01 0. -1.
          1    1    6    6  503    0  0.12434979641E+03 -0.22742878270E+01  0.21809539791E+03  0.25106502513E+03  0.00000000000E+00 0. -1.
         -1    1    6    6    0  503  0.26126201955E+03 -0.47151066553E+02  0.25486348597E+03  0.36801693225E+03  0.00000000000E+00 0.  1.
<mgrwt>
<rscale>  0 0.94953150E+03</rscale>
<asrwt>0</asrwt>
<pdfrwt beam="1">  1        2 0.41003232E+00 0.94953150E+03</pdfrwt>
<pdfrwt beam="2">  1       -2 0.53619848E-01 0.94953150E+03</pdfrwt>
<totfact> 0.93295998E+00</totfact>
</mgrwt>
</event>
<event>
12    1  0.9321077E-008  0.8273263E+03  0.7818608E-02  0.9521284E-01
          2   -1    0    0  501    0  0.00000000000E+00  0.00000000000E+00  0.12736451427E+04  0.12736451427E+04  0.00000000000E+00 0. -1.
         -2   -1    0    0    0  501 -0.00000000000E+00 -0.00000000000E+00 -0.81750994549E+03  0.81750994549E+03  0.00000000000E+00 0.  1.
         23    2    1    2    0    0  0.66606622078E+03 -0.39863239507E+03 -0.31525581857E+03  0.84303185959E+03  0.93618845747E+02 0.  0.
    5000000    2    1    2    0    0 -0.66606622078E+03  0.39863239507E+03  0.77139101574E+03  0.12481232286E+04  0.60017955451E+03 0.  0.
         23    2    4    4    0    0 -0.23990519937E+03  0.36542849404E+03  0.11518952533E+03  0.45976357138E+03  0.83793948941E+02 0.  0.
         23    2    4    4    0    0 -0.42616102141E+03  0.33203901027E+02  0.65620149041E+03  0.78835965718E+03  0.90525343691E+02 0.  0.
          4    1    3    3  502    0  0.18831184208E+03 -0.14974697923E+03 -0.66112937728E+02  0.24951238083E+03  0.00000000000E+00 0. -1.
         -4    1    3    3    0  502  0.47775437870E+03 -0.24888541584E+03 -0.24914288084E+03  0.59351947875E+03  0.00000000000E+00 0.  1.
         15    1    5    5    0    0 -0.80108569473E+02  0.92898442907E+02 -0.22818074475E+01  0.12270235520E+03  0.17770000000E+01 0.  1.
        -15    1    5    5    0    0 -0.15979662990E+03  0.27253005113E+03  0.11747133278E+03  0.33706121618E+03  0.17770000000E+01 0. -1.
          2    1    6    6  503    0 -0.24446946425E+03  0.63431029791E+02  0.36825380747E+03  0.44654191427E+03  0.00000000000E+00 0. -1.
         -2    1    6    6    0  503 -0.18169155716E+03 -0.30227128764E+02  0.28794768294E+03  0.34181774291E+03  0.00000000000E+00 0.  1.
<mgrwt>
<rscale>  0 0.82732634E+03</rscale>
<asrwt>0</asrwt>
<pdfrwt beam="1">  1        2 0.19594541E+00 0.82732634E+03</pdfrwt>
<pdfrwt beam="2">  1       -2 0.12577076E+00 0.82732634E+03</pdfrwt>
<totfact> 0.81787004E+00</totfact>
</mgrwt>
</event>
<event>
12    1  0.9321077E-008  0.1173397E+04  0.7818608E-02  0.9136466E-01
         -1   -1    0    0    0  501 -0.00000000000E+00  0.00000000000E+00  0.14399667386E+04  0.14399667386E+04  0.00000000000E+00 0.  1.
          1   -1    0    0  501    0  0.00000000000E+00 -0.00000000000E+00 -0.12800953050E+04  0.12800953050E+04  0.00000000000E+00 0. -1.
         23    2    1    2    0    0 -0.10854450362E+04  0.21262611040E+03  0.74006472725E+03  0.13343423131E+04  0.96813318316E+02 0.  0.
    5000000    2    1    2    0    0  0.10854450362E+04 -0.21262611040E+03 -0.58019329365E+03  0.13857197306E+04  0.60016174855E+03 0.  0.
         23    2    4    4    0    0  0.67264920882E+03 -0.40366846833E+03 -0.42306035917E+03  0.89601365888E+03  0.91952264504E+02 0.  0.
         23    2    4    4    0    0  0.41279582734E+03  0.19104235794E+03 -0.15713293448E+03  0.48970607172E+03  0.90684618229E+02 0.  0.
          4    1    3    3  502    0 -0.14692709553E+03  0.38969313746E+02  0.65175000618E+02  0.16539032475E+03  0.00000000000E+00 0. -1.
         -4    1    3    3    0  502 -0.93851794064E+03  0.17365679665E+03  0.67488972663E+03  0.11689519883E+04  0.00000000000E+00 0.  1.
         15    1    5    5    0    0  0.37166426149E+03 -0.23121226537E+03 -0.28684917490E+03  0.52333454099E+03  0.17770000000E+01 0.  1.
        -15    1    5    5    0    0  0.30098494733E+03 -0.17245620297E+03 -0.13621118427E+03  0.37267911789E+03  0.17770000000E+01 0. -1.
          3    1    6    6  503    0  0.10409216084E+03  0.34952286734E+02 -0.85919874273E-01  0.10980367789E+03  0.00000000000E+00 0. -1.
         -3    1    6    6    0  503  0.30870366650E+03  0.15609007120E+03 -0.15704701460E+03  0.37990239383E+03  0.00000000000E+00 0.  1.
<mgrwt>
<rscale>  0 0.11733972E+04</rscale>
<asrwt>0</asrwt>
<pdfrwt beam="1">  1        1 0.19693774E+00 0.11733972E+04</pdfrwt>
<pdfrwt beam="2">  1       -1 0.22153334E+00 0.11733972E+04</pdfrwt>
<totfact> 0.98806140E-01</totfact>
</mgrwt>
</event>
<event>
12    1  0.9321077E-008  0.6363597E+03  0.7818608E-02  0.9832716E-01
         -2   -1    0    0    0  501 -0.00000000000E+00  0.00000000000E+00  0.21108426975E+03  0.21108426975E+03  0.00000000000E+00 0.  1.
          2   -1    0    0  501    0  0.00000000000E+00 -0.00000000000E+00 -0.20386041587E+04  0.20386041587E+04  0.00000000000E+00 0. -1.
         23    2    1    2    0    0 -0.50490014202E+03  0.90771510599E+02 -0.67205606983E+03  0.85030374092E+03  0.90517789821E+02 0.  0.
    5000000    2    1    2    0    0  0.50490014202E+03 -0.90771510599E+02 -0.11554638191E+04  0.13993846875E+04  0.60001437137E+03 0.  0.
         23    2    4    4    0    0  0.50594960046E+03 -0.26593124299E+03 -0.73784787919E+03  0.93763840199E+03  0.89676395176E+02 0.  0.
         23    2    4    4    0    0 -0.10494584348E+01  0.17515973239E+03 -0.41761593990E+03  0.46174628552E+03  0.90136151016E+02 0.  0.
          2    1    3    3  502    0 -0.18329112916E+03  0.21921250916E+01 -0.18929536927E+03  0.26350176521E+03  0.00000000000E+00 0. -1.
         -2    1    3    3    0  502 -0.32160901286E+03  0.88579385508E+02 -0.48276070056E+03  0.58680197571E+03  0.00000000000E+00 0.  1.
         15    1    5    5    0    0  0.25087004520E+02 -0.25113285398E+02 -0.82794816922E+02  0.90100911968E+02  0.17770000000E+01 0. -1.
        -15    1    5    5    0    0  0.48086259594E+03 -0.24081795759E+03 -0.65505306227E+03  0.84753749002E+03  0.17770000000E+01 0.  1.
          1    1    6    6  503    0 -0.74854016770E+01  0.27608341737E+00 -0.90072034447E+02  0.90382956633E+02  0.00000000000E+00 0. -1.
         -1    1    6    6    0  503  0.64359432422E+01  0.17488364897E+03 -0.32754390546E+03  0.37136332889E+03  0.00000000000E+00 0.  1.
<mgrwt>
<rscale>  0 0.63635972E+03</rscale>
<asrwt>0</asrwt>
<pdfrwt beam="1">  1        2 0.31363140E+00 0.63635972E+03</pdfrwt>
<pdfrwt beam="2">  1       -2 0.32474504E-01 0.63635972E+03</pdfrwt>
<totfact> 0.58690361E+01</totfact>
</mgrwt>
</event>
<event>
12    1  0.9321077E-008  0.5100224E+03  0.7818608E-02  0.1011196E+00
          1   -1    0    0  501    0  0.00000000000E+00  0.00000000000E+00  0.13785849264E+04  0.13785849264E+04  0.00000000000E+00 0. -1.
         -1   -1    0    0    0  501 -0.00000000000E+00 -0.00000000000E+00 -0.28364973056E+03  0.28364973056E+03  0.00000000000E+00 0.  1.
         23    2    1    2    0    0  0.21962396470E+03  0.25479555411E+03  0.87149699185E+03  0.93898200598E+03  0.94998634109E+02 0.  0.
    5000000    2    1    2    0    0 -0.21962396470E+03 -0.25479555411E+03  0.22343820396E+03  0.72325265095E+03  0.60001192142E+03 0.  0.
         23    2    4    4    0    0  0.11255459823E+03  0.10786534255E+03  0.24545971126E+02  0.18538265178E+03  0.97266403128E+02 0.  0.
         23    2    4    4    0    0 -0.33217856293E+03 -0.36266089665E+03  0.19889223283E+03  0.53786999917E+03  0.88772135785E+02 0.  0.
          2    1    3    3  502    0  0.12124883468E+03  0.16487530136E+03  0.40433303976E+03  0.45317805767E+03  0.00000000000E+00 0.  1.
         -2    1    3    3    0  502  0.98375130020E+02  0.89920252745E+02  0.46716395209E+03  0.48580394831E+03  0.00000000000E+00 0. -1.
         15    1    5    5    0    0  0.92106909023E+02  0.12539348995E+03  0.28244816258E+02  0.15813961359E+03  0.17770000000E+01 0.  1.
        -15    1    5    5    0    0  0.20447689205E+02 -0.17528147408E+02 -0.36988451316E+01  0.27243038187E+02  0.17770000000E+01 0. -1.
          2    1    6    6  503    0 -0.15868366968E+02  0.28748913994E+01  0.93765855813E+01  0.18654501546E+02  0.00000000000E+00 0. -1.
         -2    1    6    6    0  503 -0.31631019596E+03 -0.36553578805E+03  0.18951564725E+03  0.51921549762E+03  0.00000000000E+00 0.  1.
<mgrwt>
<rscale>  0 0.51002236E+03</rscale>
<asrwt>0</asrwt>
<pdfrwt beam="1">  1        1 0.21208999E+00 0.51002236E+03</pdfrwt>
<pdfrwt beam="2">  1       -1 0.43638421E-01 0.51002236E+03</pdfrwt>
<totfact> 0.43803650E+01</totfact>
</mgrwt>
</event>
<event>
12    1  0.9321077E-008  0.1256597E+04  0.7818608E-02  0.9064710E-01
          2   -1    0    0  501    0  0.00000000000E+00  0.00000000000E+00  0.34078883200E+04  0.34078883200E+04  0.00000000000E+00 0. -1.
         -2   -1    0    0    0  501 -0.00000000000E+00 -0.00000000000E+00 -0.57805661446E+03  0.57805661446E+03  0.00000000000E+00 0.  1.
         23    2    1    2    0    0  0.28008191128E+03 -0.11625579666E+04  0.22034440240E+04  0.25086738269E+04  0.91059870784E+02 0.  0.
    5000000    2    1    2    0    0 -0.28008191128E+03  0.11625579666E+04  0.62638768156E+03  0.14772711076E+04  0.59998457885E+03 0.  0.
         23    2    4    4    0    0  0.10836674051E+03  0.70124134270E+03  0.43546717543E+03  0.83766949343E+03  0.92605335587E+02 0.  0.
         23    2    4    4    0    0 -0.38844865179E+03  0.46131662395E+03  0.19092050613E+03  0.63960161416E+03  0.94520910726E+02 0.  0.
          2    1    3    3  502    0  0.27381011454E+03 -0.11388841237E+04  0.21800659369E+04  0.24748164609E+04  0.00000000000E+00 0. -1.
         -2    1    3    3    0  502  0.62717967384E+01 -0.23673842995E+02  0.23378087122E+02  0.33857366022E+02  0.00000000000E+00 0.  1.
         15    1    5    5    0    0 -0.74062567717E+01  0.71192918276E+02  0.70091653127E+02  0.10019621659E+03  0.17770000000E+01 0.  1.
        -15    1    5    5    0    0  0.11577299729E+03  0.63004842443E+03  0.36537552230E+03  0.73747327684E+03  0.17770000000E+01 0. -1.
          4    1    6    6  503    0 -0.29065415245E+03  0.37707109438E+03  0.18376579863E+03  0.51032569531E+03  0.00000000000E+00 0. -1.
         -4    1    6    6    0  503 -0.97794499341E+02  0.84245529567E+02  0.71547075046E+01  0.12927591884E+03  0.00000000000E+00 0.  1.
<mgrwt>
<rscale>  0 0.12565970E+04</rscale>
<asrwt>0</asrwt>
<pdfrwt beam="1">  1        2 0.52429050E+00 0.12565970E+04</pdfrwt>
<pdfrwt beam="2">  1       -2 0.88931789E-01 0.12565970E+04</pdfrwt>
<totfact> 0.10149244E+00</totfact>
</mgrwt>
</event>
<event>
12    1  0.1382946E-007  0.1228247E+04  0.7818608E-02  0.9088485E-01
         -1   -1    0    0    0  501 -0.00000000000E+00  0.00000000000E+00  0.12718323512E+04  0.12718323512E+04  0.00000000000E+00 0.  1.
          1   -1    0    0  501    0  0.00000000000E+00 -0.00000000000E+00 -0.13645532378E+04  0.13645532378E+04  0.00000000000E+00 0. -1.
         23    2    1    2    0    0 -0.44192035304E+03 -0.11103391024E+04  0.31315897353E+03  0.12389171474E+04  0.93277192462E+02 0.  0.
    5000000    2    1    2    0    0  0.44192035304E+03  0.11103391024E+04 -0.40587986007E+03  0.13974684416E+04  0.60002755235E+03 0.  0.
         23    2    4    4    0    0  0.39397063149E+03  0.45328873105E+03  0.19929601049E+02  0.60767099945E+03  0.90461717844E+02 0.  0.
         23    2    4    4    0    0  0.47949721543E+02  0.65705037138E+03 -0.42580946112E+03  0.78979744213E+03  0.91934411873E+02 0.  0.
          3    1    3    3  502    0 -0.18242079154E+03 -0.49399050680E+03  0.92179454346E+02  0.53460360811E+03  0.00000000000E+00 0. -1.
         -3    1    3    3    0  502 -0.25949956150E+03 -0.61634859563E+03  0.22097951918E+03  0.70431353931E+03  0.00000000000E+00 0.  1.
         15    1    5    5    0    0  0.19459943662E+03  0.25811787977E+03  0.49793842888E+02  0.32707241570E+03  0.17770000000E+01 0.  1.
        -15    1    5    5    0    0  0.19937119487E+03  0.19517085128E+03 -0.29864241840E+02  0.28059858375E+03  0.17770000000E+01 0. -1.
          1    1    6    6  503    0  0.22590348256E+02  0.38187780715E+03 -0.19306188822E+03  0.42850189744E+03  0.00000000000E+00 0. -1.
         -1    1    6    6    0  503  0.25359373287E+02  0.27517256423E+03 -0.23274757291E+03  0.36129554469E+03  0.00000000000E+00 0.  1.
<mgrwt>
<rscale>  0 0.12282473E+04</rscale>
<asrwt>0</asrwt>
<pdfrwt beam="1">  1        1 0.20993127E+00 0.12282473E+04</pdfrwt>
<pdfrwt beam="2">  1       -1 0.19566651E+00 0.12282473E+04</pdfrwt>
<totfact> 0.12818025E+00</totfact>
</mgrwt>
</event>
<event>
12    1  0.9321077E-008  0.3406910E+03  0.7818608E-02  0.1066502E+00
          2   -1    0    0  501    0  0.00000000000E+00  0.00000000000E+00  0.16863220100E+04  0.16863220100E+04  0.00000000000E+00 0. -1.
         -2   -1    0    0    0  501 -0.00000000000E+00 -0.00000000000E+00 -0.12962172386E+03  0.12962172386E+03  0.00000000000E+00 0.  1.
         23    2    1    2    0    0  0.15737252126E+03 -0.21178590147E+03  0.42911737001E+03  0.51169619399E+03  0.89843748735E+02 0.  0.
    5000000    2    1    2    0    0 -0.15737252126E+03  0.21178590147E+03  0.11275829161E+04  0.13042475398E+04  0.59999919498E+03 0.  0.
         23    2    4    4    0    0  0.35693930014E+02 -0.50855263080E+02 -0.16540097781E+02  0.11154212308E+03  0.91146892227E+02 0.  0.
         23    2    4    4    0    0 -0.19306645127E+03  0.26264116455E+03  0.11441230139E+04  0.11927054168E+04  0.85286014997E+02 0.  0.
          3    1    3    3  502    0  0.19976237534E+02 -0.79301493731E+02  0.83486871963E+02  0.11686673934E+03  0.00000000000E+00 0. -1.
         -3    1    3    3    0  502  0.13739628372E+03 -0.13248440774E+03  0.34563049805E+03  0.39482945465E+03  0.00000000000E+00 0.  1.
         15    1    5    5    0    0  0.45249918725E+02 -0.33126228248E+02  0.27942234865E+02  0.62680366629E+02  0.17770000000E+01 0. -1.
        -15    1    5    5    0    0 -0.95559887105E+01 -0.17729034832E+02 -0.44482332646E+02  0.48861756446E+02  0.17770000000E+01 0.  1.
          1    1    6    6  503    0 -0.38856508629E+02  0.17082582922E+02  0.22359114891E+03  0.22758436847E+03  0.00000000000E+00 0. -1.
         -1    1    6    6    0  503 -0.15420994264E+03  0.24555858163E+03  0.92053186497E+03  0.96512104828E+03  0.00000000000E+00 0.  1.
<mgrwt>
<rscale>  0 0.34069096E+03</rscale>
<asrwt>0</asrwt>
<pdfrwt beam="1">  1        2 0.25943414E+00 0.34069096E+03</pdfrwt>
<pdfrwt beam="2">  1       -2 0.19941805E-01 0.34069096E+03</pdfrwt>
<totfact> 0.22806287E+02</totfact>
</mgrwt>
</event>
<event>
12    1  0.9321077E-008  0.8218496E+03  0.7818608E-02  0.9528918E-01
         -1   -1    0    0    0  501 -0.00000000000E+00  0.00000000000E+00  0.84988194424E+03  0.84988194424E+03  0.00000000000E+00 0.  1.
          1   -1    0    0  501    0  0.00000000000E+00 -0.00000000000E+00 -0.84966530319E+03  0.84966530319E+03  0.00000000000E+00 0. -1.
         23    2    1    2    0    0 -0.46038591371E+03 -0.57832418370E+03  0.17493008325E+02  0.74733055078E+03  0.10854904782E+03 0.  0.
    5000000    2    1    2    0    0  0.46038591371E+03  0.57832418370E+03 -0.17276367281E+02  0.95221669665E+03  0.60000342792E+03 0.  0.
         23    2    4    4    0    0  0.11546709100E+03  0.53993081892E+03 -0.13268973809E+03  0.57517246850E+03  0.91426821013E+02 0.  0.
         23    2    4    4    0    0  0.34491882272E+03  0.38393364782E+02  0.11541337081E+03  0.37704422816E+03  0.91646380732E+02 0.  0.
          4    1    3    3  502    0 -0.23132419429E+03 -0.22012345186E+03 -0.23480293782E+02  0.32018204371E+03  0.00000000000E+00 0. -1.
         -4    1    3    3    0  502 -0.22906171943E+03 -0.35820073184E+03  0.40973302107E+02  0.42714850706E+03  0.00000000000E+00 0.  1.
         15    1    5    5    0    0  0.58062918965E+02  0.27034244664E+03 -0.11339165756E+03  0.29885977773E+03  0.17770000000E+01 0. -1.
        -15    1    5    5    0    0  0.57404172032E+02  0.26958837228E+03 -0.19298080526E+02  0.27631269077E+03  0.17770000000E+01 0.  1.
          3    1    6    6  503    0  0.27018316104E+03  0.29866086329E+02  0.12853765543E+03  0.30068730017E+03  0.00000000000E+00 0.  1.
         -3    1    6    6    0  503  0.74735661681E+02  0.85272784537E+01 -0.13124284623E+02  0.76356927987E+02  0.00000000000E+00 0. -1.
<mgrwt>
<rscale>  0 0.82184962E+03</rscale>
<asrwt>0</asrwt>
<pdfrwt beam="1">  1        1 0.13071774E+00 0.82184962E+03</pdfrwt>
<pdfrwt beam="2">  1       -1 0.13075107E+00 0.82184962E+03</pdfrwt>
<totfact> 0.10235874E+01</totfact>
</mgrwt>
</event>
<event>
12    1  0.9321077E-008  0.9420105E+03  0.7818608E-02  0.9374538E-01
         -1   -1    0    0    0  501 -0.00000000000E+00  0.00000000000E+00  0.12723884506E+04  0.12723884506E+04  0.00000000000E+00 0.  1.
          1   -1    0    0  501    0  0.00000000000E+00 -0.00000000000E+00 -0.10644495805E+04  0.10644495805E+04  0.00000000000E+00 0. -1.
         23    2    1    2    0    0 -0.78357486908E+03  0.36477561959E+03 -0.55988682491E+03  0.10343651659E+04  0.96887623183E+02 0.  0.
    5000000    2    1    2    0    0  0.78357486908E+03 -0.36477561959E+03  0.76782569494E+03  0.13024728652E+04  0.59985701531E+03 0.  0.
         23    2    4    4    0    0  0.15408920248E+03 -0.34630789715E+03  0.16089187119E+03  0.42241315321E+03  0.94202101053E+02 0.  0.
         23    2    4    4    0    0  0.62948566660E+03 -0.18467722435E+02  0.60693382375E+03  0.88005971204E+03  0.97689145328E+02 0.  0.
          3    1    3    3  502    0 -0.29418127987E+03  0.11374325097E+03 -0.15529192723E+03  0.35156185121E+03  0.00000000000E+00 0. -1.
         -3    1    3    3    0  502 -0.48939358921E+03  0.25103236861E+03 -0.40459489768E+03  0.68280331464E+03  0.00000000000E+00 0.  1.
         15    1    5    5    0    0 -0.71368642005E+01 -0.35272180837E+02 -0.19306012434E+01  0.36082496058E+02  0.17770000000E+01 0. -1.
        -15    1    5    5    0    0  0.16122606668E+03 -0.31103571631E+03  0.16282247243E+03  0.38633065715E+03  0.17770000000E+01 0.  1.
          2    1    6    6  503    0  0.45728981662E+02  0.13230612556E+02  0.19963789127E+02  0.51621136647E+02  0.00000000000E+00 0. -1.
         -2    1    6    6    0  503  0.58375668494E+03 -0.31698334991E+02  0.58697003462E+03  0.82843857539E+03  0.00000000000E+00 0.  1.
<mgrwt>
<rscale>  0 0.94201047E+03</rscale>
<asrwt>0</asrwt>
<pdfrwt beam="1">  1        1 0.16376147E+00 0.94201047E+03</pdfrwt>
<pdfrwt beam="2">  1       -1 0.19575207E+00 0.94201047E+03</pdfrwt>
<totfact> 0.21993944E+00</totfact>
</mgrwt>
</event>
<event>
12    1  0.9321077E-008  0.1258948E+04  0.7818608E-02  0.9062768E-01
          2   -1    0    0  501    0  0.00000000000E+00  0.00000000000E+00  0.68390498400E+03  0.68390498400E+03  0.00000000000E+00 0. -1.
         -2   -1    0    0    0  501 -0.00000000000E+00 -0.00000000000E+00 -0.23452518592E+04  0.23452518592E+04  0.00000000000E+00 0.  1.
         23    2    1    2    0    0  0.20587894830E+03  0.11755406664E+04 -0.80396906478E+03  0.14418563488E+04  0.91112423462E+02 0.  0.
    5000000    2    1    2    0    0 -0.20587894830E+03 -0.11755406664E+04 -0.85737781047E+03  0.15873004945E+04  0.60012011324E+03 0.  0.
         23    2    4    4    0    0 -0.38647811049E+03 -0.55192769434E+03 -0.44992714439E+03  0.81557548535E+03  0.93484904571E+02 0.  0.
         23    2    4    4    0    0  0.18059916218E+03 -0.62361297201E+03 -0.40745066608E+03  0.77172500914E+03  0.89633967866E+02 0.  0.
          2    1    3    3  502    0  0.64133851532E+02  0.47719493597E+03 -0.37320699651E+03  0.60918931382E+03  0.00000000000E+00 0.  1.
         -2    1    3    3    0  502  0.14174509677E+03  0.69834573039E+03 -0.43076206827E+03  0.83266703493E+03  0.00000000000E+00 0. -1.
         15    1    5    5    0    0 -0.22915994733E+03 -0.33313141986E+03 -0.21440214054E+03  0.45767047093E+03  0.17770000000E+01 0.  1.
        -15    1    5    5    0    0 -0.15731816316E+03 -0.21879627448E+03 -0.23552500385E+03  0.35790501443E+03  0.17770000000E+01 0. -1.
          4    1    6    6  503    0  0.12291029852E+03 -0.36920738640E+03 -0.19477972007E+03  0.43515534583E+03  0.00000000000E+00 0.  1.
         -4    1    6    6    0  503  0.57688863666E+02 -0.25440558561E+03 -0.21267094601E+03  0.33656966331E+03  0.00000000000E+00 0. -1.
<mgrwt>
<rscale>  0 0.12589481E+04</rscale>
<asrwt>0</asrwt>
<pdfrwt beam="1">  1        2 0.10521615E+00 0.12589481E+04</pdfrwt>
<pdfrwt beam="2">  1       -2 0.36080798E+00 0.12589481E+04</pdfrwt>
<totfact> 0.55016498E-01</totfact>
</mgrwt>
</event>
<event>
12    1  0.9321077E-008  0.8682687E+03  0.7818608E-02  0.9466140E-01
         -2   -1    0    0    0  501 -0.00000000000E+00  0.00000000000E+00  0.21892468924E+03  0.21892468924E+03  0.00000000000E+00 0.  1.
          2   -1    0    0  501    0  0.00000000000E+00 -0.00000000000E+00 -0.35806278278E+04  0.35806278278E+04  0.00000000000E+00 0. -1.
         23    2    1    2    0    0  0.76296973248E+03  0.13274946548E+03 -0.12795358029E+04  0.14984543841E+04  0.91697530394E+02 0.  0.
    5000000    2    1    2    0    0 -0.76296973248E+03 -0.13274946548E+03 -0.20821673357E+04  0.23010981329E+04  0.59990546796E+03 0.  0.
         23    2    4    4    0    0 -0.11022898209E+03  0.18233992913E+03 -0.34714554916E+03  0.41792179618E+03  0.93543130047E+02 0.  0.
         23    2    4    4    0    0 -0.65274075039E+03 -0.31508939461E+03 -0.17350217865E+04  0.18831763368E+04  0.10344419693E+03 0.  0.
          2    1    3    3  502    0  0.54167529483E+03  0.72668559054E+02 -0.82936434158E+03  0.99324622103E+03  0.00000000000E+00 0. -1.
         -2    1    3    3    0  502  0.22129443764E+03  0.60080906430E+02 -0.45017146135E+03  0.50520816310E+03  0.00000000000E+00 0.  1.
         15    1    5    5    0    0  0.14236691719E+02  0.42284596579E+02 -0.54915898604E+02  0.70778415830E+02  0.17770000000E+01 0.  1.
        -15    1    5    5    0    0 -0.12446567380E+03  0.14005533255E+03 -0.29222965055E+03  0.34714338035E+03  0.17770000000E+01 0. -1.
          1    1    6    6  503    0 -0.55389556706E+03 -0.23597584359E+03 -0.13584422047E+04  0.14858836164E+04  0.00000000000E+00 0. -1.
         -1    1    6    6    0  503 -0.98845183326E+02 -0.79113551023E+02 -0.37657958179E+03  0.39729272035E+03  0.00000000000E+00 0.  1.
<mgrwt>
<rscale>  0 0.86826869E+03</rscale>
<asrwt>0</asrwt>
<pdfrwt beam="1">  1        2 0.55086579E+00 0.86826869E+03</pdfrwt>
<pdfrwt beam="2">  1       -2 0.33680723E-01 0.86826869E+03</pdfrwt>
<totfact> 0.62374195E+00</totfact>
</mgrwt>
</event>
<event>
12    1  0.9321077E-008  0.4948286E+03  0.7818608E-02  0.1015138E+00
         -1   -1    0    0    0  501 -0.00000000000E+00  0.00000000000E+00  0.18307368122E+03  0.18307368122E+03  0.00000000000E+00 0.  1.
          1   -1    0    0  501    0  0.00000000000E+00 -0.00000000000E+00 -0.13953429784E+04  0.13953429784E+04  0.00000000000E+00 0. -1.
         23    2    1    2    0    0 -0.76278894775E+00  0.31808244555E+03 -0.37187952795E+03  0.49784663217E+03  0.91541585286E+02 0.  0.
    5000000    2    1    2    0    0  0.76278894775E+00 -0.31808244555E+03 -0.84038976927E+03  0.10805700275E+04  0.60016630695E+03 0.  0.
         23    2    4    4    0    0  0.39258446061E+02 -0.47408634137E+03 -0.52620038733E+03  0.71510965190E+03  0.90531110447E+02 0.  0.
         23    2    4    4    0    0 -0.38495657114E+02  0.15600389581E+03 -0.31418938195E+03  0.36546037559E+03  0.95011511270E+02 0.  0.
          1    1    3    3  502    0 -0.45616058157E+02  0.18242223381E+03 -0.21643929632E+03  0.28671355940E+03  0.00000000000E+00 0. -1.
         -1    1    3    3    0  502  0.44853269209E+02  0.13566021175E+03 -0.15544023162E+03  0.21113307277E+03  0.00000000000E+00 0.  1.
         15    1    5    5    0    0  0.24043289416E+02 -0.64384872585E+02 -0.11796537145E+03  0.13653746070E+03  0.17770000000E+01 0. -1.
        -15    1    5    5    0    0  0.15215156645E+02 -0.40970146878E+03 -0.40823501588E+03  0.57857219120E+03  0.17770000000E+01 0.  1.
          2    1    6    6  503    0  0.48478447394E+01 -0.85508774497E+01 -0.21870001168E+01  0.10069859646E+02  0.00000000000E+00 0. -1.
         -2    1    6    6    0  503 -0.43343501853E+02  0.16455477326E+03 -0.31200238183E+03  0.35539051594E+03  0.00000000000E+00 0.  1.
<mgrwt>
<rscale>  0 0.49482859E+03</rscale>
<asrwt>0</asrwt>
<pdfrwt beam="1">  1        1 0.21466816E+00 0.49482859E+03</pdfrwt>
<pdfrwt beam="2">  1       -1 0.28165181E-01 0.49482859E+03</pdfrwt>
<totfact> 0.92806825E+01</totfact>
</mgrwt>
</event>
<event>
12    1  0.9321077E-008  0.7650913E+03  0.7818608E-02  0.9611968E-01
          2   -1    0    0  501    0  0.00000000000E+00  0.00000000000E+00  0.13926906924E+04  0.13926906924E+04  0.00000000000E+00 0.  1.
         -2   -1    0    0    0  501 -0.00000000000E+00 -0.00000000000E+00 -0.60041529179E+03  0.60041529179E+03  0.00000000000E+00 0. -1.
         23    2    1    2    0    0 -0.48990189540E+03 -0.55762881930E+03 -0.71885609267E+01  0.74809262118E+03  0.92936145927E+02 0.  0.
    5000000    2    1    2    0    0  0.48990189540E+03  0.55762881930E+03  0.79946396157E+03  0.12450133630E+04  0.59996823338E+03 0.  0.
         23    2    4    4    0    0  0.17455356475E+03  0.56323767767E+02 -0.45660807892E+02  0.20920931026E+03  0.89678940339E+02 0.  0.
         23    2    4    4    0    0  0.31534833066E+03  0.50130505153E+03  0.84512476946E+03  0.10358040528E+04  0.88897893433E+02 0.  0.
          1    1    3    3  502    0 -0.20738772484E+03 -0.16973460296E+03 -0.10776671729E+02  0.26820820365E+03  0.00000000000E+00 0. -1.
         -1    1    3    3    0  502 -0.28251417057E+03 -0.38789421634E+03  0.35881108024E+01  0.47988441753E+03  0.00000000000E+00 0.  1.
         15    1    5    5    0    0  0.17038711290E+03  0.55187415491E+02 -0.16714500565E+02  0.17988871930E+03  0.17770000000E+01 0. -1.
        -15    1    5    5    0    0  0.41664518429E+01  0.11363522754E+01 -0.28946307327E+02  0.29320590961E+02  0.17770000000E+01 0.  1.
          2    1    6    6  503    0  0.19850215815E+03  0.38773927577E+03  0.59934806911E+03  0.74092034707E+03  0.00000000000E+00 0.  1.
         -2    1    6    6    0  503  0.11684617251E+03  0.11356577577E+03  0.24577670035E+03  0.29488370571E+03  0.00000000000E+00 0. -1.
<mgrwt>
<rscale>  0 0.76509128E+03</rscale>
<asrwt>0</asrwt>
<pdfrwt beam="1">  1        2 0.21426011E+00 0.76509128E+03</pdfrwt>
<pdfrwt beam="2">  1       -2 0.92371584E-01 0.76509128E+03</pdfrwt>
<totfact> 0.14836352E+01</totfact>
</mgrwt>
</event>
<event>
12    1  0.9321077E-008  0.4302782E+03  0.7818608E-02  0.1033772E+00
          2   -1    0    0  501    0  0.00000000000E+00  0.00000000000E+00  0.10202480531E+04  0.10202480531E+04  0.00000000000E+00 0. -1.
         -2   -1    0    0    0  501 -0.00000000000E+00 -0.00000000000E+00 -0.31172131647E+03  0.31172131647E+03  0.00000000000E+00 0.  1.
         23    2    1    2    0    0 -0.12451675455E+03 -0.20073517351E+03  0.63402376744E+03  0.68294896142E+03  0.92919934214E+02 0.  0.
    5000000    2    1    2    0    0  0.12451675455E+03  0.20073517351E+03  0.74502969218E+02  0.64902040818E+03  0.59989812948E+03 0.  0.
         23    2    4    4    0    0  0.29640547254E+03  0.29601871307E+03  0.51620671242E+02  0.43175881524E+03  0.90926883817E+02 0.  0.
         23    2    4    4    0    0 -0.17188871799E+03 -0.95283539555E+02  0.22882297976E+02  0.21726159293E+03  0.89745840695E+02 0.  0.
          2    1    3    3  502    0 -0.69574065315E+02 -0.13378313237E+03  0.50892280105E+03  0.53079270389E+03  0.00000000000E+00 0. -1.
         -2    1    3    3    0  502 -0.54942689239E+02 -0.66952041147E+02  0.12510096639E+03  0.15215625753E+03  0.00000000000E+00 0.  1.
         15    1    5    5    0    0  0.16141091543E+03  0.16021900952E+03 -0.17664615919E+02  0.22812016793E+03  0.17770000000E+01 0. -1.
        -15    1    5    5    0    0  0.13499455712E+03  0.13579970355E+03  0.69285287161E+02  0.20363864732E+03  0.17770000000E+01 0.  1.
          1    1    6    6  503    0 -0.12817529057E+03 -0.41085444335E+02 -0.19110928182E+02  0.13594905820E+03  0.00000000000E+00 0. -1.
         -1    1    6    6    0  503 -0.43713427417E+02 -0.54198095220E+02  0.41993226158E+02  0.81312534736E+02  0.00000000000E+00 0.  1.
<mgrwt>
<rscale>  0 0.43027815E+03</rscale>
<asrwt>0</asrwt>
<pdfrwt beam="1">  1        2 0.15696124E+00 0.43027815E+03</pdfrwt>
<pdfrwt beam="2">  1       -2 0.47957126E-01 0.43027815E+03</pdfrwt>
<totfact> 0.10523972E+02</totfact>
</mgrwt>
</event>
<event>
12    1  0.9321077E-008  0.8601551E+03  0.7818608E-02  0.9476808E-01
          2   -1    0    0  501    0  0.00000000000E+00  0.00000000000E+00  0.15079556416E+04  0.15079556416E+04  0.00000000000E+00 0. -1.
         -2   -1    0    0    0  501 -0.00000000000E+00 -0.00000000000E+00 -0.49589671969E+03  0.49589671969E+03  0.00000000000E+00 0.  1.
         23    2    1    2    0    0  0.11506668908E+02  0.75591869207E+03  0.38790033840E+03  0.85443817896E+03  0.89735481804E+02 0.  0.
    5000000    2    1    2    0    0 -0.11506668908E+02 -0.75591869207E+03  0.62415858349E+03  0.11494141823E+04  0.60002795994E+03 0.  0.
         23    2    4    4    0    0  0.21634596496E+03 -0.83152530763E+02  0.15705269696E+03  0.29443928593E+03  0.91153845493E+02 0.  0.
         23    2    4    4    0    0 -0.22785263387E+03 -0.67276616130E+03  0.46710588654E+03  0.85497489638E+03  0.90901230181E+02 0.  0.
          4    1    3    3  502    0 -0.30542048165E+02  0.29140231573E+03  0.12051670829E+03  0.31681604015E+03  0.00000000000E+00 0. -1.
         -4    1    3    3    0  502  0.42048717074E+02  0.46451637634E+03  0.26738363011E+03  0.53762213881E+03  0.00000000000E+00 0.  1.
         15    1    5    5    0    0  0.14975421668E+03 -0.15068989326E+02  0.11895326349E+03  0.19185003642E+03  0.17770000000E+01 0. -1.
        -15    1    5    5    0    0  0.66591748287E+02 -0.68083541436E+02  0.38099433466E+02  0.10258924950E+03  0.17770000000E+01 0.  1.
          2    1    6    6  503    0 -0.19958759928E+03 -0.47326259927E+03  0.31515934846E+03  0.60260941959E+03  0.00000000000E+00 0. -1.
         -2    1    6    6    0  503 -0.28265034596E+02 -0.19950356203E+03  0.15194653807E+03  0.25236547679E+03  0.00000000000E+00 0.  1.
<mgrwt>
<rscale>  0 0.86015510E+03</rscale>
<asrwt>0</asrwt>
<pdfrwt beam="1">  1        2 0.23199317E+00 0.86015510E+03</pdfrwt>
<pdfrwt beam="2">  1       -2 0.76291804E-01 0.86015510E+03</pdfrwt>
<totfact> 0.19531504E+01</totfact>
</mgrwt>
</event>
<event>
12    1  0.9321077E-008  0.8954608E+03  0.7818608E-02  0.9431273E-01
         -2   -1    0    0    0  501 -0.00000000000E+00  0.00000000000E+00  0.75040409351E+03  0.75040409351E+03  0.00000000000E+00 0.  1.
          2   -1    0    0  501    0  0.00000000000E+00 -0.00000000000E+00 -0.13032185420E+04  0.13032185420E+04  0.00000000000E+00 0. -1.
         23    2    1    2    0    0 -0.74123312064E+03  0.28829448931E+03  0.17554278190E+03  0.81953400798E+03  0.90997089307E+02 0.  0.
    5000000    2    1    2    0    0  0.74123312064E+03 -0.28829448931E+03 -0.72835723034E+03  0.12340886275E+04  0.59994185866E+03 0.  0.
         23    2    4    4    0    0  0.59835205980E+03  0.61937855717E+02 -0.43816922404E+03  0.74895343915E+03  0.84127876935E+02 0.  0.
         23    2    4    4    0    0  0.14288106084E+03 -0.35023234503E+03 -0.29018800630E+03  0.48513518833E+03  0.89829721722E+02 0.  0.
          1    1    3    3  502    0 -0.13348264838E+03  0.90128008229E+02  0.42873271756E+02  0.16666971145E+03  0.00000000000E+00 0. -1.
         -1    1    3    3    0  502 -0.60775047226E+03  0.19816648108E+03  0.13266951015E+03  0.65286429653E+03  0.00000000000E+00 0.  1.
         15    1    5    5    0    0  0.32884594652E+03 -0.48814319541E+01 -0.21785734741E+03  0.39449773950E+03  0.17770000000E+01 0. -1.
        -15    1    5    5    0    0  0.26950611328E+03  0.66819287671E+02 -0.22031187663E+03  0.35445569965E+03  0.17770000000E+01 0.  1.
          4    1    6    6  503    0  0.14687578685E+03 -0.35052636249E+03 -0.29329507065E+03  0.48006585593E+03  0.00000000000E+00 0. -1.
         -4    1    6    6    0  503 -0.39947260040E+01  0.29401745609E+00  0.31070643534E+01  0.50693324025E+01  0.00000000000E+00 0.  1.
<mgrwt>
<rscale>  0 0.89546082E+03</rscale>
<asrwt>0</asrwt>
<pdfrwt beam="1">  1        2 0.20049516E+00 0.89546082E+03</pdfrwt>
<pdfrwt beam="2">  1       -2 0.11544679E+00 0.89546082E+03</pdfrwt>
<totfact> 0.96519228E+00</totfact>
</mgrwt>
</event>
<event>
12    1  0.9321077E-008  0.7579987E+03  0.7818608E-02  0.9622885E-01
         -1   -1    0    0    0  501 -0.00000000000E+00  0.00000000000E+00  0.64484972425E+03  0.64484972425E+03  0.00000000000E+00 0.  1.
          1   -1    0    0  501    0  0.00000000000E+00 -0.00000000000E+00 -0.18631518284E+04  0.18631518284E+04  0.00000000000E+00 0. -1.
         23    2    1    2    0    0  0.62767143988E+03  0.15771075441E+03  0.32537365591E+03  0.72989514657E+03  0.89636993040E+02 0.  0.
    5000000    2    1    2    0    0 -0.62767143988E+03 -0.15771075441E+03 -0.15436757600E+04  0.17781064061E+04  0.59990284269E+03 0.  0.
         23    2    4    4    0    0 -0.59871215508E+03 -0.31567976135E+03 -0.10678276207E+04  0.12671556655E+04  0.85543538120E+02 0.  0.
         23    2    4    4    0    0 -0.28959284796E+02  0.15796900694E+03 -0.47584813939E+03  0.51095074052E+03  0.94055091061E+02 0.  0.
          2    1    3    3  502    0  0.32908179753E+03  0.10685858673E+03  0.21589099034E+03  0.40782656452E+03  0.00000000000E+00 0. -1.
         -2    1    3    3    0  502  0.29858964235E+03  0.50852167681E+02  0.10948266558E+03  0.32206858204E+03  0.00000000000E+00 0.  1.
         15    1    5    5    0    0 -0.52782760954E+02 -0.29352865148E+01 -0.90399303315E+02  0.10473694444E+03  0.17770000000E+01 0.  1.
        -15    1    5    5    0    0 -0.54592939413E+03 -0.31274447484E+03 -0.97742831733E+03  0.11624187211E+04  0.17770000000E+01 0. -1.
          3    1    6    6  503    0  0.10812394508E+02  0.14164866868E+03 -0.34073992357E+03  0.36916791401E+03  0.00000000000E+00 0. -1.
         -3    1    6    6    0  503 -0.39771679304E+02  0.16320338263E+02 -0.13510821581E+03  0.14178282652E+03  0.00000000000E+00 0.  1.
<mgrwt>
<rscale>  0 0.75799871E+03</rscale>
<asrwt>0</asrwt>
<pdfrwt beam="1">  1        1 0.28663875E+00 0.75799871E+03</pdfrwt>
<pdfrwt beam="2">  1       -1 0.99207649E-01 0.75799871E+03</pdfrwt>
<totfact> 0.37524057E+00</totfact>
</mgrwt>
</event>
<event>
12    1  0.9321077E-008  0.4292381E+03  0.7818608E-02  0.1034101E+00
          2   -1    0    0  501    0  0.00000000000E+00  0.00000000000E+00  0.26139692081E+04  0.26139692081E+04  0.00000000000E+00 0. -1.
         -2   -1    0    0    0  501 -0.00000000000E+00 -0.00000000000E+00 -0.23606794595E+03  0.23606794595E+03  0.00000000000E+00 0.  1.
         23    2    1    2    0    0  0.34435111156E+03 -0.66485127586E+02  0.20493277842E+04  0.20813385640E+04  0.96061910683E+02 0.  0.
    5000000    2    1    2    0    0 -0.34435111156E+03  0.66485127586E+02  0.32857347794E+03  0.76869859004E+03  0.59994919093E+03 0.  0.
         23    2    4    4    0    0 -0.29389835475E+03 -0.86143114519E+02  0.44627534838E+03  0.54928288400E+03  0.93558115507E+02 0.  0.
         23    2    4    4    0    0 -0.50452756816E+02  0.15262824210E+03 -0.11770187044E+03  0.21941570604E+03  0.91916596957E+02 0.  0.
          4    1    3    3  502    0  0.98392589963E+02  0.24398321293E+02  0.55701290646E+03  0.56616230694E+03  0.00000000000E+00 0. -1.
         -4    1    3    3    0  502  0.24595852160E+03 -0.90883448879E+02  0.14923148778E+04  0.15151762571E+04  0.00000000000E+00 0.  1.
         15    1    5    5    0    0 -0.23320425072E+03 -0.30016986193E+02  0.29896970777E+03  0.38035678764E+03  0.17770000000E+01 0. -1.
        -15    1    5    5    0    0 -0.60694104031E+02 -0.56126128325E+02  0.14730564061E+03  0.16892609635E+03  0.17770000000E+01 0.  1.
          1    1    6    6  503    0 -0.10733976780E+02  0.13177144701E+03 -0.57090161489E+02  0.14400770480E+03  0.00000000000E+00 0. -1.
         -1    1    6    6    0  503 -0.39718780036E+02  0.20856795096E+02 -0.60611708950E+02  0.75408001240E+02  0.00000000000E+00 0.  1.
<mgrwt>
<rscale>  0 0.42923811E+03</rscale>
<asrwt>0</asrwt>
<pdfrwt beam="1">  1        2 0.40214909E+00 0.42923811E+03</pdfrwt>
<pdfrwt beam="2">  1       -2 0.36318147E-01 0.42923811E+03</pdfrwt>
<totfact> 0.23829588E+01</totfact>
</mgrwt>
</event>
<event>
12    1  0.9321077E-008  0.6589979E+03  0.7818608E-02  0.9790040E-01
         -1   -1    0    0    0  501 -0.00000000000E+00  0.00000000000E+00  0.18166295215E+04  0.18166295215E+04  0.00000000000E+00 0.  1.
          1   -1    0    0  501    0  0.00000000000E+00 -0.00000000000E+00 -0.68323015932E+03  0.68323015932E+03  0.00000000000E+00 0. -1.
         23    2    1    2    0    0  0.55057778296E+03  0.18512798118E+03  0.14824168202E+04  0.15947185562E+04  0.90329286829E+02 0.  0.
    5000000    2    1    2    0    0 -0.55057778296E+03 -0.18512798118E+03 -0.34901745802E+03  0.90514112465E+03  0.60004916884E+03 0.  0.
         23    2    4    4    0    0 -0.22772839076E+03 -0.30389377029E+03 -0.38347218897E+03  0.54715001450E+03  0.90058731282E+02 0.  0.
         23    2    4    4    0    0 -0.32284939220E+03  0.11876578911E+03  0.34454730945E+02  0.35799111015E+03  0.92916434273E+02 0.  0.
          3    1    3    3  502    0  0.82433435724E+02  0.47442062653E+02  0.17448522183E+03  0.19872371089E+03  0.00000000000E+00 0. -1.
         -3    1    3    3    0  502  0.46814434723E+03  0.13768591853E+03  0.13079315984E+04  0.13959948453E+04  0.00000000000E+00 0.  1.
         15    1    5    5    0    0  0.38579547167E+01 -0.35420677790E+02 -0.37615371448E+02  0.51841895489E+02  0.17770000000E+01 0. -1.
        -15    1    5    5    0    0 -0.23158634548E+03 -0.26847309250E+03 -0.34585681752E+03  0.49530811902E+03  0.17770000000E+01 0.  1.
          4    1    6    6  503    0 -0.23923054401E+02  0.15085485015E+02 -0.22958862723E+02  0.36427925655E+02  0.00000000000E+00 0. -1.
         -4    1    6    6    0  503 -0.29892633780E+03  0.10368030409E+03  0.57413593668E+02  0.32156318450E+03  0.00000000000E+00 0.  1.
<mgrwt>
<rscale>  0 0.65899794E+03</rscale>
<asrwt>0</asrwt>
<pdfrwt beam="1">  1        1 0.10511233E+00 0.65899794E+03</pdfrwt>
<pdfrwt beam="2">  1       -1 0.27948146E+00 0.65899794E+03</pdfrwt>
<totfact> 0.13578862E+00</totfact>
</mgrwt>
</event>
<event>
12    1  0.9321077E-008  0.1374766E+04  0.7818608E-02  0.8972290E-01
          2   -1    0    0  501    0  0.00000000000E+00  0.00000000000E+00  0.29734859888E+04  0.29734859888E+04  0.00000000000E+00 0. -1.
         -2   -1    0    0    0  501 -0.00000000000E+00 -0.00000000000E+00 -0.68700674074E+03  0.68700674074E+03  0.00000000000E+00 0.  1.
         23    2    1    2    0    0 -0.84169378605E+03  0.10304036473E+04  0.14836753626E+04  0.19948003649E+04  0.88067067285E+02 0.  0.
    5000000    2    1    2    0    0  0.84169378605E+03 -0.10304036473E+04  0.80280388541E+03  0.16656923646E+04  0.59988071235E+03 0.  0.
         23    2    4    4    0    0  0.82192412074E+03 -0.71291784121E+03  0.76585680947E+03  0.13328810181E+04  0.78892631572E+02 0.  0.
         23    2    4    4    0    0  0.19769665312E+02 -0.31748580613E+03  0.36947075941E+02  0.33281134645E+03  0.90610314753E+02 0.  0.
          1    1    3    3  502    0 -0.63887499175E+03  0.81337060868E+03  0.11051445527E+04  0.15136305641E+04  0.00000000000E+00 0. -1.
         -1    1    3    3    0  502 -0.20281879430E+03  0.21703303867E+03  0.37853080991E+03  0.48116980085E+03  0.00000000000E+00 0.  1.
         15    1    5    5    0    0  0.61971807237E+03 -0.53043477326E+03  0.53195337526E+03  0.97385270399E+03  0.17770000000E+01 0.  1.
        -15    1    5    5    0    0  0.20220604838E+03 -0.18248306796E+03  0.23390343421E+03  0.35902831414E+03  0.17770000000E+01 0. -1.
          3    1    6    6  503    0  0.54803822379E+02 -0.17605843451E+03  0.10186364888E+02  0.18467212388E+03  0.00000000000E+00 0. -1.
         -3    1    6    6    0  503 -0.35034157067E+02 -0.14142737162E+03  0.26760711053E+02  0.14813922257E+03  0.00000000000E+00 0.  1.
<mgrwt>
<rscale>  0 0.13747655E+04</rscale>
<asrwt>0</asrwt>
<pdfrwt beam="1">  1        2 0.45745937E+00 0.13747655E+04</pdfrwt>
<pdfrwt beam="2">  1       -2 0.10569335E+00 0.13747655E+04</pdfrwt>
<totfact> 0.12674742E+00</totfact>
</mgrwt>
</event>
<event>
12    1  0.9321077E-008  0.1054322E+04  0.7818608E-02  0.9250893E-01
         -2   -1    0    0    0  501 -0.00000000000E+00  0.00000000000E+00  0.49227187611E+03  0.49227187611E+03  0.00000000000E+00 0.  1.
          2   -1    0    0  501    0  0.00000000000E+00 -0.00000000000E+00 -0.22946788529E+04  0.22946788529E+04  0.00000000000E+00 0. -1.
         23    2    1    2    0    0 -0.52218060480E+03 -0.82354022377E+03 -0.78316734070E+03  0.12540222213E+04  0.91266443411E+02 0.  0.
    5000000    2    1    2    0    0  0.52218060480E+03  0.82354022377E+03 -0.10192396361E+04  0.15329285078E+04  0.60010773193E+03 0.  0.
         23    2    4    4    0    0  0.54060239496E+03  0.87968123630E+03 -0.90721249879E+03  0.13774573527E+04  0.90907719854E+02 0.  0.
         23    2    4    4    0    0 -0.18421790161E+02 -0.56141012529E+02 -0.11202713733E+03  0.15547115511E+03  0.90166650887E+02 0.  0.
          3    1    3    3  502    0 -0.47580111671E+03 -0.78964908168E+03 -0.73978817073E+03  0.11820401484E+04  0.00000000000E+00 0. -1.
         -3    1    3    3    0  502 -0.46379488092E+02 -0.33891142086E+02 -0.43379169976E+02  0.71982072875E+02  0.00000000000E+00 0.  1.
         15    1    5    5    0    0  0.12208164822E+03  0.25521250303E+03 -0.28547085652E+03  0.40191307292E+03  0.17770000000E+01 0. -1.
        -15    1    5    5    0    0  0.41852074675E+03  0.62446873327E+03 -0.62174164226E+03  0.97554427974E+03  0.17770000000E+01 0.  1.
          1    1    6    6  503    0  0.28554410683E+01  0.17621652942E+02 -0.60333605273E+02  0.62919155441E+02  0.00000000000E+00 0. -1.
         -1    1    6    6    0  503 -0.21277231229E+02 -0.73762665472E+02 -0.51693532061E+02  0.92551999671E+02  0.00000000000E+00 0.  1.
<mgrwt>
<rscale>  0 0.10543219E+04</rscale>
<asrwt>0</asrwt>
<pdfrwt beam="1">  1        2 0.35302751E+00 0.10543219E+04</pdfrwt>
<pdfrwt beam="2">  1       -2 0.75734137E-01 0.10543219E+04</pdfrwt>
<totfact> 0.71364604E+00</totfact>
</mgrwt>
</event>
<event>
12    1  0.9321077E-008  0.9065608E+03  0.7818608E-02  0.9417417E-01
          2   -1    0    0  501    0  0.00000000000E+00  0.00000000000E+00  0.43088353190E+04  0.43088353190E+04  0.00000000000E+00 0. -1.
         -2   -1    0    0    0  501 -0.00000000000E+00 -0.00000000000E+00 -0.20430408307E+03  0.20430408307E+03  0.00000000000E+00 0.  1.
         23    2    1    2    0    0  0.81825653673E+03  0.87999292320E+02  0.22474667126E+04  0.23951263000E+04  0.90750941469E+02 0.  0.
    5000000    2    1    2    0    0 -0.81825653673E+03 -0.87999292320E+02  0.18570645233E+04  0.21180131021E+04  0.60000268448E+03 0.  0.
         23    2    4    4    0    0 -0.74838996609E+03  0.12661921633E+03  0.15332735989E+04  0.17132858845E+04  0.91107768778E+02 0.  0.
         23    2    4    4    0    0 -0.69866570637E+02 -0.21461850865E+03  0.32379092442E+03  0.40472721760E+03  0.89560683227E+02 0.  0.
          3    1    3    3  502    0  0.27674417368E+03  0.26287481728E+02  0.63964132202E+03  0.69743773212E+03  0.00000000000E+00 0. -1.
         -3    1    3    3    0  502  0.54151236305E+03  0.61711810592E+02  0.16078253906E+04  0.16976885679E+04  0.00000000000E+00 0.  1.
         15    1    5    5    0    0 -0.18443854065E+01  0.80932108813E+01  0.19917280859E+02  0.21650811202E+02  0.17770000000E+01 0.  1.
        -15    1    5    5    0    0 -0.74654558069E+03  0.11852600545E+03  0.15133563180E+04  0.16916350733E+04  0.17770000000E+01 0. -1.
          3    1    6    6  503    0 -0.18135713423E+02 -0.60393782841E+02  0.32134400741E+02  0.70773814495E+02  0.00000000000E+00 0. -1.
         -3    1    6    6    0  503 -0.51730857214E+02 -0.15422472581E+03  0.29165652368E+03  0.33395340310E+03  0.00000000000E+00 0.  1.
<mgrwt>
<rscale>  0 0.90656080E+03</rscale>
<asrwt>0</asrwt>
<pdfrwt beam="1">  1        2 0.66289767E+00 0.90656080E+03</pdfrwt>
<pdfrwt beam="2">  1       -2 0.31431401E-01 0.90656080E+03</pdfrwt>
<totfact> 0.19001307E+00</totfact>
</mgrwt>
</event>
<event>
12    1  0.9321077E-008  0.1190966E+04  0.7818608E-02  0.9120801E-01
          1   -1    0    0  501    0  0.00000000000E+00  0.00000000000E+00  0.27312125805E+04  0.27312125805E+04  0.00000000000E+00 0. -1.
         -1   -1    0    0    0  501 -0.00000000000E+00 -0.00000000000E+00 -0.57772004056E+03  0.57772004056E+03  0.00000000000E+00 0.  1.
         23    2    1    2    0    0 -0.11195938225E+04 -0.59662010629E+02  0.15116272215E+04  0.18844381173E+04  0.95080378263E+02 0.  0.
    5000000    2    1    2    0    0  0.11195938225E+04  0.59662010629E+02  0.64186531845E+03  0.14244945037E+04  0.60011967232E+03 0.  0.
         23    2    4    4    0    0  0.54279270148E+03 -0.25610204420E+03  0.28115982795E+03  0.66887626234E+03  0.90179995835E+02 0.  0.
         23    2    4    4    0    0  0.57680112107E+03  0.31576405483E+03  0.36070549051E+03  0.75561824138E+03  0.91891263125E+02 0.  0.
          1    1    3    3  502    0 -0.84625691407E+03 -0.42075139448E+02  0.10712854119E+04  0.13658599912E+04  0.00000000000E+00 0. -1.
         -1    1    3    3    0  502 -0.27333690847E+03 -0.17586871181E+02  0.44034180961E+03  0.51857812609E+03  0.00000000000E+00 0.  1.
         15    1    5    5    0    0  0.26170901263E+03 -0.90800274894E+02  0.92024373189E+02  0.29190399141E+03  0.17770000000E+01 0.  1.
        -15    1    5    5    0    0  0.28108368884E+03 -0.16530176931E+03  0.18913545476E+03  0.37697227092E+03  0.17770000000E+01 0. -1.
          1    1    6    6  503    0  0.39811922008E+03  0.22175085584E+03  0.29680150386E+03  0.54384141821E+03  0.00000000000E+00 0. -1.
         -1    1    6    6    0  503  0.17868190099E+03  0.94013198989E+02  0.63903986647E+02  0.21177682318E+03  0.00000000000E+00 0.  1.
<mgrwt>
<rscale>  0 0.11909655E+04</rscale>
<asrwt>0</asrwt>
<pdfrwt beam="1">  1        1 0.42018654E+00 0.11909655E+04</pdfrwt>
<pdfrwt beam="2">  1       -1 0.88880008E-01 0.11909655E+04</pdfrwt>
<totfact> 0.11523109E+00</totfact>
</mgrwt>
</event>
<event>
12    1  0.9321077E-008  0.1350492E+04  0.7818608E-02  0.8990455E-01
         -2   -1    0    0    0  501 -0.00000000000E+00  0.00000000000E+00  0.51281485871E+03  0.51281485871E+03  0.00000000000E+00 0.  1.
          2   -1    0    0  501    0  0.00000000000E+00 -0.00000000000E+00 -0.37596171177E+04  0.37596171177E+04  0.00000000000E+00 0. -1.
         23    2    1    2    0    0 -0.38361460016E+03 -0.12470350033E+04 -0.12142219491E+04  0.17837304644E+04  0.71435055313E+02 0.  0.
    5000000    2    1    2    0    0  0.38361460016E+03  0.12470350033E+04 -0.20325803100E+04  0.24887015120E+04  0.59999669890E+03 0.  0.
         23    2    4    4    0    0 -0.10732691960E+03  0.39028556918E+03 -0.38564681300E+03  0.56632599309E+03  0.90331461292E+02 0.  0.
         23    2    4    4    0    0  0.49094151975E+03  0.85674943414E+03 -0.16469334970E+04  0.19223755190E+04  0.89969571236E+02 0.  0.
          3    1    3    3  502    0 -0.13562432030E+03 -0.46635432625E+03 -0.40638115329E+03  0.63326610174E+03  0.00000000000E+00 0. -1.
         -3    1    3    3    0  502 -0.24799027986E+03 -0.78068067706E+03 -0.80784079578E+03  0.11504643627E+04  0.00000000000E+00 0.  1.
         15    1    5    5    0    0 -0.94369128647E+02  0.31989198184E+03 -0.26480288323E+03  0.42586398907E+03  0.17770000000E+01 0.  1.
        -15    1    5    5    0    0 -0.12957790949E+02  0.70393587335E+02 -0.12084392977E+03  0.14046200402E+03  0.17770000000E+01 0. -1.
          1    1    6    6  503    0  0.38437125822E+03  0.73365525831E+03 -0.13977807582E+04  0.16247407024E+04  0.00000000000E+00 0. -1.
         -1    1    6    6    0  503  0.10657026153E+03  0.12309417582E+03 -0.24915273879E+03  0.29763481653E+03  0.00000000000E+00 0.  1.
<mgrwt>
<rscale>  0 0.13504924E+04</rscale>
<asrwt>0</asrwt>
<pdfrwt beam="1">  1        2 0.57840262E+00 0.13504924E+04</pdfrwt>
<pdfrwt beam="2">  1       -2 0.78894595E-01 0.13504924E+04</pdfrwt>
<totfact> 0.74312976E-01</totfact>
</mgrwt>
</event>
<event>
12    1  0.9321077E-008  0.7444041E+03  0.7818608E-02  0.9644171E-01
          2   -1    0    0  501    0  0.00000000000E+00  0.00000000000E+00  0.48700082567E+03  0.48700082567E+03  0.00000000000E+00 0.  1.
         -2   -1    0    0    0  501 -0.00000000000E+00 -0.00000000000E+00 -0.12081421572E+04  0.12081421572E+04  0.00000000000E+00 0. -1.
         23    2    1    2    0    0  0.40922873430E+03 -0.48235036644E+03 -0.45597321325E+03  0.78396116070E+03  0.80953673755E+02 0.  0.
    5000000    2    1    2    0    0 -0.40922873430E+03  0.48235036644E+03 -0.26516811827E+03  0.91118182215E+03  0.59984010294E+03 0.  0.
         23    2    4    4    0    0  0.92801985935E+02  0.30486884563E+03 -0.92923238389E+02  0.34418897114E+03  0.90962068962E+02 0.  0.
         23    2    4    4    0    0 -0.50203072024E+03  0.17748152081E+03 -0.17224487988E+03  0.56699285102E+03  0.90983845655E+02 0.  0.
          3    1    3    3  502    0  0.18544936488E+03 -0.23163773282E+03 -0.26260269082E+03  0.39624194557E+03  0.00000000000E+00 0. -1.
         -3    1    3    3    0  502  0.22377936942E+03 -0.25071263362E+03 -0.19337052243E+03  0.38771921513E+03  0.00000000000E+00 0.  1.
         15    1    5    5    0    0  0.21001118196E+02  0.78087507840E+02  0.16172310121E+02  0.82482769048E+02  0.17770000000E+01 0. -1.
        -15    1    5    5    0    0  0.71800867739E+02  0.22678133779E+03 -0.10909554851E+03  0.26170620209E+03  0.17770000000E+01 0.  1.
          2    1    6    6  503    0 -0.39524243310E+03  0.10756267218E+03 -0.15601764311E+03  0.43832386922E+03  0.00000000000E+00 0.  1.
         -2    1    6    6    0  503 -0.10678828714E+03  0.69918848629E+02 -0.16227236775E+02  0.12866898180E+03  0.00000000000E+00 0. -1.
<mgrwt>
<rscale>  0 0.74440411E+03</rscale>
<asrwt>0</asrwt>
<pdfrwt beam="1">  1        2 0.74923204E-01 0.74440411E+03</pdfrwt>
<pdfrwt beam="2">  1       -2 0.18586802E+00 0.74440411E+03</pdfrwt>
<totfact> 0.10681942E+01</totfact>
</mgrwt>
</event>
<event>
12    1  0.9321077E-008  0.8833903E+03  0.7818608E-02  0.9446586E-01
         -2   -1    0    0    0  501 -0.00000000000E+00  0.00000000000E+00  0.12330611198E+04  0.12330611198E+04  0.00000000000E+00 0.  1.
          2   -1    0    0  501    0  0.00000000000E+00 -0.00000000000E+00 -0.70738926068E+03  0.70738926068E+03  0.00000000000E+00 0. -1.
         23    2    1    2    0    0 -0.77260467926E+02  0.78618600178E+03  0.51744488043E+03  0.94865559849E+03  0.90225445246E+02 0.  0.
    5000000    2    1    2    0    0  0.77260467926E+02 -0.78618600178E+03  0.82269786968E+01  0.99179478200E+03  0.59960953722E+03 0.  0.
         23    2    4    4    0    0 -0.23748747608E+03 -0.34447260414E+03  0.85129876812E+02  0.43658106595E+03  0.91072800134E+02 0.  0.
         23    2    4    4    0    0  0.31474794400E+03 -0.44171339764E+03 -0.76902898116E+02  0.55521371605E+03  0.90394805378E+02 0.  0.
          2    1    3    3  502    0  0.17660951805E+02  0.20686270536E+03  0.12137472879E+03  0.24049098295E+03  0.00000000000E+00 0. -1.
         -2    1    3    3    0  502 -0.94921419731E+02  0.57932329642E+03  0.39607015163E+03  0.70816461554E+03  0.00000000000E+00 0.  1.
         15    1    5    5    0    0 -0.81470617984E+02 -0.71747605334E+02 -0.79959285656E+01  0.10886814533E+03  0.17770000000E+01 0. -1.
        -15    1    5    5    0    0 -0.15601685809E+03 -0.27272499881E+03  0.93125805378E+02  0.32771292062E+03  0.17770000000E+01 0.  1.
          1    1    6    6  503    0  0.14078407261E+03 -0.12630484318E+03 -0.37989260707E+02  0.19291514311E+03  0.00000000000E+00 0. -1.
         -1    1    6    6    0  503  0.17396387139E+03 -0.31540855446E+03 -0.38913637409E+02  0.36229857293E+03  0.00000000000E+00 0.  1.
<mgrwt>
<rscale>  0 0.88339032E+03</rscale>
<asrwt>0</asrwt>
<pdfrwt beam="1">  1        2 0.10882912E+00 0.88339032E+03</pdfrwt>
<pdfrwt beam="2">  1       -2 0.18970171E+00 0.88339032E+03</pdfrwt>
<totfact> 0.63224849E+00</totfact>
</mgrwt>
</event>
<event>
12    1  0.9321077E-008  0.2037192E+04  0.7818608E-02  0.8589427E-01
         -2   -1    0    0    0  501 -0.00000000000E+00  0.00000000000E+00  0.12454939002E+04  0.12454939002E+04  0.00000000000E+00 0.  1.
          2   -1    0    0  501    0  0.00000000000E+00 -0.00000000000E+00 -0.34732398541E+04  0.34732398541E+04  0.00000000000E+00 0. -1.
         23    2    1    2    0    0  0.19602966660E+04 -0.37107789126E+03 -0.63274849822E+03  0.20949003113E+04  0.88175008934E+02 0.  0.
    5000000    2    1    2    0    0 -0.19602966660E+04  0.37107789126E+03 -0.15949974557E+04  0.26238334430E+04  0.60001936034E+03 0.  0.
         23    2    4    4    0    0 -0.15592012933E+04  0.51925635878E+03 -0.12700182106E+04  0.20790580471E+04  0.93809747407E+02 0.  0.
         23    2    4    4    0    0 -0.40109537273E+03 -0.14817846753E+03 -0.32497924504E+03  0.54477539590E+03  0.91292748938E+02 0.  0.
          4    1    3    3  502    0  0.11400910287E+04 -0.25633353380E+03 -0.38852262904E+03  0.12314480369E+04  0.00000000000E+00 0. -1.
         -4    1    3    3    0  502  0.82020563727E+03 -0.11474435746E+03 -0.24422586918E+03  0.86345227440E+03  0.00000000000E+00 0.  1.
         15    1    5    5    0    0 -0.14839187020E+04  0.48477502966E+03 -0.12278907427E+04  0.19861370490E+04  0.17770000000E+01 0. -1.
        -15    1    5    5    0    0 -0.75282591257E+02  0.34481329120E+02 -0.42127467901E+02  0.92920998084E+02  0.17770000000E+01 0.  1.
          2    1    6    6  503    0 -0.31041910558E+03 -0.80836978988E+02 -0.20880230201E+03  0.38274409154E+03  0.00000000000E+00 0. -1.
         -2    1    6    6    0  503 -0.90676267149E+02 -0.67341488537E+02 -0.11617694303E+03  0.16203130436E+03  0.00000000000E+00 0.  1.
<mgrwt>
<rscale>  0 0.20371921E+04</rscale>
<asrwt>0</asrwt>
<pdfrwt beam="1">  1        2 0.53434459E+00 0.20371921E+04</pdfrwt>
<pdfrwt beam="2">  1       -2 0.19161445E+00 0.20371921E+04</pdfrwt>
<totfact> 0.11446247E-01</totfact>
</mgrwt>
</event>
<event>
12    1  0.9321077E-008  0.1115052E+04  0.7818608E-02  0.9190644E-01
          2   -1    0    0  501    0  0.00000000000E+00  0.00000000000E+00  0.12858058885E+04  0.12858058885E+04  0.00000000000E+00 0. -1.
         -2   -1    0    0    0  501 -0.00000000000E+00 -0.00000000000E+00 -0.10197581642E+04  0.10197581642E+04  0.00000000000E+00 0.  1.
         23    2    1    2    0    0 -0.76030563485E+03 -0.74278177364E+03  0.67794768588E+02  0.10690354036E+04  0.91930092419E+02 0.  0.
    5000000    2    1    2    0    0  0.76030563485E+03  0.74278177364E+03  0.19825295573E+03  0.12365286491E+04  0.59992453188E+03 0.  0.
         23    2    4    4    0    0 -0.33613852409E+01  0.25308202678E+03  0.17945159823E+03  0.32360305332E+03  0.91946989197E+02 0.  0.
         23    2    4    4    0    0  0.76366702009E+03  0.48969974686E+03  0.18801357492E+02  0.91292559578E+03  0.10043153252E+03 0.  0.
          4    1    3    3  502    0 -0.53963410762E+03 -0.58261364069E+03  0.44706357471E+02  0.79538813345E+03  0.00000000000E+00 0. -1.
         -4    1    3    3    0  502 -0.22067152723E+03 -0.16016813295E+03  0.23088411117E+02  0.27364727017E+03  0.00000000000E+00 0.  1.
         15    1    5    5    0    0  0.12183494211E+02  0.87341995783E+02  0.11535407900E+03  0.14521288865E+03  0.17770000000E+01 0.  1.
        -15    1    5    5    0    0 -0.15544879452E+02  0.16574003099E+03  0.64097519231E+02  0.17839016467E+03  0.17770000000E+01 0. -1.
          4    1    6    6  503    0  0.52260795382E+03  0.30659257413E+03 -0.28313371002E+02  0.60656386876E+03  0.00000000000E+00 0. -1.
         -4    1    6    6    0  503  0.24105906627E+03  0.18310717274E+03  0.47114728494E+02  0.30636172702E+03  0.00000000000E+00 0.  1.
<mgrwt>
<rscale>  0 0.11150523E+04</rscale>
<asrwt>0</asrwt>
<pdfrwt beam="1">  1        2 0.19781629E+00 0.11150523E+04</pdfrwt>
<pdfrwt beam="2">  1       -2 0.15688587E+00 0.11150523E+04</pdfrwt>
<totfact> 0.43870543E+00</totfact>
</mgrwt>
</event>
<event>
12    1  0.9321077E-008  0.1203578E+04  0.7818608E-02  0.9109730E-01
         -1   -1    0    0    0  501 -0.00000000000E+00  0.00000000000E+00  0.12224300782E+04  0.12224300782E+04  0.00000000000E+00 0.  1.
          1   -1    0    0  501    0  0.00000000000E+00 -0.00000000000E+00 -0.12307538157E+04  0.12307538157E+04  0.00000000000E+00 0. -1.
         23    2    1    2    0    0 -0.76142874994E+03  0.86158609069E+03 -0.51642572297E+02  0.11545881753E+04  0.91118419052E+02 0.  0.
    5000000    2    1    2    0    0  0.76142874994E+03 -0.86158609069E+03  0.43318834730E+02  0.12985957186E+04  0.60197174854E+03 0.  0.
         23    2    4    4    0    0  0.20288355718E+02 -0.33096374000E+03 -0.12603589871E+03  0.36690234216E+03  0.93721216105E+02 0.  0.
         23    2    4    4    0    0  0.74114039422E+03 -0.53062235070E+03  0.16935473344E+03  0.93169337645E+03  0.92316623538E+02 0.  0.
          3    1    3    3  502    0 -0.28256939651E+03  0.38108444290E+03 -0.40252939661E+02  0.47612090441E+03  0.00000000000E+00 0. -1.
         -3    1    3    3    0  502 -0.47885935342E+03  0.48050164780E+03 -0.11389632636E+02  0.67846727086E+03  0.00000000000E+00 0.  1.
         15    1    5    5    0    0  0.52996013069E+02 -0.15380738554E+03 -0.78149625796E+02  0.18048770315E+03  0.17770000000E+01 0. -1.
        -15    1    5    5    0    0 -0.32707657351E+02 -0.17715635446E+03 -0.47886272912E+02  0.18641463901E+03  0.17770000000E+01 0.  1.
          3    1    6    6  503    0  0.52514348540E+03 -0.37815589227E+03  0.16248250307E+03  0.66721669863E+03  0.00000000000E+00 0.  1.
         -3    1    6    6    0  503  0.21599690882E+03 -0.15246645842E+03  0.68722303667E+01  0.26447667782E+03  0.00000000000E+00 0. -1.
<mgrwt>
<rscale>  0 0.12035780E+04</rscale>
<asrwt>0</asrwt>
<pdfrwt beam="1">  1        1 0.18934674E+00 0.12035780E+04</pdfrwt>
<pdfrwt beam="2">  1       -1 0.18806617E+00 0.12035780E+04</pdfrwt>
<totfact> 0.18127232E+00</totfact>
</mgrwt>
</event>
<event>
12    1  0.9321077E-008  0.6894828E+03  0.7818608E-02  0.9735389E-01
         -2   -1    0    0    0  501 -0.00000000000E+00  0.00000000000E+00  0.54034450448E+03  0.54034450448E+03  0.00000000000E+00 0.  1.
          2   -1    0    0  501    0  0.00000000000E+00 -0.00000000000E+00 -0.96731203093E+03  0.96731203093E+03  0.00000000000E+00 0. -1.
         23    2    1    2    0    0  0.28624735393E+03 -0.48900090759E+03  0.10240675536E+02  0.57384619474E+03  0.90195058209E+02 0.  0.
    5000000    2    1    2    0    0 -0.28624735393E+03  0.48900090759E+03 -0.43720820198E+03  0.93381034067E+03  0.59982606246E+03 0.  0.
         23    2    4    4    0    0  0.13903424505E+03  0.31575341671E+03 -0.19742509115E+03  0.40832071681E+03  0.93372371203E+02 0.  0.
         23    2    4    4    0    0 -0.42528159899E+03  0.17324749088E+03 -0.23978311083E+03  0.52548962385E+03  0.88115112228E+02 0.  0.
          1    1    3    3  502    0  0.11208158929E+03 -0.19641908318E+03 -0.40016502328E+02  0.22966074840E+03  0.00000000000E+00 0. -1.
         -1    1    3    3    0  502  0.17416576464E+03 -0.29258182440E+03  0.50257177864E+02  0.34418544634E+03  0.00000000000E+00 0.  1.
         15    1    5    5    0    0  0.96521800094E+02  0.23108416451E+03 -0.92590059770E+02  0.26700641542E+03  0.17770000000E+01 0. -1.
        -15    1    5    5    0    0  0.42512444960E+02  0.84669252200E+02 -0.10483503138E+03  0.14131430139E+03  0.17770000000E+01 0.  1.
          1    1    6    6  503    0 -0.30338326314E+02  0.40218188034E+02 -0.33364971659E+02  0.60424647505E+02  0.00000000000E+00 0. -1.
         -1    1    6    6    0  503 -0.39494327267E+03  0.13302930285E+03 -0.20641813917E+03  0.46506497635E+03  0.00000000000E+00 0.  1.
<mgrwt>
<rscale>  0 0.68948278E+03</rscale>
<asrwt>0</asrwt>
<pdfrwt beam="1">  1        2 0.14881724E+00 0.68948278E+03</pdfrwt>
<pdfrwt beam="2">  1       -2 0.83129923E-01 0.68948278E+03</pdfrwt>
<totfact> 0.34246506E+01</totfact>
</mgrwt>
</event>
<event>
12    1  0.9321077E-008  0.4010267E+03  0.7818608E-02  0.1043425E+00
          2   -1    0    0  501    0  0.00000000000E+00  0.00000000000E+00  0.10903277549E+04  0.10903277549E+04  0.00000000000E+00 0. -1.
         -2   -1    0    0    0  501 -0.00000000000E+00 -0.00000000000E+00 -0.20575106151E+03  0.20575106151E+03  0.00000000000E+00 0.  1.
         23    2    1    2    0    0  0.16143706412E+03 -0.64725764689E+02  0.55735028250E+03  0.59090201206E+03  0.90964279604E+02 0.  0.
    5000000    2    1    2    0    0 -0.16143706412E+03  0.64725764689E+02  0.32722641092E+03  0.70517680439E+03  0.59995487427E+03 0.  0.
         23    2    4    4    0    0 -0.34382497724E+03  0.17076299378E+03  0.22209627644E+03  0.45266221806E+03  0.90557786104E+02 0.  0.
         23    2    4    4    0    0  0.18238791312E+03 -0.10603722909E+03  0.10513013447E+03  0.25251458633E+03  0.90565039224E+02 0.  0.
          2    1    3    3  502    0  0.59924257209E+02 -0.69897270915E+02  0.31283063874E+03  0.32609746031E+03  0.00000000000E+00 0. -1.
         -2    1    3    3    0  502  0.10151280691E+03  0.51715062252E+01  0.24451964376E+03  0.26480455175E+03  0.00000000000E+00 0.  1.
         15    1    5    5    0    0 -0.14136382898E+03  0.30143941213E+02  0.11110052000E+03  0.18231531096E+03  0.17770000000E+01 0. -1.
        -15    1    5    5    0    0 -0.20246114826E+03  0.14061905257E+03  0.11099575644E+03  0.27034690710E+03  0.17770000000E+01 0.  1.
          4    1    6    6  503    0  0.15530565176E+03 -0.10942606011E+03  0.11659742107E+03  0.22290999686E+03  0.00000000000E+00 0. -1.
         -4    1    6    6    0  503  0.27082261361E+02  0.33888310187E+01 -0.11467286593E+02  0.29604589474E+02  0.00000000000E+00 0.  1.
<mgrwt>
<rscale>  0 0.40102669E+03</rscale>
<asrwt>0</asrwt>
<pdfrwt beam="1">  1        2 0.16774273E+00 0.40102669E+03</pdfrwt>
<pdfrwt beam="2">  1       -2 0.31654010E-01 0.40102669E+03</pdfrwt>
<totfact> 0.21284937E+02</totfact>
</mgrwt>
</event>
<event>
12    1  0.9321077E-008  0.5801617E+03  0.7818608E-02  0.9947441E-01
         -2   -1    0    0    0  501 -0.00000000000E+00  0.00000000000E+00  0.12859983601E+03  0.12859983601E+03  0.00000000000E+00 0.  1.
          2   -1    0    0  501    0  0.00000000000E+00 -0.00000000000E+00 -0.37391800747E+04  0.37391800747E+04  0.00000000000E+00 0. -1.
         23    2    1    2    0    0  0.54774823011E+03 -0.78019669118E+02 -0.12512953296E+04  0.13713698815E+04  0.93809155704E+02 0.  0.
    5000000    2    1    2    0    0 -0.54774823011E+03  0.78019669118E+02 -0.23592849091E+04  0.24964100292E+04  0.59976875483E+03 0.  0.
         23    2    4    4    0    0 -0.15385785933E+03  0.11038496811E+03 -0.17412946642E+03  0.27361121689E+03  0.93193051620E+02 0.  0.
         23    2    4    4    0    0 -0.39389037078E+03 -0.32365298989E+02 -0.21851554426E+04  0.22227988123E+04  0.98656548742E+02 0.  0.
          4    1    3    3  502    0  0.89185456843E+02 -0.48421092981E+02 -0.23974531553E+03  0.26033913320E+03  0.00000000000E+00 0. -1.
         -4    1    3    3    0  502  0.45856277326E+03 -0.29598576137E+02 -0.10115500141E+04  0.11110307483E+04  0.00000000000E+00 0.  1.
         15    1    5    5    0    0 -0.12434291004E+03  0.11580690575E+03 -0.17447067642E+03  0.24354788719E+03  0.17770000000E+01 0. -1.
        -15    1    5    5    0    0 -0.29514949289E+02 -0.54219376415E+01  0.34120999682E+00  0.30063329698E+02  0.17770000000E+01 0.  1.
          1    1    6    6  503    0 -0.18763072165E+03  0.13226038575E+02 -0.12507017928E+04  0.12647668521E+04  0.00000000000E+00 0. -1.
         -1    1    6    6    0  503 -0.20625964913E+03 -0.45591337564E+02 -0.93445364986E+03  0.95803196014E+03  0.00000000000E+00 0.  1.
<mgrwt>
<rscale>  0 0.58016167E+03</rscale>
<asrwt>0</asrwt>
<pdfrwt beam="1">  1        2 0.57525850E+00 0.58016167E+03</pdfrwt>
<pdfrwt beam="2">  1       -2 0.19784589E-01 0.58016167E+03</pdfrwt>
<totfact> 0.13408805E+01</totfact>
</mgrwt>
</event>
<event>
12    1  0.9321077E-008  0.1057378E+04  0.7818608E-02  0.9247760E-01
          2   -1    0    0  501    0  0.00000000000E+00  0.00000000000E+00  0.16853877281E+04  0.16853877281E+04  0.00000000000E+00 0. -1.
         -2   -1    0    0    0  501 -0.00000000000E+00 -0.00000000000E+00 -0.16494000717E+04  0.16494000717E+04  0.00000000000E+00 0.  1.
         23    2    1    2    0    0  0.96833957911E+03 -0.32628145737E+03  0.12651269654E+04  0.16274532554E+04  0.62583782767E+02 0.  0.
    5000000    2    1    2    0    0 -0.96833957911E+03  0.32628145737E+03 -0.12291393090E+04  0.17073345444E+04  0.60005556054E+03 0.  0.
         23    2    4    4    0    0 -0.22320443628E+03 -0.75041279551E+02 -0.57340596354E+02  0.25873028464E+03  0.90564905946E+02 0.  0.
         23    2    4    4    0    0 -0.74513514283E+03  0.40132273692E+03 -0.11717987126E+04  0.14486042598E+04  0.95161747715E+02 0.  0.
          4    1    3    3  502    0  0.43188461930E+03 -0.17500047942E+03  0.55414590427E+03  0.72403534127E+03  0.00000000000E+00 0.  1.
         -4    1    3    3    0  502  0.53645495980E+03 -0.15128097794E+03  0.71098106116E+03  0.90341791410E+03  0.00000000000E+00 0. -1.
         15    1    5    5    0    0 -0.77062841481E+02  0.69621318078E+01 -0.47596734999E+02  0.90861211350E+02  0.17770000000E+01 0.  1.
        -15    1    5    5    0    0 -0.14614159479E+03 -0.82003411358E+02 -0.97438613546E+01  0.16786907329E+03  0.17770000000E+01 0. -1.
          2    1    6    6  503    0 -0.49419582048E+02  0.29615663272E+02 -0.44758870391E+02  0.72957104380E+02  0.00000000000E+00 0. -1.
         -2    1    6    6    0  503 -0.69571556078E+03  0.37170707365E+03 -0.11270398423E+04  0.13756471554E+04  0.00000000000E+00 0.  1.
<mgrwt>
<rscale>  0 0.10573779E+04</rscale>
<asrwt>0</asrwt>
<pdfrwt beam="1">  1        2 0.25929042E+00 0.10573779E+04</pdfrwt>
<pdfrwt beam="2">  1       -2 0.25375386E+00 0.10573779E+04</pdfrwt>
<totfact> 0.60365991E-01</totfact>
</mgrwt>
</event>
<event>
12    1  0.9321077E-008  0.1289422E+04  0.7818608E-02  0.9037996E-01
         -1   -1    0    0    0  501 -0.00000000000E+00  0.00000000000E+00  0.21549907875E+04  0.21549907875E+04  0.00000000000E+00 0.  1.
          1   -1    0    0  501    0  0.00000000000E+00 -0.00000000000E+00 -0.78486587826E+03  0.78486587826E+03  0.00000000000E+00 0. -1.
         23    2    1    2    0    0 -0.95539572959E+03 -0.77072957530E+03  0.72808591956E+03  0.14302207624E+04  0.92829114636E+02 0.  0.
    5000000    2    1    2    0    0  0.95539572959E+03  0.77072957530E+03  0.64203898966E+03  0.15096359034E+04  0.59998451489E+03 0.  0.
         23    2    4    4    0    0  0.57852364973E+03  0.12608967717E+03  0.17404229242E+03  0.62375539689E+03  0.90508870353E+02 0.  0.
         23    2    4    4    0    0  0.37687207986E+03  0.64463989813E+03  0.46799669725E+03  0.88588050647E+03  0.90389160178E+02 0.  0.
          2    1    3    3  502    0 -0.65771135828E+03 -0.57374887331E+03  0.48690230100E+03  0.99942275897E+03  0.00000000000E+00 0. -1.
         -2    1    3    3    0  502 -0.29768437131E+03 -0.19698070199E+03  0.24118361857E+03  0.43079800341E+03  0.00000000000E+00 0.  1.
         15    1    5    5    0    0  0.13806983423E+03 -0.86397710032E+01  0.42777165759E+02  0.14481356430E+03  0.17770000000E+01 0. -1.
        -15    1    5    5    0    0  0.44045381550E+03  0.13472944817E+03  0.13126512666E+03  0.47894183258E+03  0.17770000000E+01 0.  1.
          3    1    6    6  503    0  0.10738553297E+03  0.25188506160E+03  0.20251699241E+03  0.34057432253E+03  0.00000000000E+00 0. -1.
         -3    1    6    6    0  503  0.26948654689E+03  0.39275483653E+03  0.26547970484E+03  0.54530618395E+03  0.00000000000E+00 0.  1.
<mgrwt>
<rscale>  0 0.12894221E+04</rscale>
<asrwt>0</asrwt>
<pdfrwt beam="1">  1        1 0.12074860E+00 0.12894221E+04</pdfrwt>
<pdfrwt beam="2">  1       -1 0.33153704E+00 0.12894221E+04</pdfrwt>
<totfact> 0.45883174E-01</totfact>
</mgrwt>
</event>
<event>
12    1  0.9321077E-008  0.1053144E+04  0.7818608E-02  0.9252104E-01
          1   -1    0    0  501    0  0.00000000000E+00  0.00000000000E+00  0.11238551830E+04  0.11238551830E+04  0.00000000000E+00 0. -1.
         -1   -1    0    0    0  501 -0.00000000000E+00 -0.00000000000E+00 -0.11520388737E+04  0.11520388737E+04  0.00000000000E+00 0.  1.
         23    2    1    2    0    0  0.41361610082E+03  0.93926548024E+03 -0.26099650774E+03  0.10645331926E+04  0.10869139734E+03 0.  0.
    5000000    2    1    2    0    0 -0.41361610082E+03 -0.93926548024E+03  0.23281281703E+03  0.12113608641E+04  0.59991283870E+03 0.  0.
         23    2    4    4    0    0  0.17906404471E+02 -0.12426296093E+03 -0.14212353450E+03  0.21180054635E+03  0.94331593833E+02 0.  0.
         23    2    4    4    0    0 -0.43152250529E+03 -0.81500251931E+03  0.37493635153E+03  0.99956031773E+03  0.90015454416E+02 0.  0.
          3    1    3    3  502    0  0.13733095275E+03  0.24070635679E+03 -0.30745519378E+02  0.27882723637E+03  0.00000000000E+00 0. -1.
         -3    1    3    3    0  502  0.27628514807E+03  0.69855912346E+03 -0.23025098837E+03  0.78570595623E+03  0.00000000000E+00 0.  1.
         15    1    5    5    0    0  0.54574117563E+02 -0.72259453893E+02 -0.63372061983E+02  0.11053930954E+03  0.17770000000E+01 0. -1.
        -15    1    5    5    0    0 -0.36667713092E+02 -0.52003507039E+02 -0.78751472521E+02  0.10126123681E+03  0.17770000000E+01 0.  1.
          1    1    6    6  503    0 -0.17954727071E+03 -0.39580901301E+03  0.21559609080E+03  0.48516355135E+03  0.00000000000E+00 0. -1.
         -1    1    6    6    0  503 -0.25197523458E+03 -0.41919350631E+03  0.15934026073E+03  0.51439676638E+03  0.00000000000E+00 0.  1.
<mgrwt>
<rscale>  0 0.10531441E+04</rscale>
<asrwt>0</asrwt>
<pdfrwt beam="1">  1        1 0.17290080E+00 0.10531441E+04</pdfrwt>
<pdfrwt beam="2">  1       -1 0.17723675E+00 0.10531441E+04</pdfrwt>
<totfact> 0.26429864E+00</totfact>
</mgrwt>
</event>
<event>
12    1  0.9321077E-008  0.5804800E+03  0.7818608E-02  0.9946752E-01
         -2   -1    0    0    0  501 -0.00000000000E+00  0.00000000000E+00  0.70830858388E+03  0.70830858388E+03  0.00000000000E+00 0.  1.
          2   -1    0    0  501    0  0.00000000000E+00 -0.00000000000E+00 -0.73937456084E+03  0.73937456084E+03  0.00000000000E+00 0. -1.
         23    2    1    2    0    0 -0.18150866262E+03 -0.41002440773E+03 -0.40443426353E+03  0.61071843354E+03  0.91348355233E+02 0.  0.
    5000000    2    1    2    0    0  0.18150866262E+03  0.41002440773E+03  0.37336828658E+03  0.83696471118E+03  0.60003386637E+03 0.  0.
         23    2    4    4    0    0 -0.16673542928E+03  0.29483541088E+03  0.89326733939E+02  0.36399217218E+03  0.98906082346E+02 0.  0.
         23    2    4    4    0    0  0.34824409190E+03  0.11518899685E+03  0.28404155264E+03  0.47297253900E+03  0.92092162968E+02 0.  0.
          2    1    3    3  502    0 -0.60137623194E+02 -0.11176037204E+03 -0.64074434823E+02  0.14217048808E+03  0.00000000000E+00 0. -1.
         -2    1    3    3    0  502 -0.12137103942E+03 -0.29826403569E+03 -0.34035982871E+03  0.46854794546E+03  0.00000000000E+00 0.  1.
         15    1    5    5    0    0 -0.68412899258E+02  0.67539631498E+02  0.62971837959E+02  0.11493709894E+03  0.17770000000E+01 0. -1.
        -15    1    5    5    0    0 -0.98322530024E+02  0.22729577938E+03  0.26354895979E+02  0.24905507324E+03  0.17770000000E+01 0.  1.
          3    1    6    6  503    0  0.19600023475E+03  0.47862808057E+02  0.20860272090E+03  0.29021032990E+03  0.00000000000E+00 0. -1.
         -3    1    6    6    0  503  0.15224385716E+03  0.67326188797E+02  0.75438831743E+02  0.18276220910E+03  0.00000000000E+00 0.  1.
<mgrwt>
<rscale>  0 0.58047997E+03</rscale>
<asrwt>0</asrwt>
<pdfrwt beam="1">  1        2 0.11374993E+00 0.58047997E+03</pdfrwt>
<pdfrwt beam="2">  1       -2 0.10897055E+00 0.58047997E+03</pdfrwt>
<totfact> 0.26483688E+01</totfact>
</mgrwt>
</event>
<event>
12    1  0.9321077E-008  0.7117807E+03  0.7818608E-02  0.9697295E-01
          1   -1    0    0  501    0  0.00000000000E+00  0.00000000000E+00  0.87652450982E+03  0.87652450982E+03  0.00000000000E+00 0. -1.
         -1   -1    0    0    0  501 -0.00000000000E+00 -0.00000000000E+00 -0.89488196618E+03  0.89488196618E+03  0.00000000000E+00 0.  1.
         23    2    1    2    0    0  0.46708804178E+03 -0.47465227008E+03 -0.41653131153E+03  0.79059163828E+03  0.89837568815E+02 0.  0.
    5000000    2    1    2    0    0 -0.46708804178E+03  0.47465227008E+03  0.39817385517E+03  0.98081483772E+03  0.59999109218E+03 0.  0.
         23    2    4    4    0    0 -0.21245798498E+02  0.20145891058E+03 -0.10852245422E+03  0.24717945883E+03  0.91013653876E+02 0.  0.
         23    2    4    4    0    0 -0.44584224328E+03  0.27319335950E+03  0.50669630939E+03  0.73363537889E+03  0.89832074723E+02 0.  0.
          2    1    3    3  502    0  0.34456605543E+03 -0.29081495828E+03 -0.27159713031E+03  0.52636879439E+03  0.00000000000E+00 0. -1.
         -2    1    3    3    0  502  0.12252198635E+03 -0.18383731180E+03 -0.14493418122E+03  0.26422284389E+03  0.00000000000E+00 0.  1.
         15    1    5    5    0    0 -0.47664415680E+02  0.53105313655E+02 -0.34238633220E+02  0.79167623397E+02  0.17770000000E+01 0.  1.
        -15    1    5    5    0    0  0.26418617182E+02  0.14835359693E+03 -0.74283820997E+02  0.16801183543E+03  0.17770000000E+01 0. -1.
          1    1    6    6  503    0 -0.37036224757E+02  0.54923586930E+02  0.77967927326E+02  0.10230972601E+03  0.00000000000E+00 0. -1.
         -1    1    6    6    0  503 -0.40880601852E+03  0.21826977257E+03  0.42872838206E+03  0.63132565288E+03  0.00000000000E+00 0.  1.
<mgrwt>
<rscale>  0 0.71178065E+03</rscale>
<asrwt>0</asrwt>
<pdfrwt beam="1">  1        1 0.13484992E+00 0.71178065E+03</pdfrwt>
<pdfrwt beam="2">  1       -1 0.13767415E+00 0.71178065E+03</pdfrwt>
<totfact> 0.86495003E+00</totfact>
</mgrwt>
</event>
<event>
12    1  0.9321077E-008  0.1305464E+04  0.7818608E-02  0.9025243E-01
          1   -1    0    0  501    0  0.00000000000E+00  0.00000000000E+00  0.11310492533E+04  0.11310492533E+04  0.00000000000E+00 0. -1.
         -1   -1    0    0    0  501 -0.00000000000E+00 -0.00000000000E+00 -0.17675340851E+04  0.17675340851E+04  0.00000000000E+00 0.  1.
         23    2    1    2    0    0  0.54666556107E+03  0.11193855530E+04  0.22535676299E+03  0.12692475915E+04  0.91304577719E+02 0.  0.
    5000000    2    1    2    0    0 -0.54666556107E+03 -0.11193855530E+04 -0.86184159476E+03  0.16293357469E+04  0.60008065265E+03 0.  0.
         23    2    4    4    0    0 -0.32347232331E+03 -0.10883608160E+04 -0.68696740170E+03  0.13300699545E+04  0.89433009656E+02 0.  0.
         23    2    4    4    0    0 -0.22319323777E+03 -0.31024737050E+02 -0.17487419305E+03  0.29926579238E+03  0.90560893326E+02 0.  0.
          4    1    3    3  502    0  0.43847730404E+03  0.80651525854E+03  0.16955499076E+03  0.93352991559E+03  0.00000000000E+00 0. -1.
         -4    1    3    3    0  502  0.10818825703E+03  0.31287029447E+03  0.55801772236E+02  0.33571767589E+03  0.00000000000E+00 0.  1.
         15    1    5    5    0    0 -0.18555524352E+03 -0.53599575679E+03 -0.38596422720E+03  0.68607123690E+03  0.17770000000E+01 0.  1.
        -15    1    5    5    0    0 -0.13791707978E+03 -0.55236505917E+03 -0.30100317451E+03  0.64399871761E+03  0.17770000000E+01 0. -1.
          2    1    6    6  503    0 -0.14686185663E+03 -0.21128158552E+02 -0.57966707803E+02  0.15929514503E+03  0.00000000000E+00 0. -1.
         -2    1    6    6    0  503 -0.76331381135E+02 -0.98965784976E+01 -0.11690748525E+03  0.13997064735E+03  0.00000000000E+00 0.  1.
<mgrwt>
<rscale>  0 0.13054642E+04</rscale>
<asrwt>0</asrwt>
<pdfrwt beam="1">  1        1 0.17400758E+00 0.13054642E+04</pdfrwt>
<pdfrwt beam="2">  1       -1 0.27192832E+00 0.13054642E+04</pdfrwt>
<totfact> 0.58513438E-01</totfact>
</mgrwt>
</event>
<event>
12    1  0.9321077E-008  0.4113258E+03  0.7818608E-02  0.1039927E+00
         -2   -1    0    0    0  501 -0.00000000000E+00  0.00000000000E+00  0.42421822686E+03  0.42421822686E+03  0.00000000000E+00 0.  1.
          2   -1    0    0  501    0  0.00000000000E+00 -0.00000000000E+00 -0.45453014571E+03  0.45453014571E+03  0.00000000000E+00 0. -1.
         23    2    1    2    0    0  0.63360092440E+02 -0.21014505822E+03  0.24631242125E+02  0.23749030364E+03  0.87289744094E+02 0.  0.
    5000000    2    1    2    0    0 -0.63360092440E+02  0.21014505822E+03 -0.54943160978E+02  0.64125806894E+03  0.60001476084E+03 0.  0.
         23    2    4    4    0    0 -0.86232009834E+02  0.38142455762E+03  0.74057951873E+02  0.40752779752E+03  0.87599502503E+02 0.  0.
         23    2    4    4    0    0  0.22871917395E+02 -0.17127949940E+03 -0.12900111285E+03  0.23373027142E+03  0.90159642518E+02 0.  0.
          2    1    3    3  502    0  0.35793315776E+02 -0.28929682054E+02 -0.17796868835E+02  0.49343859783E+02  0.00000000000E+00 0. -1.
         -2    1    3    3    0  502  0.27566776664E+02 -0.18121537617E+03  0.42428110959E+02  0.18814644385E+03  0.00000000000E+00 0.  1.
         15    1    5    5    0    0 -0.98777726200E+02  0.36917034443E+03  0.76469238486E+02  0.38973642961E+03  0.17770000000E+01 0.  1.
        -15    1    5    5    0    0  0.12545716365E+02  0.12254213194E+02 -0.24112866132E+01  0.17791367914E+02  0.17770000000E+01 0. -1.
          4    1    6    6  503    0  0.24493091457E+02 -0.23523409016E+01 -0.26353833087E+02  0.36055090559E+02  0.00000000000E+00 0. -1.
         -4    1    6    6    0  503 -0.16211740621E+01 -0.16892715850E+03 -0.10264727976E+03  0.19767518086E+03  0.00000000000E+00 0.  1.
<mgrwt>
<rscale>  0 0.41132582E+03</rscale>
<asrwt>0</asrwt>
<pdfrwt beam="1">  1        2 0.69927715E-01 0.41132582E+03</pdfrwt>
<pdfrwt beam="2">  1       -2 0.65264343E-01 0.41132582E+03</pdfrwt>
<totfact> 0.15316543E+02</totfact>
</mgrwt>
</event>
<event>
12    1  0.9321077E-008  0.9729929E+03  0.7818608E-02  0.9338672E-01
         -2   -1    0    0    0  501 -0.00000000000E+00  0.00000000000E+00  0.68223074904E+03  0.68223074904E+03  0.00000000000E+00 0.  1.
          2   -1    0    0  501    0  0.00000000000E+00 -0.00000000000E+00 -0.19151447803E+04  0.19151447803E+04  0.00000000000E+00 0. -1.
         23    2    1    2    0    0 -0.52196242118E+03 -0.77833446307E+03 -0.11431586687E+04  0.14809407972E+04  0.90136547973E+02 0.  0.
    5000000    2    1    2    0    0  0.52196242118E+03  0.77833446307E+03 -0.89755362485E+02  0.11164347321E+04  0.60010097526E+03 0.  0.
         23    2    4    4    0    0  0.44970764580E+03  0.35535657348E+03  0.17198368845E+03  0.60565585564E+03  0.93409664236E+02 0.  0.
         23    2    4    4    0    0  0.72254775377E+02  0.42297788959E+03 -0.26173905093E+03  0.51077887650E+03  0.90866287732E+02 0.  0.
          3    1    3    3  502    0 -0.74413163210E+02 -0.68333744524E+02 -0.14672390457E+03  0.17814242525E+03  0.00000000000E+00 0. -1.
         -3    1    3    3    0  502 -0.44754925797E+03 -0.71000071855E+03 -0.99643476417E+03  0.13027983719E+04  0.00000000000E+00 0.  1.
         15    1    5    5    0    0  0.18690413489E+03  0.11073256267E+03  0.10137280724E+03  0.23973831536E+03  0.17770000000E+01 0.  1.
        -15    1    5    5    0    0  0.26280351091E+03  0.24462401081E+03  0.70610881210E+02  0.36591754028E+03  0.17770000000E+01 0. -1.
          4    1    6    6  503    0  0.12546885407E+02  0.45058546934E+02  0.76384085038E+00  0.46779059825E+02  0.00000000000E+00 0. -1.
         -4    1    6    6    0  503  0.59707889969E+02  0.37791934266E+03 -0.26250289178E+03  0.46399981668E+03  0.00000000000E+00 0.  1.
<mgrwt>
<rscale>  0 0.97299293E+03</rscale>
<asrwt>0</asrwt>
<pdfrwt beam="1">  1        2 0.29463766E+00 0.97299293E+03</pdfrwt>
<pdfrwt beam="2">  1       -2 0.10495858E+00 0.97299293E+03</pdfrwt>
<totfact> 0.54926351E+00</totfact>
</mgrwt>
</event>
<event>
12    1  0.9321077E-008  0.1246624E+04  0.7818608E-02  0.9072998E-01
          1   -1    0    0  501    0  0.00000000000E+00  0.00000000000E+00  0.13416200259E+04  0.13416200259E+04  0.00000000000E+00 0. -1.
         -1   -1    0    0    0  501 -0.00000000000E+00 -0.00000000000E+00 -0.14012952692E+04  0.14012952692E+04  0.00000000000E+00 0.  1.
         23    2    1    2    0    0 -0.54830724556E+03 -0.10590292040E+04 -0.55551737050E+03  0.13187948883E+04  0.91851608344E+02 0.  0.
    5000000    2    1    2    0    0  0.54830724556E+03  0.10590292040E+04  0.49584212725E+03  0.14241204068E+04  0.60006318636E+03 0.  0.
         23    2    4    4    0    0 -0.79161220954E+02  0.28984083865E+03  0.23618341824E+03  0.39292334438E+03  0.91279443745E+02 0.  0.
         23    2    4    4    0    0  0.62746846651E+03  0.76918836533E+03  0.25965870901E+03  0.10311970625E+04  0.10284609209E+03 0.  0.
          3    1    3    3  502    0 -0.49237933752E+02 -0.15964853081E+03 -0.90273955815E+02  0.18989843235E+03  0.00000000000E+00 0. -1.
         -3    1    3    3    0  502 -0.49906931181E+03 -0.89938067317E+03 -0.46524341468E+03  0.11288964559E+04  0.00000000000E+00 0.  1.
         15    1    5    5    0    0 -0.13764129908E+02  0.15187466715E+02 -0.54727676338E+01  0.21288948586E+02  0.17770000000E+01 0.  1.
        -15    1    5    5    0    0 -0.65397091046E+02  0.27465337194E+03  0.24165618587E+03  0.37163439579E+03  0.17770000000E+01 0. -1.
          3    1    6    6  503    0  0.61364524428E+03  0.73297429985E+03  0.26520155576E+03  0.99204015808E+03  0.00000000000E+00 0. -1.
         -3    1    6    6    0  503  0.13823222234E+02  0.36214065472E+02 -0.55428467502E+01  0.39156904385E+02  0.00000000000E+00 0.  1.
<mgrwt>
<rscale>  0 0.12466236E+04</rscale>
<asrwt>0</asrwt>
<pdfrwt beam="1">  1        1 0.20640308E+00 0.12466236E+04</pdfrwt>
<pdfrwt beam="2">  1       -1 0.21558389E+00 0.12466236E+04</pdfrwt>
<totfact> 0.97009533E-01</totfact>
</mgrwt>
</event>
<event>
12    1  0.9321077E-008  0.3255243E+03  0.7818608E-02  0.1073135E+00
          2   -1    0    0  501    0  0.00000000000E+00  0.00000000000E+00  0.15935719377E+04  0.15935719377E+04  0.00000000000E+00 0. -1.
         -2   -1    0    0    0  501 -0.00000000000E+00 -0.00000000000E+00 -0.16032740090E+03  0.16032740090E+03  0.00000000000E+00 0.  1.
         23    2    1    2    0    0 -0.18044981383E+03  0.22941590311E+03  0.69174463725E+03  0.75624857273E+03  0.90595080836E+02 0.  0.
    5000000    2    1    2    0    0  0.18044981383E+03 -0.22941590311E+03  0.74149989953E+03  0.99765076585E+03  0.60024258237E+03 0.  0.
         23    2    4    4    0    0  0.15560644079E+03 -0.17456533575E+03  0.82283802259E+03  0.86037662879E+03  0.92190623707E+02 0.  0.
         23    2    4    4    0    0  0.24843373037E+02 -0.54850567364E+02 -0.81338123053E+02  0.13727413706E+03  0.92749773690E+02 0.  0.
          4    1    3    3  502    0 -0.13043624327E+03  0.95206231512E+02  0.33746430269E+03  0.37411227682E+03  0.00000000000E+00 0.  1.
         -4    1    3    3    0  502 -0.50013570554E+02  0.13420967160E+03  0.35428033457E+03  0.38213629591E+03  0.00000000000E+00 0. -1.
         15    1    5    5    0    0  0.37306791092E+01  0.18124837005E+01  0.11826873355E+03  0.11835478075E+03  0.17770000000E+01 0. -1.
        -15    1    5    5    0    0  0.15187576168E+03 -0.17637781945E+03  0.70456928904E+03  0.74202184804E+03  0.17770000000E+01 0.  1.
          1    1    6    6  503    0  0.57320660577E+02 -0.50311056525E+02 -0.46009505439E+02  0.89071516931E+02  0.00000000000E+00 0. -1.
         -1    1    6    6    0  503 -0.32477287541E+02 -0.45395108383E+01 -0.35328617614E+02  0.48202620128E+02  0.00000000000E+00 0.  1.
<mgrwt>
<rscale>  0 0.32552425E+03</rscale>
<asrwt>0</asrwt>
<pdfrwt beam="1">  1        2 0.24516490E+00 0.32552425E+03</pdfrwt>
<pdfrwt beam="2">  1       -2 0.24665755E-01 0.32552425E+03</pdfrwt>
<totfact> 0.17670300E+02</totfact>
</mgrwt>
</event>
<event>
12    1  0.9321077E-008  0.8592135E+03  0.7818608E-02  0.9478054E-01
          1   -1    0    0  501    0  0.00000000000E+00  0.00000000000E+00  0.47092225948E+03  0.47092225948E+03  0.00000000000E+00 0. -1.
         -1   -1    0    0    0  501 -0.00000000000E+00 -0.00000000000E+00 -0.18497027193E+04  0.18497027193E+04  0.00000000000E+00 0.  1.
         23    2    1    2    0    0 -0.65375539435E+03 -0.44776429515E+03 -0.29587990125E+03  0.85069950663E+03  0.90861185071E+02 0.  0.
    5000000    2    1    2    0    0  0.65375539435E+03  0.44776429515E+03 -0.10829005586E+04  0.14699254722E+04  0.60009857047E+03 0.  0.
         23    2    4    4    0    0  0.81448403042E+02  0.32091643623E+03 -0.17549421143E+03  0.38569903925E+03  0.91347300106E+02 0.  0.
         23    2    4    4    0    0  0.57230699131E+03  0.12684785892E+03 -0.90740634715E+03  0.10842264329E+04  0.92385103533E+02 0.  0.
          3    1    3    3  502    0 -0.38972087348E+03 -0.30009546550E+03 -0.21983865452E+03  0.53876588762E+03  0.00000000000E+00 0. -1.
         -3    1    3    3    0  502 -0.26403452087E+03 -0.14766882964E+03 -0.76041246732E+02  0.31193361901E+03  0.00000000000E+00 0.  1.
         15    1    5    5    0    0 -0.10286651038E+02  0.47722674729E+02 -0.54362917676E+02  0.73087299992E+02  0.17770000000E+01 0. -1.
        -15    1    5    5    0    0  0.91735054080E+02  0.27319376150E+03 -0.12113129375E+03  0.31261173926E+03  0.17770000000E+01 0.  1.
          1    1    6    6  503    0  0.23651962811E+03  0.67842521696E+02 -0.46059054265E+03  0.52219516486E+03  0.00000000000E+00 0. -1.
         -1    1    6    6    0  503  0.33578736320E+03  0.59005337227E+02 -0.44681580450E+03  0.56203126805E+03  0.00000000000E+00 0.  1.
<mgrwt>
<rscale>  0 0.85921352E+03</rscale>
<asrwt>0</asrwt>
<pdfrwt beam="1">  1        1 0.72449579E-01 0.85921352E+03</pdfrwt>
<pdfrwt beam="2">  1       -1 0.28456965E+00 0.85921352E+03</pdfrwt>
<totfact> 0.20643644E+00</totfact>
</mgrwt>
</event>
<event>
12    1  0.9321077E-008  0.6736945E+03  0.7818608E-02  0.9763307E-01
          1   -1    0    0  501    0  0.00000000000E+00  0.00000000000E+00  0.77382233857E+03  0.77382233857E+03  0.00000000000E+00 0. -1.
         -1   -1    0    0    0  501 -0.00000000000E+00 -0.00000000000E+00 -0.67196134948E+03  0.67196134948E+03  0.00000000000E+00 0.  1.
         23    2    1    2    0    0 -0.11480169030E+03 -0.56579744349E+03  0.17416467722E+03  0.61000492563E+03  0.92013582377E+02 0.  0.
    5000000    2    1    2    0    0  0.11480169030E+03  0.56579744349E+03 -0.72303688133E+02  0.83577876243E+03  0.59999345101E+03 0.  0.
         23    2    4    4    0    0  0.29625395581E+03  0.48282263352E+03  0.69629651667E+02  0.57805987466E+03  0.91765072507E+02 0.  0.
         23    2    4    4    0    0 -0.18145226551E+03  0.82974809967E+02 -0.14193333980E+03  0.25771888777E+03  0.80400301105E+02 0.  0.
          4    1    3    3  502    0 -0.87664340004E+02 -0.26632381136E+03  0.11752883065E+03  0.30401716241E+03  0.00000000000E+00 0. -1.
         -4    1    3    3    0  502 -0.27137350293E+02 -0.29947363213E+03  0.56635846572E+02  0.30598776321E+03  0.00000000000E+00 0.  1.
         15    1    5    5    0    0  0.58881386457E+02  0.10844380011E+03 -0.22105115133E+02  0.12537491494E+03  0.17770000000E+01 0. -1.
        -15    1    5    5    0    0  0.23737256935E+03  0.37437883341E+03  0.91734766799E+02  0.45268495972E+03  0.17770000000E+01 0.  1.
          1    1    6    6  503    0 -0.80836102895E+02  0.40062133189E+02 -0.11295113688E+03  0.14455936279E+03  0.00000000000E+00 0. -1.
         -1    1    6    6    0  503 -0.10061616261E+03  0.42912676778E+02 -0.28982202918E+02  0.11315952498E+03  0.00000000000E+00 0.  1.
<mgrwt>
<rscale>  0 0.67369453E+03</rscale>
<asrwt>0</asrwt>
<pdfrwt beam="1">  1        1 0.11904959E+00 0.67369453E+03</pdfrwt>
<pdfrwt beam="2">  1       -1 0.10337867E+00 0.67369453E+03</pdfrwt>
<totfact> 0.21334234E+01</totfact>
</mgrwt>
</event>
<event>
12    1  0.9321077E-008  0.5186069E+03  0.7818608E-02  0.1009033E+00
         -1   -1    0    0    0  501 -0.00000000000E+00  0.00000000000E+00  0.17032854676E+04  0.17032854676E+04  0.00000000000E+00 0.  1.
          1   -1    0    0  501    0  0.00000000000E+00 -0.00000000000E+00 -0.17061499192E+03  0.17061499192E+03  0.00000000000E+00 0. -1.
         23    2    1    2    0    0  0.33790786562E+03 -0.12808046133E+03  0.46088471487E+03  0.59353118549E+03  0.96323504531E+02 0.  0.
    5000000    2    1    2    0    0 -0.33790786562E+03  0.12808046133E+03  0.10717857608E+04  0.12803692741E+04  0.60002869148E+03 0.  0.
         23    2    4    4    0    0  0.43149939806E+02  0.24439160140E+03  0.25496807677E+03  0.36710427874E+03  0.90375102524E+02 0.  0.
         23    2    4    4    0    0 -0.38105780543E+03 -0.11631114008E+03  0.81681768406E+03  0.91326499531E+03  0.90158140416E+02 0.  0.
          1    1    3    3  502    0  0.74290859009E+02  0.54412731620E+01  0.60826860979E+02  0.96169881993E+02  0.00000000000E+00 0. -1.
         -1    1    3    3    0  502  0.26361700661E+03 -0.13352173449E+03  0.40005785389E+03  0.49736130350E+03  0.00000000000E+00 0.  1.
         15    1    5    5    0    0 -0.19205560858E+02  0.12653150754E+03  0.15144114140E+03  0.19828427322E+03  0.17770000000E+01 0.  1.
        -15    1    5    5    0    0  0.62355500664E+02  0.11786009386E+03  0.10352693537E+03  0.16882000552E+03  0.17770000000E+01 0. -1.
          1    1    6    6  503    0 -0.24220829495E+03 -0.34322174919E+02  0.54168865567E+03  0.59436476133E+03  0.00000000000E+00 0. -1.
         -1    1    6    6    0  503 -0.13884951048E+03 -0.81988965160E+02  0.27512902839E+03  0.31890023398E+03  0.00000000000E+00 0.  1.
<mgrwt>
<rscale>  0 0.51860694E+03</rscale>
<asrwt>0</asrwt>
<pdfrwt beam="1">  1        1 0.26248461E-01 0.51860694E+03</pdfrwt>
<pdfrwt beam="2">  1       -1 0.26204391E+00 0.51860694E+03</pdfrwt>
<totfact> 0.11399615E+01</totfact>
</mgrwt>
</event>
<event>
12    1  0.9321077E-008  0.1853011E+04  0.7818608E-02  0.8678606E-01
          1   -1    0    0  501    0  0.00000000000E+00  0.00000000000E+00  0.14852570233E+04  0.14852570233E+04  0.00000000000E+00 0. -1.
         -1   -1    0    0    0  501 -0.00000000000E+00 -0.00000000000E+00 -0.23946782555E+04  0.23946782555E+04  0.00000000000E+00 0.  1.
         23    2    1    2    0    0 -0.14963848894E+04  0.10531225371E+04 -0.61100303883E+03  0.19312699957E+04  0.90797948449E+02 0.  0.
    5000000    2    1    2    0    0  0.14963848894E+04 -0.10531225371E+04 -0.29841819335E+03  0.19486652831E+04  0.60000679344E+03 0.  0.
         23    2    4    4    0    0  0.30391657801E+02  0.22006971708E+02 -0.57732527588E+02  0.11252306377E+03  0.88996828431E+02 0.  0.
         23    2    4    4    0    0  0.14659932316E+04 -0.10751295088E+04 -0.24068566576E+03  0.18361422193E+04  0.91918682571E+02 0.  0.
          3    1    3    3  502    0 -0.73870434658E+03  0.46529289506E+03 -0.28277085872E+03  0.91768237881E+03  0.00000000000E+00 0. -1.
         -3    1    3    3    0  502 -0.75768054279E+03  0.58782964204E+03 -0.32823218011E+03  0.10135876169E+04  0.00000000000E+00 0.  1.
         15    1    5    5    0    0 -0.35347807070E+01 -0.86061061585E+01  0.20116997899E+02  0.22235356335E+02  0.17770000000E+01 0. -1.
        -15    1    5    5    0    0  0.33926438508E+02  0.30613077866E+02 -0.77849525487E+02  0.90287707435E+02  0.17770000000E+01 0.  1.
          3    1    6    6  503    0  0.97647777349E+03 -0.74824861572E+03 -0.12809192483E+03  0.12368477571E+04  0.00000000000E+00 0. -1.
         -3    1    6    6    0  503  0.48951545807E+03 -0.32688089308E+03 -0.11259374092E+03  0.59929446222E+03  0.00000000000E+00 0.  1.
<mgrwt>
<rscale>  0 0.18530113E+04</rscale>
<asrwt>0</asrwt>
<pdfrwt beam="1">  1        1 0.22850108E+00 0.18530113E+04</pdfrwt>
<pdfrwt beam="2">  1       -1 0.36841204E+00 0.18530113E+04</pdfrwt>
<totfact> 0.71307543E-02</totfact>
</mgrwt>
</event>
<event>
12    1  0.9321077E-008  0.1292909E+04  0.7818608E-02  0.9035207E-01
         -2   -1    0    0    0  501 -0.00000000000E+00  0.00000000000E+00  0.46298423877E+03  0.46298423877E+03  0.00000000000E+00 0.  1.
          2   -1    0    0  501    0  0.00000000000E+00 -0.00000000000E+00 -0.44764379353E+04  0.44764379353E+04  0.00000000000E+00 0. -1.
         23    2    1    2    0    0  0.87508849352E+03  0.92960920270E+03 -0.27997091190E+04  0.30784219285E+04  0.91418145536E+02 0.  0.
    5000000    2    1    2    0    0 -0.87508849352E+03 -0.92960920270E+03 -0.12137445775E+04  0.18610002456E+04  0.60016070637E+03 0.  0.
         23    2    4    4    0    0 -0.54471055626E+03 -0.42649266858E+03 -0.29143324545E+03  0.75604122143E+03  0.89774191737E+02 0.  0.
         23    2    4    4    0    0 -0.33037793727E+03 -0.50311653412E+03 -0.92231133209E+03  0.11049590242E+04  0.89445086512E+02 0.  0.
          4    1    3    3  502    0  0.12297062560E+03  0.18064321334E+03 -0.48253762787E+03  0.52971342026E+03  0.00000000000E+00 0. -1.
         -4    1    3    3    0  502  0.75211786792E+03  0.74896598936E+03 -0.23171714911E+04  0.25487085082E+04  0.00000000000E+00 0.  1.
         15    1    5    5    0    0 -0.50453440082E+02 -0.77716766905E+02 -0.40165039834E+02  0.10100412679E+03  0.17770000000E+01 0. -1.
        -15    1    5    5    0    0 -0.49425711618E+03 -0.34877590168E+03 -0.25126820561E+03  0.65503709465E+03  0.17770000000E+01 0.  1.
          2    1    6    6  503    0 -0.23508835156E+03 -0.27972499293E+03 -0.53866728739E+03  0.65090325795E+03  0.00000000000E+00 0. -1.
         -2    1    6    6    0  503 -0.95289585701E+02 -0.22339154120E+03 -0.38364404470E+03  0.45405576624E+03  0.00000000000E+00 0.  1.
<mgrwt>
<rscale>  0 0.12929088E+04</rscale>
<asrwt>0</asrwt>
<pdfrwt beam="1">  1        2 0.68868277E+00 0.12929088E+04</pdfrwt>
<pdfrwt beam="2">  1       -2 0.71228344E-01 0.12929088E+04</pdfrwt>
<totfact> 0.23622085E-01</totfact>
</mgrwt>
</event>
<event>
12    1  0.9321077E-008  0.3597627E+03  0.7818608E-02  0.1058678E+00
          2   -1    0    0  501    0  0.00000000000E+00  0.00000000000E+00  0.15546540368E+04  0.15546540368E+04  0.00000000000E+00 0. -1.
         -2   -1    0    0    0  501 -0.00000000000E+00 -0.00000000000E+00 -0.18318211321E+03  0.18318211321E+03  0.00000000000E+00 0.  1.
         23    2    1    2    0    0 -0.16395159335E+03 -0.12418686617E+03 -0.22676244407E+01  0.22498107872E+03  0.91152843994E+02 0.  0.
    5000000    2    1    2    0    0  0.16395159335E+03  0.12418686617E+03  0.13737395480E+04  0.15128550713E+04  0.59938937114E+03 0.  0.
         23    2    4    4    0    0  0.27740496721E+03 -0.56539013708E+02  0.33836405505E+03  0.45172694523E+03  0.97040318414E+02 0.  0.
         23    2    4    4    0    0 -0.11345337386E+03  0.18072587988E+03  0.10353754929E+04  0.10611281260E+04  0.91961822300E+02 0.  0.
          2    1    3    3  502    0 -0.84702607873E+02 -0.11050727574E+03  0.22035993412E+02  0.14096799203E+03  0.00000000000E+00 0. -1.
         -2    1    3    3    0  502 -0.79248985479E+02 -0.13679590432E+02 -0.24303617853E+02  0.84013086687E+02  0.00000000000E+00 0.  1.
         15    1    5    5    0    0  0.13964026786E+03 -0.61662362980E+01  0.23075953698E+03  0.26979723593E+03  0.17770000000E+01 0.  1.
        -15    1    5    5    0    0  0.13776469935E+03 -0.50372777410E+02  0.10760451807E+03  0.18192970931E+03  0.17770000000E+01 0. -1.
          4    1    6    6  503    0 -0.82508579020E+02  0.13133583580E+03  0.52489753331E+03  0.54733370794E+03  0.00000000000E+00 0. -1.
         -4    1    6    6    0  503 -0.30944794838E+02  0.49390044077E+02  0.51047795963E+03  0.51379441808E+03  0.00000000000E+00 0.  1.
<mgrwt>
<rscale>  0 0.35976269E+03</rscale>
<asrwt>0</asrwt>
<pdfrwt beam="1">  1        2 0.23917754E+00 0.35976269E+03</pdfrwt>
<pdfrwt beam="2">  1       -2 0.28181865E-01 0.35976269E+03</pdfrwt>
<totfact> 0.14509058E+02</totfact>
</mgrwt>
</event>
<event>
12    1  0.9321077E-008  0.1686977E+04  0.7818608E-02  0.8768827E-01
         -1   -1    0    0    0  501 -0.00000000000E+00  0.00000000000E+00  0.16663237177E+04  0.16663237177E+04  0.00000000000E+00 0.  1.
          1   -1    0    0  501    0  0.00000000000E+00 -0.00000000000E+00 -0.18280760677E+04  0.18280760677E+04  0.00000000000E+00 0. -1.
         23    2    1    2    0    0 -0.83222209852E+03  0.14559929123E+04  0.14945203404E+03  0.16862698361E+04  0.93064858017E+02 0.  0.
    5000000    2    1    2    0    0  0.83222209852E+03 -0.14559929123E+04 -0.31120438406E+03  0.18081299493E+04  0.59998063545E+03 0.  0.
         23    2    4    4    0    0  0.61611771235E+03 -0.88393273458E+03  0.68220290188E+02  0.10831121572E+04  0.86832150001E+02 0.  0.
         23    2    4    4    0    0  0.21610438618E+03 -0.57206017770E+03 -0.37942467425E+03  0.72501779211E+03  0.87941814923E+02 0.  0.
          2    1    3    3  502    0 -0.32247019832E+03  0.47966916134E+03  0.37385145725E+02  0.57919528854E+03  0.00000000000E+00 0. -1.
         -2    1    3    3    0  502 -0.50975190020E+03  0.97632375094E+03  0.11206688831E+03  0.11070745476E+04  0.00000000000E+00 0.  1.
         15    1    5    5    0    0  0.26916133882E+03 -0.32170400030E+03  0.47257716115E+02  0.42211105125E+03  0.17770000000E+01 0. -1.
        -15    1    5    5    0    0  0.34695637352E+03 -0.56222873428E+03  0.20962574073E+02  0.66100110591E+03  0.17770000000E+01 0.  1.
          2    1    6    6  503    0  0.19506952545E+03 -0.44805962052E+03 -0.33108095973E+03  0.59027463540E+03  0.00000000000E+00 0. -1.
         -2    1    6    6    0  503  0.21034860728E+02 -0.12400055718E+03 -0.48343714514E+02  0.13474315671E+03  0.00000000000E+00 0.  1.
<mgrwt>
<rscale>  0 0.16869773E+04</rscale>
<asrwt>0</asrwt>
<pdfrwt beam="1">  1        1 0.28124247E+00 0.16869773E+04</pdfrwt>
<pdfrwt beam="2">  1       -1 0.25635750E+00 0.16869773E+04</pdfrwt>
<totfact> 0.22842168E-01</totfact>
</mgrwt>
</event>
<event>
12    1  0.9321077E-008  0.4957530E+03  0.7818608E-02  0.1014893E+00
         -2   -1    0    0    0  501 -0.00000000000E+00  0.00000000000E+00  0.20009626850E+03  0.20009626850E+03  0.00000000000E+00 0.  1.
          2   -1    0    0  501    0  0.00000000000E+00 -0.00000000000E+00 -0.30083763450E+04  0.30083763450E+04  0.00000000000E+00 0. -1.
         23    2    1    2    0    0 -0.45558780418E+03  0.28275428064E+02 -0.21739475346E+04  0.22232480287E+04  0.91783260600E+02 0.  0.
    5000000    2    1    2    0    0  0.45558780418E+03 -0.28275428064E+02 -0.63433254188E+03  0.98522458474E+03  0.59994163178E+03 0.  0.
         23    2    4    4    0    0  0.21552310937E+03 -0.12820929412E+03 -0.65668691266E+03  0.70861727044E+03  0.89514808460E+02 0.  0.
         23    2    4    4    0    0  0.24006469481E+03  0.99933866060E+02  0.22354370778E+02  0.27660731430E+03  0.91619065450E+02 0.  0.
          1    1    3    3  502    0 -0.14456799894E+03  0.32256104681E+02 -0.53937577605E+03  0.55934478669E+03  0.00000000000E+00 0. -1.
         -1    1    3    3    0  502 -0.31101980524E+03 -0.39806766175E+01 -0.16345717585E+04  0.16639032420E+04  0.00000000000E+00 0.  1.
         15    1    5    5    0    0  0.18981063462E+03 -0.69940373570E+02 -0.51250727091E+03  0.55098692665E+03  0.17770000000E+01 0. -1.
        -15    1    5    5    0    0  0.25712474751E+02 -0.58268920554E+02 -0.14417964175E+03  0.15763034379E+03  0.17770000000E+01 0.  1.
          1    1    6    6  503    0  0.18054603688E+03  0.10085060862E+03 -0.13281977508E+02  0.20722964947E+03  0.00000000000E+00 0. -1.
         -1    1    6    6    0  503  0.59518657927E+02 -0.91674256345E+00  0.35636348287E+02  0.69377664832E+02  0.00000000000E+00 0.  1.
<mgrwt>
<rscale>  0 0.49575304E+03</rscale>
<asrwt>0</asrwt>
<pdfrwt beam="1">  1        2 0.46282714E+00 0.49575304E+03</pdfrwt>
<pdfrwt beam="2">  1       -2 0.30784041E-01 0.49575304E+03</pdfrwt>
<totfact> 0.18777245E+01</totfact>
</mgrwt>
</event>
<event>
12    1  0.9321077E-008  0.6527929E+03  0.7818608E-02  0.9801552E-01
         -1   -1    0    0    0  501 -0.00000000000E+00  0.00000000000E+00  0.69862016889E+03  0.69862016889E+03  0.00000000000E+00 0.  1.
          1   -1    0    0  501    0  0.00000000000E+00 -0.00000000000E+00 -0.13499660294E+04  0.13499660294E+04  0.00000000000E+00 0. -1.
         23    2    1    2    0    0  0.56791265107E+03 -0.11626914393E+03 -0.98782359901E+03  0.11488988637E+04  0.90165643557E+02 0.  0.
    5000000    2    1    2    0    0 -0.56791265107E+03  0.11626914393E+03  0.33647773852E+03  0.89968733453E+03  0.60014726386E+03 0.  0.
         23    2    4    4    0    0 -0.60294574345E+03  0.14862768899E+03  0.91547846490E+02  0.63421513640E+03  0.90631515304E+02 0.  0.
         23    2    4    4    0    0  0.35033092381E+02 -0.32358545064E+02  0.24492989203E+03  0.26547219813E+03  0.90611494684E+02 0.  0.
          3    1    3    3  502    0  0.29023812119E+03 -0.39486817733E+02 -0.41835611550E+03  0.51070462612E+03  0.00000000000E+00 0. -1.
         -3    1    3    3    0  502  0.27767452988E+03 -0.76782326197E+02 -0.56946748351E+03  0.63819423762E+03  0.00000000000E+00 0.  1.
         15    1    5    5    0    0 -0.48123257198E+03  0.15173301355E+03  0.89286040402E+02  0.51242838570E+03  0.17770000000E+01 0. -1.
        -15    1    5    5    0    0 -0.12171317147E+03 -0.31053245604E+01  0.22618060882E+01  0.12178675070E+03  0.17770000000E+01 0.  1.
          3    1    6    6  503    0  0.29111001671E+02  0.26320989903E+02  0.13662718146E+03  0.14215214259E+03  0.00000000000E+00 0. -1.
         -3    1    6    6    0  503  0.59220907101E+01 -0.58679534968E+02  0.10830271056E+03  0.12332005554E+03  0.00000000000E+00 0.  1.
<mgrwt>
<rscale>  0 0.65279295E+03</rscale>
<asrwt>0</asrwt>
<pdfrwt beam="1">  1        1 0.20768708E+00 0.65279295E+03</pdfrwt>
<pdfrwt beam="2">  1       -1 0.10748003E+00 0.65279295E+03</pdfrwt>
<totfact> 0.70888819E+00</totfact>
</mgrwt>
</event>
<event>
12    1  0.9321077E-008  0.4144532E+03  0.7818608E-02  0.1038887E+00
         -2   -1    0    0    0  501 -0.00000000000E+00  0.00000000000E+00  0.27070205277E+03  0.27070205277E+03  0.00000000000E+00 0.  1.
          2   -1    0    0  501    0  0.00000000000E+00 -0.00000000000E+00 -0.83680057190E+03  0.83680057190E+03  0.00000000000E+00 0. -1.
         23    2    1    2    0    0 -0.26421972094E+03 -0.41831988996E+02 -0.92666215907E+02  0.29780105677E+03  0.92392995451E+02 0.  0.
    5000000    2    1    2    0    0  0.26421972094E+03  0.41831988996E+02 -0.47343230323E+03  0.80970156790E+03  0.59993041853E+03 0.  0.
         23    2    4    4    0    0 -0.66831474960E+01 -0.18339759568E+03 -0.38391832993E+03  0.43506532630E+03  0.90604699244E+02 0.  0.
         23    2    4    4    0    0  0.27090286844E+03  0.22522958468E+03 -0.89513973294E+02  0.37463624160E+03  0.90679833286E+02 0.  0.
          2    1    3    3  502    0 -0.51654642258E+02 -0.43030024307E+02 -0.42025061166E+02  0.79283610063E+02  0.00000000000E+00 0.  1.
         -2    1    3    3    0  502 -0.21256507868E+03  0.11980353114E+01 -0.50641154741E+02  0.21851744671E+03  0.00000000000E+00 0. -1.
         15    1    5    5    0    0 -0.16943865210E+02 -0.47683241962E+02 -0.19968375921E+03  0.20600375616E+03  0.17770000000E+01 0. -1.
        -15    1    5    5    0    0  0.10260717714E+02 -0.13571435372E+03 -0.18423457072E+03  0.22906157013E+03  0.17770000000E+01 0.  1.
          2    1    6    6  503    0  0.80722500036E+02  0.12110127444E+03 -0.52264337224E+02  0.15463893956E+03  0.00000000000E+00 0. -1.
         -2    1    6    6    0  503  0.19018036840E+03  0.10412831024E+03 -0.37249636071E+02  0.21999730204E+03  0.00000000000E+00 0.  1.
<mgrwt>
<rscale>  0 0.41445323E+03</rscale>
<asrwt>0</asrwt>
<pdfrwt beam="1">  1        2 0.12873855E+00 0.41445323E+03</pdfrwt>
<pdfrwt beam="2">  1       -2 0.41646470E-01 0.41445323E+03</pdfrwt>
<totfact> 0.18330466E+02</totfact>
</mgrwt>
</event>
<event>
12    1  0.9321077E-008  0.1163668E+04  0.7818608E-02  0.9145266E-01
          2   -1    0    0  501    0  0.00000000000E+00  0.00000000000E+00  0.13822918840E+04  0.13822918840E+04  0.00000000000E+00 0.  1.
         -2   -1    0    0    0  501 -0.00000000000E+00 -0.00000000000E+00 -0.10824584359E+04  0.10824584359E+04  0.00000000000E+00 0. -1.
         23    2    1    2    0    0 -0.35211409727E+03 -0.10918411049E+04  0.10265865910E+03  0.11553957159E+04  0.91099529001E+02 0.  0.
    5000000    2    1    2    0    0  0.35211409727E+03  0.10918411049E+04  0.19717478901E+03  0.13093546040E+04  0.59952501676E+03 0.  0.
         23    2    4    4    0    0  0.15230395753E+03  0.83748986184E+03 -0.98064238336E+02  0.86189309849E+03  0.93044904334E+02 0.  0.
         23    2    4    4    0    0  0.19981013974E+03  0.25435124310E+03  0.29523902735E+03  0.44746150553E+03  0.91853518461E+02 0.  0.
          3    1    3    3  502    0 -0.83608059186E+02 -0.30417923906E+03 -0.10094478171E+02  0.31562195033E+03  0.00000000000E+00 0. -1.
         -3    1    3    3    0  502 -0.26850603808E+03 -0.78766186588E+03  0.11275313727E+03  0.83977376561E+03  0.00000000000E+00 0.  1.
         15    1    5    5    0    0 -0.10746328266E+02  0.11846277260E+03 -0.10434715747E+02  0.11941923247E+03  0.17770000000E+01 0. -1.
        -15    1    5    5    0    0  0.16305028579E+03  0.71902708924E+03 -0.87629522589E+02  0.74247386602E+03  0.17770000000E+01 0.  1.
          1    1    6    6  503    0  0.27504243219E+02  0.36521683696E+02  0.93843594006E+02  0.10438839452E+03  0.00000000000E+00 0. -1.
         -1    1    6    6    0  503  0.17230589652E+03  0.21782955941E+03  0.20139543334E+03  0.34307311101E+03  0.00000000000E+00 0.  1.
<mgrwt>
<rscale>  0 0.11636683E+04</rscale>
<asrwt>0</asrwt>
<pdfrwt beam="1">  1        2 0.21266029E+00 0.11636683E+04</pdfrwt>
<pdfrwt beam="2">  1       -2 0.16653207E+00 0.11636683E+04</pdfrwt>
<totfact> 0.32583671E+00</totfact>
</mgrwt>
</event>
<event>
12    1  0.9321077E-008  0.7619235E+03  0.7818608E-02  0.9616828E-01
          2   -1    0    0  501    0  0.00000000000E+00  0.00000000000E+00  0.32169566330E+04  0.32169566330E+04  0.00000000000E+00 0. -1.
         -2   -1    0    0    0  501 -0.00000000000E+00 -0.00000000000E+00 -0.23478990605E+03  0.23478990605E+03  0.00000000000E+00 0.  1.
         23    2    1    2    0    0  0.54474848608E+03 -0.47708056252E+03  0.84359719710E+03  0.11155325631E+04  0.91650925383E+02 0.  0.
    5000000    2    1    2    0    0 -0.54474848608E+03  0.47708056252E+03  0.21385695299E+04  0.23362139760E+04  0.60004944074E+03 0.  0.
         23    2    4    4    0    0 -0.47938038350E+03  0.22230671223E+03  0.18853924628E+04  0.19599251910E+04  0.85884744044E+02 0.  0.
         23    2    4    4    0    0 -0.65368102583E+02  0.25477385028E+03  0.25317706707E+03  0.37628878496E+03  0.91169725122E+02 0.  0.
          3    1    3    3  502    0  0.14408948109E+03 -0.81110548571E+02  0.21945738146E+03  0.27477671285E+03  0.00000000000E+00 0. -1.
         -3    1    3    3    0  502  0.40065900499E+03 -0.39597001394E+03  0.62413981564E+03  0.84075585023E+03  0.00000000000E+00 0.  1.
         15    1    5    5    0    0 -0.30665249275E+01  0.73745858720E+00  0.11148227949E+01  0.37878726434E+01  0.17770000000E+01 0.  1.
        -15    1    5    5    0    0 -0.47631385857E+03  0.22156925365E+03  0.18842776400E+04  0.19561373184E+04  0.17770000000E+01 0. -1.
          4    1    6    6  503    0 -0.39828982238E+02  0.21708655641E+03  0.16006196943E+03  0.27264033975E+03  0.00000000000E+00 0. -1.
         -4    1    6    6    0  503 -0.25539120344E+02  0.37687293868E+02  0.93115097640E+02  0.10364844522E+03  0.00000000000E+00 0.  1.
<mgrwt>
<rscale>  0 0.76192345E+03</rscale>
<asrwt>0</asrwt>
<pdfrwt beam="1">  1        2 0.49491637E+00 0.76192345E+03</pdfrwt>
<pdfrwt beam="2">  1       -2 0.36121526E-01 0.76192345E+03</pdfrwt>
<totfact> 0.97325139E+00</totfact>
</mgrwt>
</event>
<event>
12    1  0.9321077E-008  0.5650879E+03  0.7818608E-02  0.9980608E-01
          2   -1    0    0  501    0  0.00000000000E+00  0.00000000000E+00  0.30280280068E+04  0.30280280068E+04  0.00000000000E+00 0. -1.
         -2   -1    0    0    0  501 -0.00000000000E+00 -0.00000000000E+00 -0.11261168465E+03  0.11261168465E+03  0.00000000000E+00 0.  1.
         23    2    1    2    0    0  0.10390292905E+03  0.40742981412E+03  0.12087553530E+04  0.12833754343E+04  0.95750351943E+02 0.  0.
    5000000    2    1    2    0    0 -0.10390292905E+03 -0.40742981412E+03  0.17066609692E+04  0.18572642572E+04  0.59995331913E+03 0.  0.
         23    2    4    4    0    0 -0.19922279151E+02  0.14283713644E+03  0.38694790620E+03  0.42199437106E+03  0.86897769463E+02 0.  0.
         23    2    4    4    0    0 -0.83980649897E+02 -0.55026695056E+03  0.13197130630E+04  0.14352698861E+04  0.92252972579E+02 0.  0.
          3    1    3    3  502    0  0.28370246094E+02  0.14110213682E+03  0.28889177499E+03  0.32275864285E+03  0.00000000000E+00 0. -1.
         -3    1    3    3    0  502  0.75532682953E+02  0.26632767729E+03  0.91986357798E+03  0.96061679143E+03  0.00000000000E+00 0.  1.
         15    1    5    5    0    0 -0.12077846482E+02  0.13666219185E+03  0.38824054473E+03  0.41177215467E+03  0.17770000000E+01 0.  1.
        -15    1    5    5    0    0 -0.78444326682E+01  0.61749445827E+01 -0.12926385312E+01  0.10222216387E+02  0.17770000000E+01 0. -1.
          3    1    6    6  503    0  0.13265445824E+02 -0.13124074047E+03  0.25914480719E+03  0.29078537636E+03  0.00000000000E+00 0. -1.
         -3    1    6    6    0  503 -0.97246095720E+02 -0.41902621009E+03  0.10605682558E+04  0.11444845097E+04  0.00000000000E+00 0.  1.
<mgrwt>
<rscale>  0 0.56508791E+03</rscale>
<asrwt>0</asrwt>
<pdfrwt beam="1">  1        2 0.46585040E+00 0.56508791E+03</pdfrwt>
<pdfrwt beam="2">  1       -2 0.17324877E-01 0.56508791E+03</pdfrwt>
<totfact> 0.49923364E+01</totfact>
</mgrwt>
</event>
<event>
12    1  0.9321077E-008  0.3579276E+03  0.7818608E-02  0.1059407E+00
          2   -1    0    0  501    0  0.00000000000E+00  0.00000000000E+00  0.33147405466E+03  0.33147405466E+03  0.00000000000E+00 0. -1.
         -2   -1    0    0    0  501 -0.00000000000E+00 -0.00000000000E+00 -0.96547535006E+03  0.96547535006E+03  0.00000000000E+00 0.  1.
         23    2    1    2    0    0 -0.69614103647E+02 -0.30440392479E+03 -0.51545719511E+03  0.61020483062E+03  0.95634420944E+02 0.  0.
    5000000    2    1    2    0    0  0.69614103647E+02  0.30440392479E+03 -0.11854410029E+03  0.68674457410E+03  0.60004794265E+03 0.  0.
         23    2    4    4    0    0  0.11042120891E+03  0.13211146140E+03  0.21978109696E+03  0.29353383220E+03  0.90620629291E+02 0.  0.
         23    2    4    4    0    0 -0.40807105263E+02  0.17229246339E+03 -0.33832519725E+03  0.39321074190E+03  0.93812769246E+02 0.  0.
          2    1    3    3  502    0 -0.80053408923E+02 -0.17579903807E+03 -0.25881814707E+03  0.32295616315E+03  0.00000000000E+00 0. -1.
         -2    1    3    3    0  502  0.10439305276E+02 -0.12860488672E+03 -0.25663904804E+03  0.28724866747E+03  0.00000000000E+00 0.  1.
         15    1    5    5    0    0  0.21687374238E+02  0.94711690531E+02  0.94914060732E+02  0.13583991747E+03  0.17770000000E+01 0. -1.
        -15    1    5    5    0    0  0.88733834672E+02  0.37399770867E+02  0.12486703623E+03  0.15769391473E+03  0.17770000000E+01 0.  1.
          2    1    6    6  503    0 -0.70427839169E+02  0.10261871632E+03 -0.20163000713E+03  0.23695008176E+03  0.00000000000E+00 0. -1.
         -2    1    6    6    0  503  0.29620733906E+02  0.69673747070E+02 -0.13669519011E+03  0.15626066014E+03  0.00000000000E+00 0.  1.
<mgrwt>
<rscale>  0 0.35792764E+03</rscale>
<asrwt>0</asrwt>
<pdfrwt beam="1">  1        2 0.50996008E-01 0.35792764E+03</pdfrwt>
<pdfrwt beam="2">  1       -2 0.14853467E+00 0.35792764E+03</pdfrwt>
<totfact> 0.31775051E+01</totfact>
</mgrwt>
</event>
<event>
12    1  0.9321077E-008  0.4004363E+03  0.7818608E-02  0.1043629E+00
         -2   -1    0    0    0  501 -0.00000000000E+00  0.00000000000E+00  0.24086143186E+03  0.24086143186E+03  0.00000000000E+00 0.  1.
          2   -1    0    0  501    0  0.00000000000E+00 -0.00000000000E+00 -0.11361814254E+04  0.11361814254E+04  0.00000000000E+00 0. -1.
         23    2    1    2    0    0 -0.21876303285E+03 -0.10245870081E+03  0.11902862921E+02  0.26283796619E+03  0.10289348089E+03 0.  0.
    5000000    2    1    2    0    0  0.21876303285E+03  0.10245870081E+03 -0.90722285648E+03  0.11142048911E+04  0.60003681396E+03 0.  0.
         23    2    4    4    0    0 -0.15498054440E+03 -0.13659649761E+02 -0.54274900726E+03  0.57185366956E+03  0.90744582918E+02 0.  0.
         23    2    4    4    0    0  0.37374357726E+03  0.11611835058E+03 -0.36447384922E+03  0.54235122154E+03  0.90199378370E+02 0.  0.
          3    1    3    3  502    0 -0.26392736728E+02 -0.27167048416E+02 -0.34362337957E+02  0.51140936064E+02  0.00000000000E+00 0. -1.
         -3    1    3    3    0  502 -0.19237029612E+03 -0.75291652399E+02  0.46265200878E+02  0.21169703013E+03  0.00000000000E+00 0.  1.
         15    1    5    5    0    0 -0.12662842055E+02  0.12679364191E+02 -0.18584115721E+03  0.18671156174E+03  0.17770000000E+01 0.  1.
        -15    1    5    5    0    0 -0.14231770235E+03 -0.26339013951E+02 -0.35690785005E+03  0.38514210782E+03  0.17770000000E+01 0. -1.
          2    1    6    6  503    0  0.32112344027E+03  0.83676552838E+02 -0.26255889062E+03  0.42315387323E+03  0.00000000000E+00 0. -1.
         -2    1    6    6    0  503  0.52620136983E+02  0.32441797738E+02 -0.10191495861E+03  0.11919734831E+03  0.00000000000E+00 0.  1.
<mgrwt>
<rscale>  0 0.40043626E+03</rscale>
<asrwt>0</asrwt>
<pdfrwt beam="1">  1        2 0.17479714E+00 0.40043626E+03</pdfrwt>
<pdfrwt beam="2">  1       -2 0.37055605E-01 0.40043626E+03</pdfrwt>
<totfact> 0.14869737E+02</totfact>
</mgrwt>
</event>
<event>
12    1  0.1704844E-007  0.1187037E+04  0.7818608E-02  0.9124279E-01
          2   -1    0    0  501    0  0.00000000000E+00  0.00000000000E+00  0.11443200016E+04  0.11443200016E+04  0.00000000000E+00 0. -1.
         -2   -1    0    0    0  501 -0.00000000000E+00 -0.00000000000E+00 -0.15540694910E+04  0.15540694910E+04  0.00000000000E+00 0.  1.
         23    2    1    2    0    0 -0.10927563129E+04  0.42017957805E+03  0.28755886534E+03  0.12089687055E+04  0.90818460336E+02 0.  0.
    5000000    2    1    2    0    0  0.10927563129E+04 -0.42017957805E+03 -0.69730835470E+03  0.14894207871E+04  0.60122217401E+03 0.  0.
         23    2    4    4    0    0  0.60863351993E+03 -0.34623436768E+03 -0.69497611488E+03  0.99089872319E+03  0.92603889870E+02 0.  0.
         23    2    4    4    0    0  0.48412279292E+03 -0.73945210370E+02 -0.23322398185E+01  0.49852206394E+03  0.93145242132E+02 0.  0.
          2    1    3    3  502    0 -0.58440551662E+03  0.19804614124E+03  0.19041392213E+03  0.64576276113E+03  0.00000000000E+00 0. -1.
         -2    1    3    3    0  502 -0.50835079624E+03  0.22213343681E+03  0.97144943207E+02  0.56320594437E+03  0.00000000000E+00 0.  1.
         15    1    5    5    0    0  0.22446030012E+03 -0.17064540174E+03 -0.24252434530E+03  0.37191866753E+03  0.17770000000E+01 0. -1.
        -15    1    5    5    0    0  0.38417321981E+03 -0.17558896594E+03 -0.45245176958E+03  0.61898005566E+03  0.17770000000E+01 0.  1.
          1    1    6    6  503    0  0.22151157031E+03 -0.79145069196E+02 -0.13588750574E+02  0.23561827582E+03  0.00000000000E+00 0. -1.
         -1    1    6    6    0  503  0.26261122261E+03  0.51998588265E+01  0.11256510756E+02  0.26290378812E+03  0.00000000000E+00 0.  1.
<mgrwt>
<rscale>  0 0.11870370E+04</rscale>
<asrwt>0</asrwt>
<pdfrwt beam="1">  1        2 0.17604923E+00 0.11870370E+04</pdfrwt>
<pdfrwt beam="2">  1       -2 0.23908761E+00 0.11870370E+04</pdfrwt>
<totfact> 0.14955457E+00</totfact>
</mgrwt>
</event>
<event>
12    1  0.9321077E-008  0.9730043E+03  0.7818608E-02  0.9338659E-01
         -1   -1    0    0    0  501 -0.00000000000E+00  0.00000000000E+00  0.70741200152E+03  0.70741200152E+03  0.00000000000E+00 0.  1.
          1   -1    0    0  501    0  0.00000000000E+00 -0.00000000000E+00 -0.14809699927E+04  0.14809699927E+04  0.00000000000E+00 0. -1.
         23    2    1    2    0    0 -0.36011812612E+02  0.92731994808E+03 -0.45856114693E+03  0.10392829883E+04  0.92799070399E+02 0.  0.
    5000000    2    1    2    0    0  0.36011812612E+02 -0.92731994808E+03 -0.31499684428E+03  0.11490990060E+04  0.59998864731E+03 0.  0.
         23    2    4    4    0    0  0.20187937639E+03 -0.30431087540E+03 -0.32548526359E+03  0.49740690363E+03  0.90069858816E+02 0.  0.
         23    2    4    4    0    0 -0.16586756378E+03 -0.62300907268E+03  0.10488419307E+02  0.65169210236E+03  0.94552821122E+02 0.  0.
          2    1    3    3  502    0 -0.43594856786E+02  0.48032289024E+03 -0.19434370391E+03  0.51998083203E+03  0.00000000000E+00 0. -1.
         -2    1    3    3    0  502  0.75830441746E+01  0.44699705784E+03 -0.26421744301E+03  0.51930215623E+03  0.00000000000E+00 0.  1.
         15    1    5    5    0    0  0.12081689506E+03 -0.12298066296E+03 -0.11087358647E+03  0.20498067104E+03  0.17770000000E+01 0.  1.
        -15    1    5    5    0    0  0.81062481333E+02 -0.18133021244E+03 -0.21461167711E+03  0.29242623259E+03  0.17770000000E+01 0. -1.
          2    1    6    6  503    0 -0.27267004764E+02 -0.15981450258E+03 -0.35687903436E+02  0.16600539520E+03  0.00000000000E+00 0. -1.
         -2    1    6    6    0  503 -0.13860055902E+03 -0.46319457010E+03  0.46176322743E+02  0.48568670716E+03  0.00000000000E+00 0.  1.
<mgrwt>
<rscale>  0 0.97300432E+03</rscale>
<asrwt>0</asrwt>
<pdfrwt beam="1">  1        1 0.22784154E+00 0.97300432E+03</pdfrwt>
<pdfrwt beam="2">  1       -1 0.10883262E+00 0.97300432E+03</pdfrwt>
<totfact> 0.53243014E+00</totfact>
</mgrwt>
</event>
<event>
12    1  0.9321077E-008  0.6253876E+03  0.7818608E-02  0.9854091E-01
         -1   -1    0    0    0  501 -0.00000000000E+00  0.00000000000E+00  0.25097177902E+03  0.25097177902E+03  0.00000000000E+00 0.  1.
          1   -1    0    0  501    0  0.00000000000E+00 -0.00000000000E+00 -0.16044778513E+04  0.16044778513E+04  0.00000000000E+00 0. -1.
         23    2    1    2    0    0 -0.25302778024E+03  0.41483248178E+03 -0.56497501387E+03  0.75192702974E+03  0.10044125765E+03 0.  0.
    5000000    2    1    2    0    0  0.25302778024E+03 -0.41483248178E+03 -0.78853105844E+03  0.11035226006E+04  0.59989320250E+03 0.  0.
         23    2    4    4    0    0  0.13769630756E+03 -0.54282530756E+03 -0.50917067827E+03  0.76309081502E+03  0.97124789398E+02 0.  0.
         23    2    4    4    0    0  0.11533147268E+03  0.12799282577E+03 -0.27936038017E+03  0.34043178558E+03  0.90377356608E+02 0.  0.
          2    1    3    3  502    0 -0.10448125451E+03  0.85919541849E+02 -0.15195020115E+03  0.20343884547E+03  0.00000000000E+00 0. -1.
         -2    1    3    3    0  502 -0.14854652573E+03  0.32891293993E+03 -0.41302481272E+03  0.54848818427E+03  0.00000000000E+00 0.  1.
         15    1    5    5    0    0  0.68561378553E+02 -0.24829812607E+03 -0.29929132693E+03  0.39488109368E+03  0.17770000000E+01 0. -1.
        -15    1    5    5    0    0  0.69134929004E+02 -0.29452718148E+03 -0.20987935134E+03  0.36820972134E+03  0.17770000000E+01 0.  1.
          4    1    6    6  503    0  0.11814511311E+03  0.13939304276E+03 -0.26480829489E+03  0.32173299670E+03  0.00000000000E+00 0. -1.
         -4    1    6    6    0  503 -0.28136404224E+01 -0.11400216990E+02 -0.14552085274E+02  0.18698788882E+02  0.00000000000E+00 0.  1.
<mgrwt>
<rscale>  0 0.62538759E+03</rscale>
<asrwt>0</asrwt>
<pdfrwt beam="1">  1        1 0.24684275E+00 0.62538759E+03</pdfrwt>
<pdfrwt beam="2">  1       -1 0.38611043E-01 0.62538759E+03</pdfrwt>
<totfact> 0.37734014E+01</totfact>
</mgrwt>
</event>
<event>
12    1  0.9321077E-008  0.1308884E+04  0.7818608E-02  0.9022549E-01
         -1   -1    0    0    0  501 -0.00000000000E+00  0.00000000000E+00  0.72907114767E+03  0.72907114767E+03  0.00000000000E+00 0.  1.
          1   -1    0    0  501    0  0.00000000000E+00 -0.00000000000E+00 -0.26467543095E+04  0.26467543095E+04  0.00000000000E+00 0. -1.
         23    2    1    2    0    0  0.10103314190E+04 -0.79038792128E+03 -0.13067931130E+04  0.18334615983E+04  0.91599945292E+02 0.  0.
    5000000    2    1    2    0    0 -0.10103314190E+04  0.79038792128E+03 -0.61089004882E+03  0.15423638588E+04  0.60018078851E+03 0.  0.
         23    2    4    4    0    0 -0.59671737225E+02  0.21253086246E+02  0.80600684869E+02  0.13462416588E+03  0.87262739689E+02 0.  0.
         23    2    4    4    0    0 -0.95065968179E+03  0.76913483504E+03 -0.69149073368E+03  0.14077396929E+04  0.90826115586E+02 0.  0.
          4    1    3    3  502    0  0.39439372532E+03 -0.25372606647E+03 -0.46389152719E+03  0.65963526011E+03  0.00000000000E+00 0. -1.
         -4    1    3    3    0  502  0.61593769370E+03 -0.53666185481E+03 -0.84290158580E+03  0.11738263382E+04  0.00000000000E+00 0.  1.
         15    1    5    5    0    0 -0.20322737936E+02  0.52066802888E+02  0.29912606385E+02  0.63418352154E+02  0.17770000000E+01 0. -1.
        -15    1    5    5    0    0 -0.39348999289E+02 -0.30813716642E+02  0.50688078483E+02  0.71205813721E+02  0.17770000000E+01 0.  1.
          2    1    6    6  503    0 -0.16760716837E+03  0.18050433174E+03 -0.15064867745E+03  0.28873690564E+03  0.00000000000E+00 0. -1.
         -2    1    6    6    0  503 -0.78305251343E+03  0.58863050330E+03 -0.54084205624E+03  0.11190027873E+04  0.00000000000E+00 0.  1.
<mgrwt>
<rscale>  0 0.13088843E+04</rscale>
<asrwt>0</asrwt>
<pdfrwt beam="1">  1        1 0.40719296E+00 0.13088843E+04</pdfrwt>
<pdfrwt beam="2">  1       -1 0.11216479E+00 0.13088843E+04</pdfrwt>
<totfact> 0.76149257E-01</totfact>
</mgrwt>
</event>
<event>
12    1  0.9321077E-008  0.1105354E+04  0.7818608E-02  0.9199989E-01
          2   -1    0    0  501    0  0.00000000000E+00  0.00000000000E+00  0.81181005317E+03  0.81181005317E+03  0.00000000000E+00 0. -1.
         -2   -1    0    0    0  501 -0.00000000000E+00 -0.00000000000E+00 -0.15420778076E+04  0.15420778076E+04  0.00000000000E+00 0.  1.
         23    2    1    2    0    0  0.85363597966E+03 -0.57761692350E+03 -0.22798445959E+03  0.10597513027E+04  0.93596013295E+02 0.  0.
    5000000    2    1    2    0    0 -0.85363597966E+03  0.57761692350E+03 -0.50228329482E+03  0.12941365580E+04  0.60013767294E+03 0.  0.
         23    2    4    4    0    0  0.58721801199E+02  0.91598315272E+02 -0.22601835604E+01  0.14266638136E+03  0.92250130863E+02 0.  0.
         23    2    4    4    0    0 -0.91235778086E+03  0.48601860823E+03 -0.50002311126E+03  0.11514701767E+04  0.85144865490E+02 0.  0.
          3    1    3    3  502    0  0.81810499548E+03 -0.55982774589E+03 -0.23645267758E+03  0.10191235241E+04  0.00000000000E+00 0. -1.
         -3    1    3    3    0  502  0.35530984182E+02 -0.17789177609E+02  0.84682179889E+01  0.40627778586E+02  0.00000000000E+00 0.  1.
         15    1    5    5    0    0  0.24838874114E+02 -0.16136415990E+02 -0.15289168923E+01  0.29712773416E+02  0.17770000000E+01 0. -1.
        -15    1    5    5    0    0  0.33882927085E+02  0.10773473126E+03 -0.73126666817E+00  0.11295360794E+03  0.17770000000E+01 0.  1.
          1    1    6    6  503    0 -0.61765765532E+03  0.28456068580E+03 -0.31704636051E+03  0.75032936621E+03  0.00000000000E+00 0. -1.
         -1    1    6    6    0  503 -0.29470012553E+03  0.20145792242E+03 -0.18297675075E+03  0.40114081045E+03  0.00000000000E+00 0.  1.
<mgrwt>
<rscale>  0 0.11053539E+04</rscale>
<asrwt>0</asrwt>
<pdfrwt beam="1">  1        2 0.12489386E+00 0.11053539E+04</pdfrwt>
<pdfrwt beam="2">  1       -2 0.23724273E+00 0.11053539E+04</pdfrwt>
<totfact> 0.25630870E+00</totfact>
</mgrwt>
</event>
<event>
12    1  0.9321077E-008  0.1245935E+04  0.7818608E-02  0.9073573E-01
         -2   -1    0    0    0  501 -0.00000000000E+00  0.00000000000E+00  0.99605551591E+03  0.99605551591E+03  0.00000000000E+00 0.  1.
          2   -1    0    0  501    0  0.00000000000E+00 -0.00000000000E+00 -0.17732804056E+04  0.17732804056E+04  0.00000000000E+00 0. -1.
         23    2    1    2    0    0  0.25138628210E+03  0.12032757917E+04 -0.82919600009E+02  0.12353885964E+04  0.90783425709E+02 0.  0.
    5000000    2    1    2    0    0 -0.25138628210E+03 -0.12032757917E+04 -0.69430528973E+03  0.15339473251E+04  0.59988904567E+03 0.  0.
         23    2    4    4    0    0  0.28302125854E+02 -0.16809749911E+03  0.82185269964E+02  0.20695313100E+03  0.83769924792E+02 0.  0.
         23    2    4    4    0    0 -0.27968840796E+03 -0.10351782926E+04 -0.77649055969E+03  0.13269941941E+04  0.90312229907E+02 0.  0.
          1    1    3    3  502    0  0.13384933682E+03  0.57156528216E+03  0.35872650463E+01  0.58703950907E+03  0.00000000000E+00 0. -1.
         -1    1    3    3    0  502  0.11753694529E+03  0.63171050956E+03 -0.86506865055E+02  0.64834908737E+03  0.00000000000E+00 0.  1.
         15    1    5    5    0    0 -0.27193861240E+02 -0.43764608234E+02  0.37094826862E+02  0.63514021538E+02  0.17770000000E+01 0. -1.
        -15    1    5    5    0    0  0.55495987094E+02 -0.12433289087E+03  0.45090443102E+02  0.14343910947E+03  0.17770000000E+01 0.  1.
          3    1    6    6  503    0 -0.86529526915E+02 -0.21094500065E+03 -0.19429604376E+03  0.29955985203E+03  0.00000000000E+00 0. -1.
         -3    1    6    6    0  503 -0.19315888104E+03 -0.82423329197E+03 -0.58219451593E+03  0.10274343421E+04  0.00000000000E+00 0.  1.
<mgrwt>
<rscale>  0 0.12459354E+04</rscale>
<asrwt>0</asrwt>
<pdfrwt beam="1">  1        2 0.27281237E+00 0.12459354E+04</pdfrwt>
<pdfrwt beam="2">  1       -2 0.15323931E+00 0.12459354E+04</pdfrwt>
<totfact> 0.24449592E+00</totfact>
</mgrwt>
</event>
<event>
12    1  0.9321077E-008  0.4436895E+03  0.7818608E-02  0.1029621E+00
         -2   -1    0    0    0  501 -0.00000000000E+00  0.00000000000E+00  0.50459247529E+03  0.50459247529E+03  0.00000000000E+00 0.  1.
          2   -1    0    0  501    0  0.00000000000E+00 -0.00000000000E+00 -0.66617669017E+03  0.66617669017E+03  0.00000000000E+00 0. -1.
         23    2    1    2    0    0  0.34981192715E+03 -0.64549763089E+02  0.16254802845E+03  0.40158463866E+03  0.91177322623E+02 0.  0.
    5000000    2    1    2    0    0 -0.34981192715E+03  0.64549763089E+02 -0.32413224333E+03  0.76918452679E+03  0.60004005600E+03 0.  0.
         23    2    4    4    0    0 -0.30318175299E+03  0.19119524065E+03 -0.43602079538E+03  0.57114433561E+03  0.87274983255E+02 0.  0.
         23    2    4    4    0    0 -0.46630174161E+02 -0.12664547756E+03  0.11188855205E+03  0.19804019118E+03  0.92127189873E+02 0.  0.
          2    1    3    3  502    0  0.19834621280E+03  0.80464823567E+01  0.10074450770E+03  0.22261047110E+03  0.00000000000E+00 0. -1.
         -2    1    3    3    0  502  0.15146571436E+03 -0.72596245446E+02  0.61803520748E+02  0.17897416756E+03  0.00000000000E+00 0.  1.
         15    1    5    5    0    0 -0.24000396711E+02 -0.63132216690E+01 -0.46968435639E+02  0.53151363910E+02  0.17770000000E+01 0.  1.
        -15    1    5    5    0    0 -0.27918135628E+03  0.19750846232E+03 -0.38905235974E+03  0.51799297170E+03  0.17770000000E+01 0. -1.
          2    1    6    6  503    0  0.20341759605E+02 -0.23796072308E+02 -0.94932748277E+00  0.31319985054E+02  0.00000000000E+00 0.  1.
         -2    1    6    6    0  503 -0.66971933766E+02 -0.10284940525E+03  0.11283787954E+03  0.16672020613E+03  0.00000000000E+00 0. -1.
<mgrwt>
<rscale>  0 0.44368953E+03</rscale>
<asrwt>0</asrwt>
<pdfrwt beam="1">  1        2 0.10248872E+00 0.44368953E+03</pdfrwt>
<pdfrwt beam="2">  1       -2 0.77629611E-01 0.44368953E+03</pdfrwt>
<totfact> 0.67056732E+01</totfact>
</mgrwt>
</event>
<event>
12    1  0.9321077E-008  0.7653592E+03  0.7818608E-02  0.9611558E-01
         -1   -1    0    0    0  501 -0.00000000000E+00  0.00000000000E+00  0.59857105455E+03  0.59857105455E+03  0.00000000000E+00 0.  1.
          1   -1    0    0  501    0  0.00000000000E+00 -0.00000000000E+00 -0.20550491045E+04  0.20550491045E+04  0.00000000000E+00 0. -1.
         23    2    1    2    0    0 -0.33395961458E+03  0.66366033320E+03  0.17013713900E+03  0.76740660663E+03  0.89399059250E+02 0.  0.
    5000000    2    1    2    0    0  0.33395961458E+03 -0.66366033320E+03 -0.16266151890E+04  0.18862135524E+04  0.59995877392E+03 0.  0.
         23    2    4    4    0    0  0.15688650609E+03 -0.53079163309E+03 -0.15247660447E+04  0.16246571341E+04  0.90808472533E+02 0.  0.
         23    2    4    4    0    0  0.17707310849E+03 -0.13286870011E+03 -0.10184914430E+03  0.26155641839E+03  0.95023863262E+02 0.  0.
          2    1    3    3  502    0 -0.67379945292E+02  0.22613826897E+03  0.55278673404E+02  0.24235161533E+03  0.00000000000E+00 0. -1.
         -2    1    3    3    0  502 -0.26657966929E+03  0.43752206423E+03  0.11485846560E+03  0.52505499130E+03  0.00000000000E+00 0.  1.
         15    1    5    5    0    0  0.88358348395E+02 -0.42832290012E+03 -0.12096206270E+04  0.12862553881E+04  0.17770000000E+01 0. -1.
        -15    1    5    5    0    0  0.68528157696E+02 -0.10246873297E+03 -0.31514541767E+03  0.33840174592E+03  0.17770000000E+01 0.  1.
          3    1    6    6  503    0  0.63632300548E+02 -0.39796823317E+02  0.11776821762E+02  0.75970720347E+02  0.00000000000E+00 0. -1.
         -3    1    6    6    0  503  0.11344080794E+03 -0.93071876794E+02 -0.11362596606E+03  0.18558569805E+03  0.00000000000E+00 0.  1.
<mgrwt>
<rscale>  0 0.76535925E+03</rscale>
<asrwt>0</asrwt>
<pdfrwt beam="1">  1        1 0.31616140E+00 0.76535925E+03</pdfrwt>
<pdfrwt beam="2">  1       -1 0.92087855E-01 0.76535925E+03</pdfrwt>
<totfact> 0.32959342E+00</totfact>
</mgrwt>
</event>
<event>
12    1  0.9321077E-008  0.4984250E+03  0.7818608E-02  0.1014191E+00
          1   -1    0    0  501    0  0.00000000000E+00  0.00000000000E+00  0.68938750295E+03  0.68938750295E+03  0.00000000000E+00 0. -1.
         -1   -1    0    0    0  501 -0.00000000000E+00 -0.00000000000E+00 -0.10214414782E+04  0.10214414782E+04  0.00000000000E+00 0.  1.
         23    2    1    2    0    0 -0.19085502802E+03  0.31455932882E+03  0.49584737432E+03  0.62414186144E+03  0.91187891264E+02 0.  0.
    5000000    2    1    2    0    0  0.19085502802E+03 -0.31455932882E+03 -0.82790134959E+03  0.10866871197E+04  0.60007919351E+03 0.  0.
         23    2    4    4    0    0  0.28389605135E+03 -0.39611760318E+03 -0.41732621523E+03  0.64813629104E+03  0.91724360633E+02 0.  0.
         23    2    4    4    0    0 -0.93041023325E+02  0.81558274363E+02 -0.41057513437E+03  0.43855082870E+03  0.91904865218E+02 0.  0.
          1    1    3    3  502    0 -0.55038141584E+02  0.29702186312E+02  0.66460350299E+02  0.91260040887E+02  0.00000000000E+00 0. -1.
         -1    1    3    3    0  502 -0.13581688644E+03  0.28485714250E+03  0.42938702402E+03  0.53288182055E+03  0.00000000000E+00 0.  1.
         15    1    5    5    0    0  0.19734877012E+03 -0.20250144724E+03 -0.21747734391E+03  0.35672528092E+03  0.17770000000E+01 0. -1.
        -15    1    5    5    0    0  0.86547281232E+02 -0.19361615593E+03 -0.19984887132E+03  0.29141101013E+03  0.17770000000E+01 0.  1.
          3    1    6    6  503    0 -0.38018051984E+02  0.29371804412E+02 -0.47208702959E+02  0.67355302732E+02  0.00000000000E+00 0. -1.
         -3    1    6    6    0  503 -0.55022971341E+02  0.52186469951E+02 -0.36336643141E+03  0.37119552596E+03  0.00000000000E+00 0.  1.
<mgrwt>
<rscale>  0 0.49842500E+03</rscale>
<asrwt>0</asrwt>
<pdfrwt beam="1">  1        1 0.10605962E+00 0.49842500E+03</pdfrwt>
<pdfrwt beam="2">  1       -1 0.15714484E+00 0.49842500E+03</pdfrwt>
<totfact> 0.92082702E+00</totfact>
</mgrwt>
</event>
<event>
12    1  0.9381167E-008  0.8064294E+03  0.7818608E-02  0.9550757E-01
         -2   -1    0    0    0  501 -0.00000000000E+00  0.00000000000E+00  0.50683385033E+03  0.50683385033E+03  0.00000000000E+00 0. -1.
          2   -1    0    0  501    0  0.00000000000E+00 -0.00000000000E+00 -0.16470797180E+04  0.16470797180E+04  0.00000000000E+00 0.  1.
         23    2    1    2    0    0  0.72438759647E+03 -0.33559552632E+03 -0.68699185077E+03  0.10571486431E+04  0.90794842747E+02 0.  0.
    5000000    2    1    2    0    0 -0.72438759647E+03  0.33559552632E+03 -0.45325401693E+03  0.10967649252E+04  0.60007695349E+03 0.  0.
         23    2    4    4    0    0 -0.41286688568E+03  0.23015031167E+03  0.53973368008E+02  0.48480434348E+03  0.93241062578E+02 0.  0.
         23    2    4    4    0    0 -0.31152071079E+03  0.10544521465E+03 -0.50722738494E+03  0.61196058173E+03  0.95143507516E+02 0.  0.
          4    1    3    3  502    0  0.57400464021E+03 -0.24418683292E+03 -0.49183038040E+03  0.79435864661E+03  0.00000000000E+00 0.  1.
         -4    1    3    3    0  502  0.15038295625E+03 -0.91408693396E+02 -0.19516147037E+03  0.26278999653E+03  0.00000000000E+00 0. -1.
         15    1    5    5    0    0 -0.12380380953E+03  0.60460955369E+02  0.58216128932E+02  0.14958337399E+03  0.17770000000E+01 0. -1.
        -15    1    5    5    0    0 -0.28906307615E+03  0.16968935630E+03 -0.42427609237E+01  0.33522096949E+03  0.17770000000E+01 0.  1.
          1    1    6    6  503    0 -0.14352374449E+03  0.94314699375E+02 -0.22096783651E+03  0.27985909405E+03  0.00000000000E+00 0. -1.
         -1    1    6    6    0  503 -0.16799696630E+03  0.11130515274E+02 -0.28625954843E+03  0.33210148768E+03  0.00000000000E+00 0.  1.
<mgrwt>
<rscale>  0 0.80642937E+03</rscale>
<asrwt>0</asrwt>
<pdfrwt beam="1">  1        2 0.25339688E+00 0.80642937E+03</pdfrwt>
<pdfrwt beam="2">  1       -2 0.77974438E-01 0.80642937E+03</pdfrwt>
<totfact> 0.15671905E+01</totfact>
</mgrwt>
</event>
<event>
12    1  0.9321077E-008  0.4773053E+03  0.7818608E-02  0.1019878E+00
         -2   -1    0    0    0  501 -0.00000000000E+00  0.00000000000E+00  0.12299476660E+03  0.12299476660E+03  0.00000000000E+00 0.  1.
          2   -1    0    0  501    0  0.00000000000E+00 -0.00000000000E+00 -0.32264672377E+04  0.32264672377E+04  0.00000000000E+00 0. -1.
         23    2    1    2    0    0  0.11196281034E+03 -0.40785746187E+03 -0.18209182394E+04  0.18716939778E+04  0.92799417550E+02 0.  0.
    5000000    2    1    2    0    0 -0.11196281034E+03  0.40785746187E+03 -0.12825542317E+04  0.14777680265E+04  0.59997466844E+03 0.  0.
         23    2    4    4    0    0 -0.16488939737E+03  0.93726632788E+02 -0.72379003308E+02  0.22296588235E+03  0.92205582881E+02 0.  0.
         23    2    4    4    0    0  0.52926587037E+02  0.31413082909E+03 -0.12101752284E+04  0.12548021441E+04  0.92330580638E+02 0.  0.
          3    1    3    3  502    0  0.18602138439E+02 -0.17643113341E+03 -0.60718493229E+03  0.63257215113E+03  0.00000000000E+00 0. -1.
         -3    1    3    3    0  502  0.93360671898E+02 -0.23142632847E+03 -0.12137333072E+04  0.12391218267E+04  0.00000000000E+00 0.  1.
         15    1    5    5    0    0 -0.10214777840E+03  0.18631720175E+02 -0.69675620709E+02  0.12505662509E+03  0.17770000000E+01 0.  1.
        -15    1    5    5    0    0 -0.62741618978E+02  0.75094912613E+02 -0.27033825982E+01  0.97909257268E+02  0.17770000000E+01 0. -1.
          3    1    6    6  503    0  0.14133593496E+02  0.25388337854E+03 -0.83551028276E+03  0.87334641521E+03  0.00000000000E+00 0. -1.
         -3    1    6    6    0  503  0.38792993541E+02  0.60247450542E+02 -0.37466494563E+03  0.38145572893E+03  0.00000000000E+00 0.  1.
<mgrwt>
<rscale>  0 0.47730529E+03</rscale>
<asrwt>0</asrwt>
<pdfrwt beam="1">  1        2 0.49637959E+00 0.47730529E+03</pdfrwt>
<pdfrwt beam="2">  1       -2 0.18922271E-01 0.47730529E+03</pdfrwt>
<totfact> 0.32956523E+01</totfact>
</mgrwt>
</event>
<event>
12    1  0.9321077E-008  0.9224662E+03  0.7818608E-02  0.9397925E-01
         -2   -1    0    0    0  501 -0.00000000000E+00  0.00000000000E+00  0.55552009310E+03  0.55552009310E+03  0.00000000000E+00 0.  1.
          2   -1    0    0  501    0  0.00000000000E+00 -0.00000000000E+00 -0.16040996917E+04  0.16040996917E+04  0.00000000000E+00 0. -1.
         23    2    1    2    0    0  0.34793681277E+03 -0.77085569107E+03 -0.48855517262E+03  0.98111821539E+03  0.92888501632E+02 0.  0.
    5000000    2    1    2    0    0 -0.34793681277E+03  0.77085569107E+03 -0.56002442596E+03  0.11785015694E+04  0.59996672345E+03 0.  0.
         23    2    4    4    0    0 -0.20923695123E+03  0.22000100659E+02 -0.57750154936E+00  0.22914400599E+03  0.90788412168E+02 0.  0.
         23    2    4    4    0    0 -0.13869986154E+03  0.74885559041E+03 -0.55944692441E+03  0.94935756340E+03  0.90975683921E+02 0.  0.
          4    1    3    3  502    0  0.73233261475E+02 -0.87473367009E+02 -0.58059278814E+02  0.12800617320E+03  0.00000000000E+00 0. -1.
         -4    1    3    3    0  502  0.27470355130E+03 -0.68338232406E+03 -0.43049589381E+03  0.85311204218E+03  0.00000000000E+00 0.  1.
         15    1    5    5    0    0 -0.14237671101E+03 -0.27612254894E+02  0.90001395235E+01  0.14531938858E+03  0.17770000000E+01 0. -1.
        -15    1    5    5    0    0 -0.66860240229E+02  0.49612355552E+02 -0.95776410729E+01  0.83824617413E+02  0.17770000000E+01 0.  1.
          4    1    6    6  503    0 -0.10149613028E+03  0.32400993882E+03 -0.27213592518E+03  0.43513430879E+03  0.00000000000E+00 0.  1.
         -4    1    6    6    0  503 -0.37203731260E+02  0.42484565159E+03 -0.28731099923E+03  0.51422325461E+03  0.00000000000E+00 0. -1.
<mgrwt>
<rscale>  0 0.92246619E+03</rscale>
<asrwt>0</asrwt>
<pdfrwt beam="1">  1        2 0.24678457E+00 0.92246619E+03</pdfrwt>
<pdfrwt beam="2">  1       -2 0.85464630E-01 0.92246619E+03</pdfrwt>
<totfact> 0.13272918E+01</totfact>
</mgrwt>
</event>
<event>
12    1  0.9321077E-008  0.1012037E+04  0.7818608E-02  0.9295440E-01
          1   -1    0    0  501    0  0.00000000000E+00  0.00000000000E+00  0.29429969608E+04  0.29429969608E+04  0.00000000000E+00 0. -1.
         -1   -1    0    0    0  501 -0.00000000000E+00 -0.00000000000E+00 -0.39213214762E+03  0.39213214762E+03  0.00000000000E+00 0.  1.
         23    2    1    2    0    0 -0.86770574783E+03 -0.45526562310E+03  0.13752443838E+04  0.16912856160E+04  0.94709383211E+02 0.  0.
    5000000    2    1    2    0    0  0.86770574783E+03  0.45526562310E+03  0.11756204294E+04  0.16438434924E+04  0.59996498336E+03 0.  0.
         23    2    4    4    0    0  0.12065997799E+03  0.20018852245E+03  0.35154829740E+02  0.25361693542E+03  0.91931567310E+02 0.  0.
         23    2    4    4    0    0  0.74704576984E+03  0.25507710065E+03  0.11404655996E+04  0.13902265570E+04  0.94479555348E+02 0.  0.
          1    1    3    3  502    0 -0.30993985562E+03 -0.11398431767E+03  0.44106448329E+03  0.55099275603E+03  0.00000000000E+00 0. -1.
         -1    1    3    3    0  502 -0.55776589221E+03 -0.34128130542E+03  0.93417990053E+03  0.11402928600E+04  0.00000000000E+00 0.  1.
         15    1    5    5    0    0  0.13429633341E+02  0.10478550884E+03 -0.73373947817E+00  0.10566008715E+03  0.17770000000E+01 0. -1.
        -15    1    5    5    0    0  0.10723034465E+03  0.95403013609E+02  0.35888569218E+02  0.14795684827E+03  0.17770000000E+01 0.  1.
          3    1    6    6  503    0  0.54963904447E+03  0.16585487900E+03  0.88956854750E+03  0.10587460134E+04  0.00000000000E+00 0.  1.
         -3    1    6    6    0  503  0.19740672537E+03  0.89222221646E+02  0.25089705212E+03  0.33148054365E+03  0.00000000000E+00 0. -1.
<mgrwt>
<rscale>  0 0.10120372E+04</rscale>
<asrwt>0</asrwt>
<pdfrwt beam="1">  1        1 0.45276875E+00 0.10120372E+04</pdfrwt>
<pdfrwt beam="2">  1       -1 0.60328025E-01 0.10120372E+04</pdfrwt>
<totfact> 0.18783613E+00</totfact>
</mgrwt>
</event>
<event>
12    1  0.9321077E-008  0.7405182E+03  0.7818608E-02  0.9650344E-01
         -2   -1    0    0    0  501 -0.00000000000E+00  0.00000000000E+00  0.26358581212E+03  0.26358581212E+03  0.00000000000E+00 0.  1.
          2   -1    0    0  501    0  0.00000000000E+00 -0.00000000000E+00 -0.22021684658E+04  0.22021684658E+04  0.00000000000E+00 0. -1.
         23    2    1    2    0    0  0.12224291081E+03 -0.62784060928E+03 -0.80406631224E+03  0.10317557813E+04  0.94181728099E+02 0.  0.
    5000000    2    1    2    0    0 -0.12224291081E+03  0.62784060928E+03 -0.11345163414E+04  0.14339984966E+04  0.60008099396E+03 0.  0.
         23    2    4    4    0    0 -0.98573347705E+02 -0.65969443955E+02 -0.85064088157E+02  0.17162002823E+03  0.90271050634E+02 0.  0.
         23    2    4    4    0    0 -0.23669563107E+02  0.69381005324E+03 -0.10494522533E+04  0.12623784683E+04  0.10157129152E+03 0.  0.
          4    1    3    3  502    0  0.74786966115E+02 -0.22020114786E+03 -0.34418252016E+03  0.41538324835E+03  0.00000000000E+00 0. -1.
         -4    1    3    3    0  502  0.47455944697E+02 -0.40763946142E+03 -0.45988379208E+03  0.61637253298E+03  0.00000000000E+00 0.  1.
         15    1    5    5    0    0 -0.18004482506E+02  0.14977925922E+02  0.74394649256E+01  0.24637431332E+02  0.17770000000E+01 0. -1.
        -15    1    5    5    0    0 -0.80568865199E+02 -0.80947369877E+02 -0.92503553083E+02  0.14698259690E+03  0.17770000000E+01 0.  1.
          4    1    6    6  503    0 -0.52474437865E+02  0.24068450923E+03 -0.40528893552E+03  0.47428021345E+03  0.00000000000E+00 0. -1.
         -4    1    6    6    0  503  0.28804874758E+02  0.45312554400E+03 -0.64416331775E+03  0.78809825490E+03  0.00000000000E+00 0.  1.
<mgrwt>
<rscale>  0 0.74051819E+03</rscale>
<asrwt>0</asrwt>
<pdfrwt beam="1">  1        2 0.33879514E+00 0.74051819E+03</pdfrwt>
<pdfrwt beam="2">  1       -2 0.40551664E-01 0.74051819E+03</pdfrwt>
<totfact> 0.30771102E+01</totfact>
</mgrwt>
</event>
<event>
12    1  0.9321077E-008  0.6267158E+03  0.7818608E-02  0.9851479E-01
         -2   -1    0    0    0  501 -0.00000000000E+00  0.00000000000E+00  0.36198344789E+03  0.36198344789E+03  0.00000000000E+00 0.  1.
          2   -1    0    0  501    0  0.00000000000E+00 -0.00000000000E+00 -0.18025749657E+04  0.18025749657E+04  0.00000000000E+00 0. -1.
         23    2    1    2    0    0  0.46839456908E+03 -0.40411922736E+03 -0.20507174998E+03  0.65811400831E+03  0.91399141334E+02 0.  0.
    5000000    2    1    2    0    0 -0.46839456908E+03  0.40411922736E+03 -0.12355197678E+04  0.15064444052E+04  0.60013317458E+03 0.  0.
         23    2    4    4    0    0 -0.24565955963E+03  0.28230318391E+03 -0.19514136680E+03  0.43181698091E+03  0.91334796659E+02 0.  0.
         23    2    4    4    0    0 -0.22273500945E+03  0.12181604345E+03 -0.10403784010E+04  0.10746274243E+04  0.89369183825E+02 0.  0.
          3    1    3    3  502    0  0.20205510817E+03 -0.14546447512E+03 -0.12381958700E+03  0.27806019202E+03  0.00000000000E+00 0. -1.
         -3    1    3    3    0  502  0.26633946091E+03 -0.25865475224E+03 -0.81252162978E+02  0.38005381630E+03  0.00000000000E+00 0.  1.
         15    1    5    5    0    0 -0.47668036830E+02  0.93954858085E+02 -0.20046854536E+02  0.10726038970E+03  0.17770000000E+01 0. -1.
        -15    1    5    5    0    0 -0.19799152280E+03  0.18834832582E+03 -0.17509451227E+03  0.32455659121E+03  0.17770000000E+01 0.  1.
          2    1    6    6  503    0 -0.14891286967E+03  0.71329758760E+02 -0.49105912510E+03  0.51807532424E+03  0.00000000000E+00 0.  1.
         -2    1    6    6    0  503 -0.73822139772E+02  0.50486284689E+02 -0.54931927588E+03  0.55655210009E+03  0.00000000000E+00 0. -1.
<mgrwt>
<rscale>  0 0.62671576E+03</rscale>
<asrwt>0</asrwt>
<pdfrwt beam="1">  1        2 0.27731923E+00 0.62671576E+03</pdfrwt>
<pdfrwt beam="2">  1       -2 0.55689761E-01 0.62671576E+03</pdfrwt>
<totfact> 0.27272031E+01</totfact>
</mgrwt>
</event>
<event>
12    1  0.1255924E-007  0.1108402E+04  0.7818608E-02  0.9197041E-01
         -2   -1    0    0    0  501 -0.00000000000E+00  0.00000000000E+00  0.88822669427E+03  0.88822669427E+03  0.00000000000E+00 0.  1.
          2   -1    0    0  501    0  0.00000000000E+00 -0.00000000000E+00 -0.19482431968E+04  0.19482431968E+04  0.00000000000E+00 0. -1.
         23    2    1    2    0    0 -0.50198720693E+03 -0.91987130008E+03  0.22203758378E+03  0.10752791522E+04  0.93649356682E+02 0.  0.
    5000000    2    1    2    0    0  0.50198720693E+03  0.91987130008E+03 -0.12820540863E+04  0.17611907388E+04  0.59997981105E+03 0.  0.
         23    2    4    4    0    0 -0.63252678418E+02  0.34776491431E+03 -0.22167084172E+03  0.42707072496E+03  0.91159777833E+02 0.  0.
         23    2    4    4    0    0  0.56523988535E+03  0.57210638577E+03 -0.10603832446E+04  0.13341200139E+04  0.93068476753E+02 0.  0.
          2    1    3    3  502    0 -0.14922173244E+03 -0.26347811469E+03  0.10766599602E+03  0.32137176144E+03  0.00000000000E+00 0. -1.
         -2    1    3    3    0  502 -0.35276547449E+03 -0.65639318539E+03  0.11437158776E+03  0.75390739080E+03  0.00000000000E+00 0.  1.
         15    1    5    5    0    0 -0.80551765936E+02  0.20054310796E+03 -0.14409071486E+03  0.25975260727E+03  0.17770000000E+01 0.  1.
        -15    1    5    5    0    0  0.17299087518E+02  0.14722180635E+03 -0.77580126858E+02  0.16731811768E+03  0.17770000000E+01 0. -1.
          4    1    6    6  503    0  0.16125130178E+03  0.17528303576E+03 -0.24799803170E+03  0.34384465777E+03  0.00000000000E+00 0. -1.
         -4    1    6    6    0  503  0.40398858357E+03  0.39682335001E+03 -0.81238521290E+03  0.99027535610E+03  0.00000000000E+00 0.  1.
<mgrwt>
<rscale>  0 0.11084024E+04</rscale>
<asrwt>0</asrwt>
<pdfrwt beam="1">  1        2 0.29972972E+00 0.11084024E+04</pdfrwt>
<pdfrwt beam="2">  1       -2 0.13665026E+00 0.11084024E+04</pdfrwt>
<totfact> 0.26871578E+00</totfact>
</mgrwt>
</event>
<event>
12    1  0.9321077E-008  0.8137783E+03  0.7818608E-02  0.9540285E-01
          2   -1    0    0  501    0  0.00000000000E+00  0.00000000000E+00  0.19970324940E+04  0.19970324940E+04  0.00000000000E+00 0.  1.
         -2   -1    0    0    0  501 -0.00000000000E+00 -0.00000000000E+00 -0.39799881846E+03  0.39799881846E+03  0.00000000000E+00 0. -1.
         23    2    1    2    0    0 -0.27886217726E+03 -0.65828774959E+03  0.26766423806E+03  0.76933027176E+03  0.95488468096E+02 0.  0.
    5000000    2    1    2    0    0  0.27886217726E+03  0.65828774959E+03  0.13313694375E+04  0.16257010407E+04  0.59937669253E+03 0.  0.
         23    2    4    4    0    0  0.44396583994E+03  0.39784340789E+03  0.76494002122E+03  0.97405438125E+03  0.90904660654E+02 0.  0.
         23    2    4    4    0    0 -0.16510366268E+03  0.26044434170E+03  0.56642941624E+03  0.65164665945E+03  0.93330652170E+02 0.  0.
          4    1    3    3  502    0 -0.16783794479E+03 -0.31987594570E+03  0.94958241981E+02  0.37350671221E+03  0.00000000000E+00 0. -1.
         -4    1    3    3    0  502 -0.11102423247E+03 -0.33841180389E+03  0.17270599608E+03  0.39582355954E+03  0.00000000000E+00 0.  1.
         15    1    5    5    0    0  0.80459034831E+02  0.74167875498E+02  0.88754766467E+02  0.14090811311E+03  0.17770000000E+01 0. -1.
        -15    1    5    5    0    0  0.36350680511E+03  0.32367553239E+03  0.67618525476E+03  0.83314626814E+03  0.17770000000E+01 0.  1.
          2    1    6    6  503    0 -0.13703538616E+03  0.24788419584E+03  0.45417938443E+03  0.53526085683E+03  0.00000000000E+00 0. -1.
         -2    1    6    6    0  503 -0.28068276515E+02  0.12560145857E+02  0.11225003181E+03  0.11638580262E+03  0.00000000000E+00 0.  1.
<mgrwt>
<rscale>  0 0.81377831E+03</rscale>
<asrwt>0</asrwt>
<pdfrwt beam="1">  1        2 0.30723576E+00 0.81377831E+03</pdfrwt>
<pdfrwt beam="2">  1       -2 0.61230589E-01 0.81377831E+03</pdfrwt>
<totfact> 0.17061754E+01</totfact>
</mgrwt>
</event>
<event>
12    1  0.9321077E-008  0.3255225E+03  0.7818608E-02  0.1073135E+00
         -3   -1    0    0    0  501 -0.00000000000E+00  0.00000000000E+00  0.10401661266E+03  0.10401661266E+03  0.00000000000E+00 0.  1.
          3   -1    0    0  501    0  0.00000000000E+00 -0.00000000000E+00 -0.18664754817E+04  0.18664754817E+04  0.00000000000E+00 0. -1.
         23    2    1    2    0    0 -0.21862542769E+03 -0.24247295901E+02 -0.40660610958E+03  0.47159293750E+03  0.93200651070E+02 0.  0.
    5000000    2    1    2    0    0  0.21862542769E+03  0.24247295901E+02 -0.13558527594E+04  0.14988991568E+04  0.59998080645E+03 0.  0.
         23    2    4    4    0    0  0.19479945478E+03  0.16041121413E+03 -0.20844432684E+03  0.33980878104E+03  0.91336657914E+02 0.  0.
         23    2    4    4    0    0  0.23825972907E+02 -0.13616391823E+03 -0.11474084326E+04  0.11590903758E+04  0.88521739986E+02 0.  0.
          3    1    3    3  502    0 -0.36845432895E+02 -0.26731393773E+02 -0.33390001801E+02  0.56453924209E+02  0.00000000000E+00 0. -1.
         -3    1    3    3    0  502 -0.18177999479E+03  0.24840978725E+01 -0.37321610778E+03  0.41513901329E+03  0.00000000000E+00 0.  1.
         15    1    5    5    0    0  0.37958649850E+02  0.85333894582E+02 -0.58687434035E+02  0.11031820025E+03  0.17770000000E+01 0.  1.
        -15    1    5    5    0    0  0.15684080493E+03  0.75077319552E+02 -0.14975689280E+03  0.22949058079E+03  0.17770000000E+01 0. -1.
          4    1    6    6  503    0  0.21824304864E+02 -0.14537061819E+03 -0.93607310315E+03  0.94754512893E+03  0.00000000000E+00 0.  1.
         -4    1    6    6    0  503  0.20016680430E+01  0.92066999553E+01 -0.21133532942E+03  0.21154524684E+03  0.00000000000E+00 0. -1.
<mgrwt>
<rscale>  0 0.32552246E+03</rscale>
<asrwt>0</asrwt>
<pdfrwt beam="1">  1        3 0.28715006E+00 0.32552246E+03</pdfrwt>
<pdfrwt beam="2">  1       -3 0.16002556E-01 0.32552246E+03</pdfrwt>
<totfact> 0.42627112E+00</totfact>
</mgrwt>
</event>
<event>
12    1  0.9321077E-008  0.6106395E+03  0.7818608E-02  0.9883575E-01
         -1   -1    0    0    0  501 -0.00000000000E+00  0.00000000000E+00  0.37169933020E+03  0.37169933020E+03  0.00000000000E+00 0.  1.
          1   -1    0    0  501    0  0.00000000000E+00 -0.00000000000E+00 -0.10905014164E+04  0.10905014164E+04  0.00000000000E+00 0. -1.
         23    2    1    2    0    0  0.13258540670E+03  0.45034193073E+03 -0.12212399842E+03  0.49355899109E+03  0.91101383407E+02 0.  0.
    5000000    2    1    2    0    0 -0.13258540670E+03 -0.45034193073E+03 -0.59667808773E+03  0.96864175546E+03  0.60154415084E+03 0.  0.
         23    2    4    4    0    0  0.20775256051E+03 -0.29194189747E+03 -0.36368974990E+03  0.51801198421E+03  0.87606984334E+02 0.  0.
         23    2    4    4    0    0 -0.34033796721E+03 -0.15840003326E+03 -0.23298833783E+03  0.45062977125E+03  0.88674250547E+02 0.  0.
          1    1    3    3  502    0  0.75271051330E+02  0.22512557439E+03 -0.10784616176E+03  0.26072600565E+03  0.00000000000E+00 0. -1.
         -1    1    3    3    0  502  0.57314355371E+02  0.22521635634E+03 -0.14277836658E+02  0.23283298545E+03  0.00000000000E+00 0.  1.
         15    1    5    5    0    0  0.97968202148E+01 -0.71700837117E+02 -0.62705644847E+02  0.95771307573E+02  0.17770000000E+01 0.  1.
        -15    1    5    5    0    0  0.19795574030E+03 -0.22024106035E+03 -0.30098410505E+03  0.42224067664E+03  0.17770000000E+01 0. -1.
          1    1    6    6  503    0 -0.19365753343E+03 -0.48326373478E+02 -0.94569931565E+02  0.22086681639E+03  0.00000000000E+00 0. -1.
         -1    1    6    6    0  503 -0.14668043379E+03 -0.11007365978E+03 -0.13841840626E+03  0.22976295486E+03  0.00000000000E+00 0.  1.
<mgrwt>
<rscale>  0 0.61063948E+03</rscale>
<asrwt>0</asrwt>
<pdfrwt beam="1">  1        1 0.16776945E+00 0.61063948E+03</pdfrwt>
<pdfrwt beam="2">  1       -1 0.57184513E-01 0.61063948E+03</pdfrwt>
<totfact> 0.41622224E+01</totfact>
</mgrwt>
</event>
<event>
12    1  0.9321077E-008  0.9817044E+03  0.7818608E-02  0.9328842E-01
         -2   -1    0    0    0  501 -0.00000000000E+00  0.00000000000E+00  0.15059195028E+04  0.15059195028E+04  0.00000000000E+00 0.  1.
          2   -1    0    0  501    0  0.00000000000E+00 -0.00000000000E+00 -0.81769776327E+03  0.81769776327E+03  0.00000000000E+00 0. -1.
         23    2    1    2    0    0  0.10030745573E+02  0.97413463005E+03  0.65902768715E+03  0.11796414382E+04  0.90540251016E+02 0.  0.
    5000000    2    1    2    0    0 -0.10030745573E+02 -0.97413463005E+03  0.29194052434E+02  0.11439758279E+04  0.59899040791E+03 0.  0.
         23    2    4    4    0    0 -0.62936718823E+02 -0.61119156753E+03  0.28897422514E+03  0.68511381237E+03  0.91425763924E+02 0.  0.
         23    2    4    4    0    0  0.52905973250E+02 -0.36294306252E+03 -0.25978017271E+03  0.45886201552E+03  0.92422413476E+02 0.  0.
          3    1    3    3  502    0 -0.14079931983E+02  0.78789864553E+03  0.49740011235E+03  0.93187412877E+03  0.00000000000E+00 0. -1.
         -3    1    3    3    0  502  0.24110677555E+02  0.18623598452E+03  0.16162757480E+03  0.24776730946E+03  0.00000000000E+00 0.  1.
         15    1    5    5    0    0 -0.85263135415E+02 -0.47117425927E+03  0.23503578723E+03  0.53340412809E+03  0.17770000000E+01 0. -1.
        -15    1    5    5    0    0  0.22326416592E+02 -0.14001730826E+03  0.53938437914E+02  0.15170968428E+03  0.17770000000E+01 0.  1.
          3    1    6    6  503    0  0.48395234527E+02 -0.30158681588E+03 -0.16865817388E+03  0.34891587217E+03  0.00000000000E+00 0. -1.
         -3    1    6    6    0  503  0.45107387235E+01 -0.61356246646E+02 -0.91121998829E+02  0.10994614335E+03  0.00000000000E+00 0.  1.
<mgrwt>
<rscale>  0 0.98170443E+03</rscale>
<asrwt>0</asrwt>
<pdfrwt beam="1">  1        2 0.12579966E+00 0.98170443E+03</pdfrwt>
<pdfrwt beam="2">  1       -2 0.23167992E+00 0.98170443E+03</pdfrwt>
<totfact> 0.27844012E+00</totfact>
</mgrwt>
</event>
<event>
12    1  0.9321077E-008  0.1621279E+04  0.7818608E-02  0.8807581E-01
          1   -1    0    0  501    0  0.00000000000E+00  0.00000000000E+00  0.31863086286E+04  0.31863086286E+04  0.00000000000E+00 0. -1.
         -1   -1    0    0    0  501 -0.00000000000E+00 -0.00000000000E+00 -0.84026345150E+03  0.84026345150E+03  0.00000000000E+00 0.  1.
         23    2    1    2    0    0 -0.15639510915E+04  0.20113215283E+03  0.10043959325E+04  0.18710132682E+04  0.74042564338E+02 0.  0.
    5000000    2    1    2    0    0  0.15639510915E+04 -0.20113215283E+03  0.13416492446E+04  0.21555588118E+04  0.60001161353E+03 0.  0.
         23    2    4    4    0    0  0.36759812971E+03 -0.28168689025E+03  0.50138152360E+03  0.68859178347E+03  0.91100619872E+02 0.  0.
         23    2    4    4    0    0  0.11963529618E+04  0.80554737425E+02  0.84026772099E+03  0.14669670284E+04  0.90514885853E+02 0.  0.
          2    1    3    3  502    0 -0.91317891973E+03  0.80923201060E+02  0.58899688252E+03  0.10896612462E+04  0.00000000000E+00 0.  1.
         -2    1    3    3    0  502 -0.65077217174E+03  0.12020895177E+03  0.41539904998E+03  0.78135202202E+03  0.00000000000E+00 0. -1.
         15    1    5    5    0    0  0.11722745078E+03 -0.68886387043E+02  0.20550377153E+03  0.24641949472E+03  0.17770000000E+01 0.  1.
        -15    1    5    5    0    0  0.25037067893E+03 -0.21280050321E+03  0.29587775207E+03  0.44217228875E+03  0.17770000000E+01 0. -1.
          1    1    6    6  503    0  0.90802229073E+03  0.48111154722E+02  0.68050243329E+03  0.11357388456E+04  0.00000000000E+00 0. -1.
         -1    1    6    6    0  503  0.28833067102E+03  0.32443582703E+02  0.15976528770E+03  0.33122818278E+03  0.00000000000E+00 0.  1.
<mgrwt>
<rscale>  0 0.16212789E+04</rscale>
<asrwt>0</asrwt>
<pdfrwt beam="1">  1        1 0.49020132E+00 0.16212789E+04</pdfrwt>
<pdfrwt beam="2">  1       -1 0.12927130E+00 0.16212789E+04</pdfrwt>
<totfact> 0.21097519E-01</totfact>
</mgrwt>
</event>
<event>
12    1  0.9321077E-008  0.7563119E+03  0.7818608E-02  0.9625500E-01
          2   -1    0    0  501    0  0.00000000000E+00  0.00000000000E+00  0.56958589434E+03  0.56958589434E+03  0.00000000000E+00 0. -1.
         -2   -1    0    0    0  501 -0.00000000000E+00 -0.00000000000E+00 -0.15764211892E+04  0.15764211892E+04  0.00000000000E+00 0.  1.
         23    2    1    2    0    0  0.64380726799E+03 -0.99992384028E+02  0.16388912772E+03  0.67803933188E+03  0.91604662611E+02 0.  0.
    5000000    2    1    2    0    0 -0.64380726799E+03  0.99992384028E+02 -0.11707244225E+04  0.14679677516E+04  0.59987279577E+03 0.  0.
         23    2    4    4    0    0  0.86201694611E+02  0.39388244403E+02 -0.30021593954E+03  0.32669355728E+03  0.87274876479E+02 0.  0.
         23    2    4    4    0    0 -0.73000896260E+03  0.60604139625E+02 -0.87050848300E+03  0.11412741943E+04  0.90198783164E+02 0.  0.
          1    1    3    3  502    0  0.50390738595E+03 -0.10030100082E+03  0.15983612240E+03  0.53808041258E+03  0.00000000000E+00 0. -1.
         -1    1    3    3    0  502  0.13989988203E+03  0.30861679370E+00  0.40530053192E+01  0.13995891929E+03  0.00000000000E+00 0.  1.
         15    1    5    5    0    0  0.15211143015E+02  0.49455321020E+02 -0.81838919953E+02  0.96839941125E+02  0.17770000000E+01 0.  1.
        -15    1    5    5    0    0  0.70990551597E+02 -0.10067076617E+02 -0.21837701958E+03  0.22985361615E+03  0.17770000000E+01 0. -1.
          4    1    6    6  503    0 -0.24765733898E+03  0.51731796989E+02 -0.25479951609E+03  0.35907259680E+03  0.00000000000E+00 0.  1.
         -4    1    6    6    0  503 -0.48235162362E+03  0.88723426352E+01 -0.61570896691E+03  0.78220159754E+03  0.00000000000E+00 0. -1.
<mgrwt>
<rscale>  0 0.75631192E+03</rscale>
<asrwt>0</asrwt>
<pdfrwt beam="1">  1        2 0.87628601E-01 0.75631192E+03</pdfrwt>
<pdfrwt beam="2">  1       -2 0.24252633E+00 0.75631192E+03</pdfrwt>
<totfact> 0.38755639E+00</totfact>
</mgrwt>
</event>
<event>
12    1  0.9321077E-008  0.7838346E+03  0.7818608E-02  0.9583715E-01
         -2   -1    0    0    0  501 -0.00000000000E+00  0.00000000000E+00  0.92392244858E+03  0.92392244858E+03  0.00000000000E+00 0.  1.
          2   -1    0    0  501    0  0.00000000000E+00 -0.00000000000E+00 -0.99090901587E+03  0.99090901587E+03  0.00000000000E+00 0. -1.
         23    2    1    2    0    0  0.47185987526E+03  0.59908667206E+03 -0.42855546132E+03  0.87933061828E+03  0.89476087829E+02 0.  0.
    5000000    2    1    2    0    0 -0.47185987526E+03 -0.59908667206E+03  0.36156889403E+03  0.10355008462E+04  0.59997779523E+03 0.  0.
         23    2    4    4    0    0 -0.25574659002E+03 -0.49689686501E+03 -0.31264002897E+02  0.56638821936E+03  0.86633506148E+02 0.  0.
         23    2    4    4    0    0 -0.21611328523E+03 -0.10218980705E+03  0.39283289693E+03  0.46911262682E+03  0.92742994380E+02 0.  0.
          3    1    3    3  502    0  0.18902161058E+03  0.28449857699E+03 -0.15163102062E+03  0.37371188901E+03  0.00000000000E+00 0. -1.
         -3    1    3    3    0  502  0.28283826467E+03  0.31458809507E+03 -0.27692444070E+03  0.50561872926E+03  0.00000000000E+00 0.  1.
         15    1    5    5    0    0 -0.23251691783E+03 -0.45598850744E+03 -0.37614882205E+01  0.51186613730E+03  0.17770000000E+01 0.  1.
        -15    1    5    5    0    0 -0.23229672197E+02 -0.40908357565E+02 -0.27502514677E+02  0.54522082055E+02  0.17770000000E+01 0. -1.
          3    1    6    6  503    0 -0.10121233297E+03 -0.20807531664E+02  0.24004634009E+03  0.26134103220E+03  0.00000000000E+00 0. -1.
         -3    1    6    6    0  503 -0.11490095227E+03 -0.81382275391E+02  0.15278655684E+03  0.20777159462E+03  0.00000000000E+00 0.  1.
<mgrwt>
<rscale>  0 0.78383461E+03</rscale>
<asrwt>0</asrwt>
<pdfrwt beam="1">  1        2 0.15244754E+00 0.78383461E+03</pdfrwt>
<pdfrwt beam="2">  1       -2 0.14214192E+00 0.78383461E+03</pdfrwt>
<totfact> 0.89348431E+00</totfact>
</mgrwt>
</event>
<event>
12    1  0.9321077E-008  0.6208499E+03  0.7818608E-02  0.9863069E-01
         -2   -1    0    0    0  501 -0.00000000000E+00  0.00000000000E+00  0.11569401639E+04  0.11569401639E+04  0.00000000000E+00 0. -1.
          2   -1    0    0  501    0  0.00000000000E+00 -0.00000000000E+00 -0.18415992638E+04  0.18415992638E+04  0.00000000000E+00 0.  1.
         23    2    1    2    0    0 -0.17613198325E+03  0.53707500079E+03  0.98377520093E+03  0.11376028818E+04  0.82792745946E+02 0.  0.
    5000000    2    1    2    0    0  0.17613198325E+03 -0.53707500079E+03 -0.16684343009E+04  0.18609365458E+04  0.59994981394E+03 0.  0.
         23    2    4    4    0    0  0.18066101955E+03 -0.57009821541E+03 -0.88408599166E+03  0.10705966573E+04  0.83179220518E+02 0.  0.
         23    2    4    4    0    0 -0.45290362957E+01  0.33023214614E+02 -0.78434830923E+03  0.79033988856E+03  0.91234995394E+02 0.  0.
          3    1    3    3  502    0 -0.80903763156E+02  0.27778204269E+03  0.58317953810E+03  0.65100434391E+03  0.00000000000E+00 0. -1.
         -3    1    3    3    0  502 -0.95228220099E+02  0.25929295811E+03  0.40059566282E+03  0.48659853791E+03  0.00000000000E+00 0.  1.
         15    1    5    5    0    0 -0.50218233334E+01 -0.71693765767E+02 -0.10886513969E+03  0.13046068806E+03  0.17770000000E+01 0. -1.
        -15    1    5    5    0    0  0.18568284288E+03 -0.49840444964E+03 -0.77522085196E+03  0.94013596921E+03  0.17770000000E+01 0.  1.
          3    1    6    6  503    0  0.52066093432E+01  0.51360588376E+02 -0.23517949885E+03  0.24077876879E+03  0.00000000000E+00 0. -1.
         -3    1    6    6    0  503 -0.97356456390E+01 -0.18337373763E+02 -0.54916881038E+03  0.54956111977E+03  0.00000000000E+00 0.  1.
<mgrwt>
<rscale>  0 0.62084992E+03</rscale>
<asrwt>0</asrwt>
<pdfrwt beam="1">  1        2 0.28332296E+00 0.62084992E+03</pdfrwt>
<pdfrwt beam="2">  1       -2 0.17799079E+00 0.62084992E+03</pdfrwt>
<totfact> 0.16315423E+00</totfact>
</mgrwt>
</event>
<event>
12    1  0.9321077E-008  0.6037744E+03  0.7818608E-02  0.9897606E-01
         -2   -1    0    0    0  501 -0.00000000000E+00  0.00000000000E+00  0.85215394657E+03  0.85215394657E+03  0.00000000000E+00 0.  1.
          2   -1    0    0  501    0  0.00000000000E+00 -0.00000000000E+00 -0.56653218001E+03  0.56653218001E+03  0.00000000000E+00 0. -1.
         23    2    1    2    0    0  0.45999192431E+03  0.23061010587E+02 -0.21027775656E+03  0.51427844837E+03  0.90228636897E+02 0.  0.
    5000000    2    1    2    0    0 -0.45999192431E+03 -0.23061010587E+02  0.49589952312E+03  0.90440767821E+03  0.59992710451E+03 0.  0.
         23    2    4    4    0    0  0.94487937152E+02 -0.12349703682E+03  0.75667805476E+02  0.19546693360E+03  0.91116502199E+02 0.  0.
         23    2    4    4    0    0 -0.55447986146E+03  0.10043602624E+03  0.42023171765E+03  0.70894074461E+03  0.92016143769E+02 0.  0.
          3    1    3    3  502    0  0.12285093160E+03  0.43510786895E+02 -0.42066853726E+02  0.13694948030E+03  0.00000000000E+00 0. -1.
         -3    1    3    3    0  502  0.33714099271E+03 -0.20449776308E+02 -0.16821090283E+03  0.37732896808E+03  0.00000000000E+00 0.  1.
         15    1    5    5    0    0  0.83737269071E+02 -0.13306990812E+03  0.84483070873E+02  0.17849391495E+03  0.17770000000E+01 0. -1.
        -15    1    5    5    0    0  0.10750668080E+02  0.95728713005E+01 -0.88152653973E+01  0.16973018651E+02  0.17770000000E+01 0.  1.
          2    1    6    6  503    0 -0.39492148444E+03  0.39381688031E+02  0.32748212347E+03  0.51454682723E+03  0.00000000000E+00 0. -1.
         -2    1    6    6    0  503 -0.15955837703E+03  0.61054338205E+02  0.92749594181E+02  0.19439391738E+03  0.00000000000E+00 0.  1.
<mgrwt>
<rscale>  0 0.60377440E+03</rscale>
<asrwt>0</asrwt>
<pdfrwt beam="1">  1        2 0.87158797E-01 0.60377440E+03</pdfrwt>
<pdfrwt beam="2">  1       -2 0.13110061E+00 0.60377440E+03</pdfrwt>
<totfact> 0.23209278E+01</totfact>
</mgrwt>
</event>
<event>
12    1  0.9321077E-008  0.3937556E+03  0.7818608E-02  0.1045964E+00
         -1   -1    0    0    0  501 -0.00000000000E+00  0.00000000000E+00  0.19019322549E+03  0.19019322549E+03  0.00000000000E+00 0.  1.
          1   -1    0    0  501    0  0.00000000000E+00 -0.00000000000E+00 -0.17659568003E+04  0.17659568003E+04  0.00000000000E+00 0. -1.
         23    2    1    2    0    0  0.22535582801E+03  0.21048931984E+03 -0.10263343729E+03  0.33615653659E+03  0.85887086676E+02 0.  0.
    5000000    2    1    2    0    0 -0.22535582801E+03 -0.21048931984E+03 -0.14731301375E+04  0.16199934892E+04  0.59931252283E+03 0.  0.
         23    2    4    4    0    0  0.53775778033E+02  0.37585412670E+02 -0.16135006361E+02  0.11302416463E+03  0.90606985445E+02 0.  0.
         23    2    4    4    0    0 -0.27913160605E+03 -0.24807473251E+03 -0.14569951311E+04  0.15069693246E+04  0.93092462616E+02 0.  0.
          3    1    3    3  502    0  0.11532872207E+03  0.15176653459E+03 -0.90024687302E+02  0.21080379380E+03  0.00000000000E+00 0. -1.
         -3    1    3    3    0  502  0.11002710595E+03  0.58722785246E+02 -0.12608749993E+02  0.12535274280E+03  0.00000000000E+00 0.  1.
         15    1    5    5    0    0 -0.22821509320E+01  0.32140259063E+02 -0.40371000486E+02  0.51683458424E+02  0.17770000000E+01 0. -1.
        -15    1    5    5    0    0  0.56057928965E+02  0.54451536074E+01  0.24235994125E+02  0.61340706206E+02  0.17770000000E+01 0.  1.
          3    1    6    6  503    0 -0.14533106254E+03 -0.71359267715E+02 -0.67704614073E+03  0.69613557552E+03  0.00000000000E+00 0. -1.
         -3    1    6    6    0  503 -0.13380054350E+03 -0.17671546479E+03 -0.77994899042E+03  0.81083374905E+03  0.00000000000E+00 0.  1.
<mgrwt>
<rscale>  0 0.39375565E+03</rscale>
<asrwt>0</asrwt>
<pdfrwt beam="1">  1        1 0.27168567E+00 0.39375565E+03</pdfrwt>
<pdfrwt beam="2">  1       -1 0.29260496E-01 0.39375565E+03</pdfrwt>
<totfact> 0.49960806E+01</totfact>
</mgrwt>
</event>
<event>
12    1  0.9321077E-008  0.3842528E+03  0.7818608E-02  0.1049373E+00
         -2   -1    0    0    0  501 -0.00000000000E+00  0.00000000000E+00  0.89153891143E+02  0.89153891143E+02  0.00000000000E+00 0. -1.
          2   -1    0    0  501    0  0.00000000000E+00 -0.00000000000E+00 -0.28040692593E+04  0.28040692593E+04  0.00000000000E+00 0.  1.
         23    2    1    2    0    0 -0.28651247826E+03 -0.66177745997E+02 -0.11725371067E+04  0.12122749223E+04  0.91095150084E+02 0.  0.
    5000000    2    1    2    0    0  0.28651247826E+03  0.66177745997E+02 -0.15423782615E+04  0.16809482281E+04  0.60015610472E+03 0.  0.
         23    2    4    4    0    0  0.23854124288E+03 -0.10315355360E+03 -0.24468690196E+03  0.36805677649E+03  0.89730321289E+02 0.  0.
         23    2    4    4    0    0  0.47971235383E+02  0.16933129960E+03 -0.12976913595E+04  0.13128914517E+04  0.93310079098E+02 0.  0.
          1    1    3    3  502    0 -0.27738688058E+03 -0.70593828355E+02 -0.10199443675E+04  0.10593457806E+04  0.00000000000E+00 0. -1.
         -1    1    3    3    0  502 -0.91255976767E+01  0.44160823583E+01 -0.15259273921E+03  0.15292914168E+03  0.00000000000E+00 0.  1.
         15    1    5    5    0    0  0.22499006790E+03 -0.11858136704E+03 -0.22637606396E+03  0.34048693268E+03  0.17770000000E+01 0. -1.
        -15    1    5    5    0    0  0.13551174978E+02  0.15427813437E+02 -0.18310837997E+02  0.27569843813E+02  0.17770000000E+01 0.  1.
          1    1    6    6  503    0 -0.21081496101E+02  0.88064246093E+02 -0.50433575870E+03  0.51240052540E+03  0.00000000000E+00 0. -1.
         -1    1    6    6    0  503  0.69052731484E+02  0.81267053509E+02 -0.79335560079E+03  0.80049092625E+03  0.00000000000E+00 0.  1.
<mgrwt>
<rscale>  0 0.38425277E+03</rscale>
<asrwt>0</asrwt>
<pdfrwt beam="1">  1        2 0.43139522E+00 0.38425277E+03</pdfrwt>
<pdfrwt beam="2">  1       -2 0.13715985E-01 0.38425277E+03</pdfrwt>
<totfact> 0.10454208E+02</totfact>
</mgrwt>
</event>
<event>
12    1  0.9321077E-008  0.5161754E+03  0.7818608E-02  0.1009641E+00
          1   -1    0    0  501    0  0.00000000000E+00  0.00000000000E+00  0.10035922213E+04  0.10035922213E+04  0.00000000000E+00 0. -1.
         -1   -1    0    0    0  501 -0.00000000000E+00 -0.00000000000E+00 -0.29732315581E+03  0.29732315581E+03  0.00000000000E+00 0.  1.
         23    2    1    2    0    0  0.25791177946E+03  0.24185979115E+03  0.39524257469E+03  0.53817094551E+03  0.91633122724E+02 0.  0.
    5000000    2    1    2    0    0 -0.25791177946E+03 -0.24185979115E+03  0.31102649078E+03  0.76274443157E+03  0.60002245405E+03 0.  0.
         23    2    4    4    0    0 -0.42682266803E+03 -0.23665617539E+03  0.17235352227E+03  0.52596137382E+03  0.93519488998E+02 0.  0.
         23    2    4    4    0    0  0.16891088857E+03 -0.52036157683E+01  0.13867296851E+03  0.23678305775E+03  0.90983835654E+02 0.  0.
          2    1    3    3  502    0  0.20719442947E+02  0.55470242084E+02  0.99080101270E+02  0.11542577503E+03  0.00000000000E+00 0. -1.
         -2    1    3    3    0  502  0.23719233651E+03  0.18638954907E+03  0.29616247342E+03  0.42274517048E+03  0.00000000000E+00 0.  1.
         15    1    5    5    0    0 -0.19833196702E+03 -0.12661271726E+03  0.13001256645E+03  0.26883596202E+03  0.17770000000E+01 0. -1.
        -15    1    5    5    0    0 -0.22849070101E+03 -0.11004345813E+03  0.42340955823E+02  0.25712541180E+03  0.17770000000E+01 0.  1.
          3    1    6    6  503    0  0.16308000947E+03  0.12843428041E+02  0.94998937162E+02  0.18916881666E+03  0.00000000000E+00 0. -1.
         -3    1    6    6    0  503  0.58308790952E+01 -0.18047043809E+02  0.43674031344E+02  0.47614241096E+02  0.00000000000E+00 0.  1.
<mgrwt>
<rscale>  0 0.51617543E+03</rscale>
<asrwt>0</asrwt>
<pdfrwt beam="1">  1        1 0.15439880E+00 0.51617543E+03</pdfrwt>
<pdfrwt beam="2">  1       -1 0.45742024E-01 0.51617543E+03</pdfrwt>
<totfact> 0.74777440E+01</totfact>
</mgrwt>
</event>
<event>
12    1  0.9321077E-008  0.3760646E+03  0.7818608E-02  0.1052398E+00
          1   -1    0    0  501    0  0.00000000000E+00  0.00000000000E+00  0.19168903340E+03  0.19168903340E+03  0.00000000000E+00 0. -1.
         -1   -1    0    0    0  501 -0.00000000000E+00 -0.00000000000E+00 -0.27138043077E+04  0.27138043077E+04  0.00000000000E+00 0.  1.
         23    2    1    2    0    0 -0.18890056521E+03  0.12768138299E+03 -0.21497584206E+04  0.21636014004E+04  0.87885116837E+02 0.  0.
    5000000    2    1    2    0    0  0.18890056521E+03 -0.12768138299E+03 -0.37235685371E+03  0.74189194072E+03  0.59980669061E+03 0.  0.
         23    2    4    4    0    0  0.28104188818E+03 -0.22988169728E+03 -0.42506253657E+03  0.56623178848E+03  0.90056319227E+02 0.  0.
         23    2    4    4    0    0 -0.92141322964E+02  0.10220031429E+03  0.52705682864E+02  0.17566015224E+03  0.95622551937E+02 0.  0.
          3    1    3    3  502    0 -0.78378954850E+02  0.10229542587E+03 -0.12831091652E+04  0.12895645562E+04  0.00000000000E+00 0. -1.
         -3    1    3    3    0  502 -0.11052161036E+03  0.25385957115E+02 -0.86664925534E+03  0.87403684417E+03  0.00000000000E+00 0.  1.
         15    1    5    5    0    0  0.21155254408E+03 -0.18735035506E+03 -0.37856594033E+03  0.47240868255E+03  0.17770000000E+01 0.  1.
        -15    1    5    5    0    0  0.69489344098E+02 -0.42531342225E+02 -0.46496596248E+02  0.93823105930E+02  0.17770000000E+01 0. -1.
          2    1    6    6  503    0 -0.77761154064E+02  0.51971782910E+02 -0.99746672968E+01  0.94060391706E+02  0.00000000000E+00 0. -1.
         -2    1    6    6    0  503 -0.14380168900E+02  0.50228531385E+02  0.62680350161E+02  0.81599760533E+02  0.00000000000E+00 0.  1.
<mgrwt>
<rscale>  0 0.37606461E+03</rscale>
<asrwt>0</asrwt>
<pdfrwt beam="1">  1        1 0.29490623E-01 0.37606461E+03</pdfrwt>
<pdfrwt beam="2">  1       -1 0.41750833E+00 0.37606461E+03</pdfrwt>
<totfact> 0.99866286E-01</totfact>
</mgrwt>
</event>
<event>
12    1  0.9321077E-008  0.5706747E+03  0.7818608E-02  0.9968187E-01
          2   -1    0    0  501    0  0.00000000000E+00  0.00000000000E+00  0.39557480970E+03  0.39557480970E+03  0.00000000000E+00 0. -1.
         -2   -1    0    0    0  501 -0.00000000000E+00 -0.00000000000E+00 -0.87690583299E+03  0.87690583299E+03  0.00000000000E+00 0.  1.
         23    2    1    2    0    0 -0.31549708750E+03 -0.27751556922E+03 -0.79472163260E+02  0.43700140898E+03  0.90006129454E+02 0.  0.
    5000000    2    1    2    0    0  0.31549708750E+03  0.27751556922E+03 -0.40185886003E+03  0.83547923371E+03  0.59998475247E+03 0.  0.
         23    2    4    4    0    0  0.32009315453E+03  0.43606706596E+03 -0.30253960744E+03  0.62649714910E+03  0.91402134383E+02 0.  0.
         23    2    4    4    0    0 -0.45960670323E+01 -0.15855149674E+03 -0.99319252591E+02  0.20898208461E+03  0.93002670936E+02 0.  0.
          3    1    3    3  502    0 -0.21862614040E+03 -0.14003993650E+03 -0.68239505913E+02  0.26844962888E+03  0.00000000000E+00 0. -1.
         -3    1    3    3    0  502 -0.96870947103E+02 -0.13747563271E+03 -0.11232657347E+02  0.16855178010E+03  0.00000000000E+00 0.  1.
         15    1    5    5    0    0  0.22555649543E+02  0.86975310815E+02 -0.46590930077E+02  0.10122911889E+03  0.17770000000E+01 0.  1.
        -15    1    5    5    0    0  0.29753750499E+03  0.34909175514E+03 -0.25594867737E+03  0.52526803021E+03  0.17770000000E+01 0. -1.
          3    1    6    6  503    0  0.18557058768E+02 -0.38776133038E+02 -0.72173411920E+02  0.84005680234E+02  0.00000000000E+00 0. -1.
         -3    1    6    6    0  503 -0.23153125800E+02 -0.11977536370E+03 -0.27145840671E+02  0.12497640437E+03  0.00000000000E+00 0.  1.
<mgrwt>
<rscale>  0 0.57067473E+03</rscale>
<asrwt>0</asrwt>
<pdfrwt beam="1">  1        2 0.60857664E-01 0.57067473E+03</pdfrwt>
<pdfrwt beam="2">  1       -2 0.13490859E+00 0.57067473E+03</pdfrwt>
<totfact> 0.32678870E+01</totfact>
</mgrwt>
</event>
<event>
12    1  0.9321077E-008  0.3708725E+03  0.7818608E-02  0.1054360E+00
         -2   -1    0    0    0  501 -0.00000000000E+00  0.00000000000E+00  0.30222270426E+03  0.30222270426E+03  0.00000000000E+00 0.  1.
          2   -1    0    0  501    0  0.00000000000E+00 -0.00000000000E+00 -0.12658891238E+04  0.12658891238E+04  0.00000000000E+00 0. -1.
         23    2    1    2    0    0 -0.29406061506E+03 -0.41772645009E+01  0.88707757600E+02  0.32155329805E+03  0.95070302196E+02 0.  0.
    5000000    2    1    2    0    0  0.29406061506E+03  0.41772645009E+01 -0.10523741771E+04  0.12465585300E+04  0.59993971795E+03 0.  0.
         23    2    4    4    0    0  0.70233900583E+02 -0.13167960596E+03 -0.92565774061E+03  0.94174362892E+03  0.88127694035E+02 0.  0.
         23    2    4    4    0    0  0.22382671447E+03  0.13585687046E+03 -0.12671643654E+03  0.30481490110E+03  0.91102037742E+02 0.  0.
          3    1    3    3  502    0 -0.13814411319E+03 -0.30717913481E+02  0.81326428513E+02  0.16322185575E+03  0.00000000000E+00 0. -1.
         -3    1    3    3    0  502 -0.15591650186E+03  0.26540648980E+02  0.73813290870E+01  0.15833144230E+03  0.00000000000E+00 0.  1.
         15    1    5    5    0    0  0.43948210901E+02 -0.13797252220E+03 -0.81873094271E+03  0.83143934018E+03  0.17770000000E+01 0.  1.
        -15    1    5    5    0    0  0.26285689682E+02  0.62929162470E+01 -0.10692679790E+03  0.11030428874E+03  0.17770000000E+01 0. -1.
          3    1    6    6  503    0  0.15964436410E+03  0.12970002586E+03 -0.12422030097E+03  0.24028962290E+03  0.00000000000E+00 0. -1.
         -3    1    6    6    0  503  0.64182350372E+02  0.61568445931E+01 -0.24961355723E+01  0.64525278205E+02  0.00000000000E+00 0.  1.
<mgrwt>
<rscale>  0 0.37087255E+03</rscale>
<asrwt>0</asrwt>
<pdfrwt beam="1">  1        2 0.19475217E+00 0.37087255E+03</pdfrwt>
<pdfrwt beam="2">  1       -2 0.46495800E-01 0.37087255E+03</pdfrwt>
<totfact> 0.80866619E+01</totfact>
</mgrwt>
</event>
<event>
12    1  0.9321077E-008  0.7061342E+03  0.7818608E-02  0.9706799E-01
         -2   -1    0    0    0  501 -0.00000000000E+00  0.00000000000E+00  0.52291470235E+03  0.52291470235E+03  0.00000000000E+00 0.  1.
          2   -1    0    0  501    0  0.00000000000E+00 -0.00000000000E+00 -0.11758069655E+04  0.11758069655E+04  0.00000000000E+00 0. -1.
         23    2    1    2    0    0 -0.29714915085E+03 -0.50018162098E+03 -0.63059258938E+03  0.86278472500E+03  0.90946116445E+02 0.  0.
    5000000    2    1    2    0    0  0.29714915085E+03  0.50018162098E+03 -0.22299673762E+02  0.83593694283E+03  0.59984500092E+03 0.  0.
         23    2    4    4    0    0  0.21260551182E+03 -0.79733982828E+02 -0.96257386593E+01  0.24264560079E+03  0.85003653235E+02 0.  0.
         23    2    4    4    0    0  0.84543639031E+02  0.57991560381E+03 -0.12673935103E+02  0.59329134205E+03  0.91565569253E+02 0.  0.
          1    1    3    3  502    0 -0.14866472153E+03 -0.16406480140E+03 -0.23654922081E+03  0.32399690176E+03  0.00000000000E+00 0. -1.
         -1    1    3    3    0  502 -0.14848442932E+03 -0.33611681958E+03 -0.39404336858E+03  0.53878782324E+03  0.00000000000E+00 0.  1.
         15    1    5    5    0    0  0.10849479877E+03 -0.61646125473E+02  0.32361208855E+02  0.12892545021E+03  0.17770000000E+01 0.  1.
        -15    1    5    5    0    0  0.10411071305E+03 -0.18087857355E+02 -0.41986947514E+02  0.11372015057E+03  0.17770000000E+01 0. -1.
          2    1    6    6  503    0  0.16150948368E+02  0.40196692549E+03 -0.16238267779E+02  0.40261885657E+03  0.00000000000E+00 0. -1.
         -2    1    6    6    0  503  0.68392690664E+02  0.17794867832E+03  0.35643326766E+01  0.19067248548E+03  0.00000000000E+00 0.  1.
<mgrwt>
<rscale>  0 0.70613416E+03</rscale>
<asrwt>0</asrwt>
<pdfrwt beam="1">  1        2 0.18089338E+00 0.70613416E+03</pdfrwt>
<pdfrwt beam="2">  1       -2 0.80448415E-01 0.70613416E+03</pdfrwt>
<totfact> 0.27356769E+01</totfact>
</mgrwt>
</event>
<event>
12    1  0.9321077E-008  0.7487590E+03  0.7818608E-02  0.9637299E-01
          1   -1    0    0  501    0  0.00000000000E+00  0.00000000000E+00  0.78193913698E+03  0.78193913698E+03  0.00000000000E+00 0. -1.
         -1   -1    0    0    0  501 -0.00000000000E+00 -0.00000000000E+00 -0.88076210140E+03  0.88076210140E+03  0.00000000000E+00 0.  1.
         23    2    1    2    0    0 -0.56890373865E+03  0.33418572067E+03 -0.33216276178E+03  0.74086761271E+03  0.56755259630E+02 0.  0.
    5000000    2    1    2    0    0  0.56890373865E+03 -0.33418572067E+03  0.23333979736E+03  0.92183362568E+03  0.59999851054E+03 0.  0.
         23    2    4    4    0    0  0.10128758707E+03  0.11926191684E+03 -0.75342182994E+02  0.19528559807E+03  0.89316516801E+02 0.  0.
         23    2    4    4    0    0  0.46761615158E+03 -0.45344763751E+03  0.30868198035E+03  0.72654802760E+03  0.91147387452E+02 0.  0.
          4    1    3    3  502    0 -0.10884678956E+03  0.75790465187E+02 -0.90065036964E+02  0.16032320198E+03  0.00000000000E+00 0.  1.
         -4    1    3    3    0  502 -0.46005694909E+03  0.25839525548E+03 -0.24209772482E+03  0.58054441073E+03  0.00000000000E+00 0. -1.
         15    1    5    5    0    0 -0.89732959949E+01  0.47555130269E+02 -0.16223472930E+02  0.51072196534E+02  0.17770000000E+01 0. -1.
        -15    1    5    5    0    0  0.11026088306E+03  0.71706786571E+02 -0.59118710064E+02  0.14421340154E+03  0.17770000000E+01 0.  1.
          1    1    6    6  503    0  0.17042051868E+02 -0.48683045138E+02  0.17152473680E+02  0.54356947754E+02  0.00000000000E+00 0. -1.
         -1    1    6    6    0  503  0.45057409972E+03 -0.40476459237E+03  0.29152950667E+03  0.67219107985E+03  0.00000000000E+00 0.  1.
<mgrwt>
<rscale>  0 0.74875900E+03</rscale>
<asrwt>0</asrwt>
<pdfrwt beam="1">  1        1 0.12029833E+00 0.74875900E+03</pdfrwt>
<pdfrwt beam="2">  1       -1 0.13550186E+00 0.74875900E+03</pdfrwt>
<totfact> 0.10785675E+01</totfact>
</mgrwt>
</event>
<event>
12    1  0.9321077E-008  0.4430166E+03  0.7818608E-02  0.1029825E+00
          1   -1    0    0  501    0  0.00000000000E+00  0.00000000000E+00  0.13090082963E+04  0.13090082963E+04  0.00000000000E+00 0. -1.
         -1   -1    0    0    0  501 -0.00000000000E+00 -0.00000000000E+00 -0.15383055552E+03  0.15383055552E+03  0.00000000000E+00 0.  1.
         23    2    1    2    0    0  0.22109618526E+03  0.81185462170E+02  0.33590764960E+03  0.42024462978E+03  0.91087855379E+02 0.  0.
    5000000    2    1    2    0    0 -0.22109618526E+03 -0.81185462170E+02  0.81927009120E+03  0.10425942221E+04  0.60027046166E+03 0.  0.
         23    2    4    4    0    0  0.63048627179E+02  0.20262936898E+03  0.25713277832E+03  0.34612446399E+03  0.93011226882E+02 0.  0.
         23    2    4    4    0    0 -0.28414481244E+03 -0.28381483115E+03  0.56213731289E+03  0.69646975807E+03  0.88219230079E+02 0.  0.
          2    1    3    3  502    0  0.87457124352E+02 -0.81610593351E+01  0.84823884204E+02  0.12210832413E+03  0.00000000000E+00 0. -1.
         -2    1    3    3    0  502  0.13363906091E+03  0.89346521505E+02  0.25108376540E+03  0.29813630566E+03  0.00000000000E+00 0.  1.
         15    1    5    5    0    0 -0.13844884893E+02  0.82105601546E+02  0.60194522860E+02  0.10275966599E+03  0.17770000000E+01 0. -1.
        -15    1    5    5    0    0  0.76893512072E+02  0.12052376743E+03  0.19693825546E+03  0.24336479800E+03  0.17770000000E+01 0.  1.
          3    1    6    6  503    0 -0.14890021230E+03 -0.87234058486E+02  0.23656838862E+03  0.29282359311E+03  0.00000000000E+00 0. -1.
         -3    1    6    6    0  503 -0.13524460013E+03 -0.19658077266E+03  0.32556892426E+03  0.40364616497E+03  0.00000000000E+00 0.  1.
<mgrwt>
<rscale>  0 0.44301656E+03</rscale>
<asrwt>0</asrwt>
<pdfrwt beam="1">  1        1 0.20138588E+00 0.44301656E+03</pdfrwt>
<pdfrwt beam="2">  1       -1 0.23666240E-01 0.44301656E+03</pdfrwt>
<totfact> 0.14403702E+02</totfact>
</mgrwt>
</event>
<event>
12    1  0.9321077E-008  0.1069349E+04  0.7818608E-02  0.9235592E-01
         -1   -1    0    0    0  501 -0.00000000000E+00  0.00000000000E+00  0.21901025453E+04  0.21901025453E+04  0.00000000000E+00 0.  1.
          1   -1    0    0  501    0  0.00000000000E+00 -0.00000000000E+00 -0.75444719072E+03  0.75444719072E+03  0.00000000000E+00 0. -1.
         23    2    1    2    0    0 -0.47814524719E+03 -0.86790674740E+03 -0.12316466357E+03  0.10024390059E+04  0.88484046837E+02 0.  0.
    5000000    2    1    2    0    0  0.47814524719E+03  0.86790674740E+03  0.15588200181E+04  0.19421107301E+04  0.59999103289E+03 0.  0.
         23    2    4    4    0    0  0.43883497252E+02  0.65175273348E+03  0.98467788923E+03  0.11849882616E+04  0.88877712028E+02 0.  0.
         23    2    4    4    0    0  0.43426174993E+03  0.21615401392E+03  0.57414212889E+03  0.75712246851E+03  0.91046268202E+02 0.  0.
          3    1    3    3  502    0 -0.47391689612E+03 -0.84342045525E+03 -0.13124473181E+03  0.97630961707E+03  0.00000000000E+00 0. -1.
         -3    1    3    3    0  502 -0.42283510656E+01 -0.24486292155E+02  0.80800682403E+01  0.26129388799E+02  0.00000000000E+00 0.  1.
         15    1    5    5    0    0 -0.89293846147E+01  0.11285416514E+03  0.22749884336E+03  0.25411548154E+03  0.17770000000E+01 0.  1.
        -15    1    5    5    0    0  0.52812881867E+02  0.53889856834E+03  0.75717904587E+03  0.93087278008E+03  0.17770000000E+01 0. -1.
          3    1    6    6  503    0  0.29719545756E+01 -0.58964711722E+01  0.17669490543E+01  0.68354220970E+01  0.00000000000E+00 0. -1.
         -3    1    6    6    0  503  0.43128979536E+03  0.22205048510E+03  0.57237517984E+03  0.75028704641E+03  0.00000000000E+00 0.  1.
<mgrwt>
<rscale>  0 0.10693494E+04</rscale>
<asrwt>0</asrwt>
<pdfrwt beam="1">  1        1 0.11606880E+00 0.10693494E+04</pdfrwt>
<pdfrwt beam="2">  1       -1 0.33693885E+00 0.10693494E+04</pdfrwt>
<totfact> 0.46366545E-01</totfact>
</mgrwt>
</event>
<event>
12    1  0.9321077E-008  0.6815333E+03  0.7818608E-02  0.9749344E-01
          2   -1    0    0  501    0  0.00000000000E+00  0.00000000000E+00  0.40105787138E+03  0.40105787138E+03  0.00000000000E+00 0. -1.
         -2   -1    0    0    0  501 -0.00000000000E+00 -0.00000000000E+00 -0.15351918022E+04  0.15351918022E+04  0.00000000000E+00 0.  1.
         23    2    1    2    0    0 -0.65150487795E+03  0.12063109408E+03 -0.58582968985E+03  0.88748453911E+03  0.73633652691E+02 0.  0.
    5000000    2    1    2    0    0  0.65150487795E+03 -0.12063109408E+03 -0.54830424096E+03  0.10487651345E+04  0.60021687726E+03 0.  0.
         23    2    4    4    0    0  0.42003804799E+03  0.17923658576E+02  0.59014617209E+00  0.43031734472E+03  0.91757558819E+02 0.  0.
         23    2    4    4    0    0  0.23146682996E+03 -0.13855475266E+03 -0.54889438713E+03  0.61844778973E+03  0.91751335380E+02 0.  0.
          4    1    3    3  502    0 -0.33404775081E+03  0.45760869396E+02 -0.25347609402E+03  0.42181997016E+03  0.00000000000E+00 0. -1.
         -4    1    3    3    0  502 -0.31745712714E+03  0.74870224688E+02 -0.33235359583E+03  0.46566456895E+03  0.00000000000E+00 0.  1.
         15    1    5    5    0    0  0.27706422637E+03 -0.18864002835E+02 -0.30679492186E+02  0.27940083233E+03  0.17770000000E+01 0.  1.
        -15    1    5    5    0    0  0.14297382162E+03  0.36787661411E+02  0.31269638358E+02  0.15091651240E+03  0.17770000000E+01 0. -1.
          1    1    6    6  503    0  0.20647707830E+03 -0.13981023188E+03 -0.53394168319E+03  0.58929908014E+03  0.00000000000E+00 0. -1.
         -1    1    6    6    0  503  0.24989751656E+02  0.12554792180E+01 -0.14952703941E+02  0.29148709595E+02  0.00000000000E+00 0.  1.
<mgrwt>
<rscale>  0 0.68153334E+03</rscale>
<asrwt>0</asrwt>
<pdfrwt beam="1">  1        2 0.61701212E-01 0.68153334E+03</pdfrwt>
<pdfrwt beam="2">  1       -2 0.23618335E+00 0.68153334E+03</pdfrwt>
<totfact> 0.64134431E+00</totfact>
</mgrwt>
</event>
<event>
12    1  0.9321077E-008  0.6429518E+03  0.7818608E-02  0.9820095E-01
          2   -1    0    0  501    0  0.00000000000E+00  0.00000000000E+00  0.19732831888E+04  0.19732831888E+04  0.00000000000E+00 0. -1.
         -2   -1    0    0    0  501 -0.00000000000E+00 -0.00000000000E+00 -0.21604338064E+03  0.21604338064E+03  0.00000000000E+00 0.  1.
         23    2    1    2    0    0 -0.49843277544E+03  0.92029781055E+02  0.79587324577E+03  0.94791081127E+03  0.90641991134E+02 0.  0.
    5000000    2    1    2    0    0  0.49843277544E+03 -0.92029781055E+02  0.96136656239E+03  0.12414157582E+04  0.59998558741E+03 0.  0.
         23    2    4    4    0    0  0.32834560076E+03  0.22526674337E+03  0.45960634908E+03  0.61524689415E+03  0.93460181058E+02 0.  0.
         23    2    4    4    0    0  0.17008717468E+03 -0.31729652442E+03  0.50176021331E+03  0.62616886401E+03  0.10352489169E+03 0.  0.
          3    1    3    3  502    0 -0.23281260396E+03  0.39353530078E+01  0.31813226970E+03  0.39424020164E+03  0.00000000000E+00 0. -1.
         -3    1    3    3    0  502 -0.26562017148E+03  0.88094428047E+02  0.47774097607E+03  0.55367060963E+03  0.00000000000E+00 0.  1.
         15    1    5    5    0    0  0.16920424405E+03  0.13421325058E+03  0.18138977021E+03  0.28204375423E+03  0.17770000000E+01 0. -1.
        -15    1    5    5    0    0  0.15914135671E+03  0.91053492782E+02  0.27821657887E+03  0.33320313991E+03  0.17770000000E+01 0.  1.
          2    1    6    6  503    0  0.10224873416E+03 -0.27629666655E+03  0.41073985310E+03  0.50547193642E+03  0.00000000000E+00 0. -1.
         -2    1    6    6    0  503  0.67838440518E+02 -0.40999857867E+02  0.91020360210E+02  0.12069692759E+03  0.00000000000E+00 0.  1.
<mgrwt>
<rscale>  0 0.64295177E+03</rscale>
<asrwt>0</asrwt>
<pdfrwt beam="1">  1        2 0.30358202E+00 0.64295177E+03</pdfrwt>
<pdfrwt beam="2">  1       -2 0.33237445E-01 0.64295177E+03</pdfrwt>
<totfact> 0.60911238E+01</totfact>
</mgrwt>
</event>
<event>
12    1  0.9321077E-008  0.7669725E+03  0.7818608E-02  0.9609093E-01
          1   -1    0    0  501    0  0.00000000000E+00  0.00000000000E+00  0.15628894392E+04  0.15628894392E+04  0.00000000000E+00 0. -1.
         -1   -1    0    0    0  501 -0.00000000000E+00 -0.00000000000E+00 -0.60256303859E+03  0.60256303859E+03  0.00000000000E+00 0.  1.
         23    2    1    2    0    0  0.53041438377E+03 -0.53217213391E+03  0.93524663389E+03  0.12032305357E+04  0.92362640124E+02 0.  0.
    5000000    2    1    2    0    0 -0.53041438377E+03  0.53217213391E+03  0.25079766714E+02  0.96222194205E+03  0.60057928073E+03 0.  0.
         23    2    4    4    0    0 -0.49880369639E+02  0.16902073248E+03 -0.22829627432E+03  0.30240982857E+03  0.90975030990E+02 0.  0.
         23    2    4    4    0    0 -0.48053401413E+03  0.36315140143E+03  0.25337604103E+03  0.65981211348E+03  0.91437015612E+02 0.  0.
          2    1    3    3  502    0  0.30278680212E+03 -0.25008071338E+03  0.44445030870E+03  0.59309045486E+03  0.00000000000E+00 0. -1.
         -2    1    3    3    0  502  0.22762758165E+03 -0.28209142052E+03  0.49079632520E+03  0.61014008087E+03  0.00000000000E+00 0.  1.
         15    1    5    5    0    0 -0.25733957585E+02  0.83382831610E+02 -0.18255717608E+03  0.20234923634E+03  0.17770000000E+01 0.  1.
        -15    1    5    5    0    0 -0.24146412053E+02  0.85637900867E+02 -0.45739098238E+02  0.10006059223E+03  0.17770000000E+01 0. -1.
          2    1    6    6  503    0 -0.32366211146E+03  0.23637929891E+03  0.12137968141E+03  0.41876647718E+03  0.00000000000E+00 0. -1.
         -2    1    6    6    0  503 -0.15687190267E+03  0.12677210252E+03  0.13199635963E+03  0.24104563630E+03  0.00000000000E+00 0.  1.
<mgrwt>
<rscale>  0 0.76697250E+03</rscale>
<asrwt>0</asrwt>
<pdfrwt beam="1">  1        1 0.24044453E+00 0.76697250E+03</pdfrwt>
<pdfrwt beam="2">  1       -1 0.92702007E-01 0.76697250E+03</pdfrwt>
<totfact> 0.69514135E+00</totfact>
</mgrwt>
</event>
<event>
12    1  0.9321077E-008  0.5513887E+03  0.7818608E-02  0.1001173E+00
          1   -1    0    0  501    0  0.00000000000E+00  0.00000000000E+00  0.12699689335E+04  0.12699689335E+04  0.00000000000E+00 0. -1.
         -1   -1    0    0    0  501 -0.00000000000E+00 -0.00000000000E+00 -0.36748849954E+03  0.36748849954E+03  0.00000000000E+00 0.  1.
         23    2    1    2    0    0 -0.42540665111E+03 -0.17259988810E+03  0.10358202949E+02  0.46841772602E+03  0.92446381765E+02 0.  0.
    5000000    2    1    2    0    0  0.42540665111E+03  0.17259988810E+03  0.89212223104E+03  0.11690397070E+04  0.60000851774E+03 0.  0.
         23    2    4    4    0    0  0.39193618685E+03  0.29819668652E+03  0.37078307822E+03  0.62394018029E+03  0.96363992651E+02 0.  0.
         23    2    4    4    0    0  0.33470464268E+02 -0.12559679842E+03  0.52133915282E+03  0.54509952676E+03  0.91892078323E+02 0.  0.
          4    1    3    3  502    0 -0.34268881610E+03 -0.17644295766E+03  0.11170168602E+02  0.38560668388E+03  0.00000000000E+00 0. -1.
         -4    1    3    3    0  502 -0.82717835011E+02  0.38430695541E+01 -0.81196565311E+00  0.82811042143E+02  0.00000000000E+00 0.  1.
         15    1    5    5    0    0  0.11020460286E+03  0.13606958769E+03  0.10602893502E+03  0.20470779168E+03  0.17770000000E+01 0. -1.
        -15    1    5    5    0    0  0.28173158398E+03  0.16212709883E+03  0.26475414320E+03  0.41923238861E+03  0.17770000000E+01 0.  1.
          1    1    6    6  503    0 -0.30548980501E+01 -0.53053344479E+02  0.78000728540E+02  0.94382749564E+02  0.00000000000E+00 0. -1.
         -1    1    6    6    0  503  0.36525362318E+02 -0.72543453940E+02  0.44333842428E+03  0.45071677719E+03  0.00000000000E+00 0.  1.
<mgrwt>
<rscale>  0 0.55138867E+03</rscale>
<asrwt>0</asrwt>
<pdfrwt beam="1">  1        1 0.19537983E+00 0.55138867E+03</pdfrwt>
<pdfrwt beam="2">  1       -1 0.56536693E-01 0.55138867E+03</pdfrwt>
<totfact> 0.31829359E+01</totfact>
</mgrwt>
</event>
<event>
12    1  0.9321077E-008  0.1079595E+04  0.7818608E-02  0.9225311E-01
          2   -1    0    0  501    0  0.00000000000E+00  0.00000000000E+00  0.25875038179E+04  0.25875038179E+04  0.00000000000E+00 0. -1.
         -2   -1    0    0    0  501 -0.00000000000E+00 -0.00000000000E+00 -0.82745134262E+03  0.82745134262E+03  0.00000000000E+00 0.  1.
         23    2    1    2    0    0 -0.36114282957E+03  0.10018235847E+04  0.19046670999E+04  0.21840793776E+04  0.91494961865E+02 0.  0.
    5000000    2    1    2    0    0  0.36114282957E+03 -0.10018235847E+04 -0.14461462457E+03  0.12308757829E+04  0.60005596833E+03 0.  0.
         23    2    4    4    0    0  0.13245447719E+03 -0.58990070802E+03 -0.35524732203E+03  0.70701807548E+03  0.90259987724E+02 0.  0.
         23    2    4    4    0    0  0.22868835238E+03 -0.41192287670E+03  0.21063269747E+03  0.52385770747E+03  0.89899641619E+02 0.  0.
          3    1    3    3  502    0 -0.89593920949E+02  0.37791651807E+03  0.68554995752E+03  0.78792557361E+03  0.00000000000E+00 0. -1.
         -3    1    3    3    0  502 -0.27154890862E+03  0.62390706666E+03  0.12191171423E+04  0.13961538040E+04  0.00000000000E+00 0.  1.
         15    1    5    5    0    0  0.51414693310E+02 -0.84087804820E+02 -0.67434040531E+02  0.11943507508E+03  0.17770000000E+01 0. -1.
        -15    1    5    5    0    0  0.81039783879E+02 -0.50581290321E+03 -0.28781328150E+03  0.58758300040E+03  0.17770000000E+01 0.  1.
          1    1    6    6  503    0  0.13953433286E+03 -0.16008048625E+03  0.87183688004E+02  0.22955737317E+03  0.00000000000E+00 0. -1.
         -1    1    6    6    0  503  0.89154019517E+02 -0.25184239046E+03  0.12344900946E+03  0.29430033429E+03  0.00000000000E+00 0.  1.
<mgrwt>
<rscale>  0 0.10795949E+04</rscale>
<asrwt>0</asrwt>
<pdfrwt beam="1">  1        2 0.39807751E+00 0.10795949E+04</pdfrwt>
<pdfrwt beam="2">  1       -2 0.12730021E+00 0.10795949E+04</pdfrwt>
<totfact> 0.14128256E+00</totfact>
</mgrwt>
</event>
<event>
12    1  0.9321077E-008  0.7273804E+03  0.7818608E-02  0.9671521E-01
         -2   -1    0    0    0  501 -0.00000000000E+00  0.00000000000E+00  0.12029304288E+04  0.12029304288E+04  0.00000000000E+00 0.  1.
          2   -1    0    0  501    0  0.00000000000E+00 -0.00000000000E+00 -0.55699215815E+03  0.55699215815E+03  0.00000000000E+00 0. -1.
         23    2    1    2    0    0  0.35596899752E+03 -0.50753990702E+03  0.64185252004E+03  0.89714150101E+03  0.92614960703E+02 0.  0.
    5000000    2    1    2    0    0 -0.35596899752E+03  0.50753990702E+03  0.40857505641E+01  0.86278108589E+03  0.60005318464E+03 0.  0.
         23    2    4    4    0    0  0.13364559834E+03  0.15064527219E+03  0.97785624805E+02  0.24296354821E+03  0.94414582299E+02 0.  0.
         23    2    4    4    0    0 -0.48961459586E+03  0.35689463483E+03 -0.93699874241E+02  0.61981753769E+03  0.91092704101E+02 0.  0.
          3    1    3    3  502    0  0.19670175889E+03 -0.21425695970E+03  0.26147287241E+03  0.39110828390E+03  0.00000000000E+00 0. -1.
         -3    1    3    3    0  502  0.15926723863E+03 -0.29328294733E+03  0.38037964763E+03  0.50603321712E+03  0.00000000000E+00 0.  1.
         15    1    5    5    0    0  0.61032568958E+01  0.71034235261E+02  0.22327665153E+02  0.74731483887E+02  0.17770000000E+01 0. -1.
        -15    1    5    5    0    0  0.12754234144E+03  0.79611036929E+02  0.75457959652E+02  0.16823206432E+03  0.17770000000E+01 0.  1.
          2    1    6    6  503    0 -0.26118268033E+03  0.15559271842E+03 -0.83065285844E+02  0.31515921095E+03  0.00000000000E+00 0. -1.
         -2    1    6    6    0  503 -0.22843191552E+03  0.20130191641E+03 -0.10634588397E+02  0.30465832674E+03  0.00000000000E+00 0.  1.
<mgrwt>
<rscale>  0 0.72738044E+03</rscale>
<asrwt>0</asrwt>
<pdfrwt beam="1">  1        2 0.85691101E-01 0.72738044E+03</pdfrwt>
<pdfrwt beam="2">  1       -2 0.18506622E+00 0.72738044E+03</pdfrwt>
<totfact> 0.92603140E+00</totfact>
</mgrwt>
</event>
<event>
12    1  0.9321077E-008  0.1005021E+04  0.7818608E-02  0.9303055E-01
         -1   -1    0    0    0  501 -0.00000000000E+00  0.00000000000E+00  0.94861516143E+03  0.94861516143E+03  0.00000000000E+00 0.  1.
          1   -1    0    0  501    0  0.00000000000E+00 -0.00000000000E+00 -0.11746212213E+04  0.11746212213E+04  0.00000000000E+00 0. -1.
         23    2    1    2    0    0 -0.71101515199E+03  0.63757512229E+03 -0.26314476927E+03  0.99479580435E+03  0.91263025532E+02 0.  0.
    5000000    2    1    2    0    0  0.71101515199E+03 -0.63757512229E+03  0.37138709398E+02  0.11284405784E+04  0.59996189236E+03 0.  0.
         23    2    4    4    0    0 -0.14481162980E+02 -0.20152492987E+03 -0.13139443670E+03  0.26050694315E+03  0.98880574397E+02 0.  0.
         23    2    4    4    0    0  0.72549631497E+03 -0.43605019242E+03  0.16853314610E+03  0.86793363524E+03  0.91764374835E+02 0.  0.
          2    1    3    3  502    0 -0.17824101053E+03  0.11309021302E+03 -0.42836352825E+02  0.21539314576E+03  0.00000000000E+00 0.  1.
         -2    1    3    3    0  502 -0.53277414146E+03  0.52448490927E+03 -0.22030841645E+03  0.77940265860E+03  0.00000000000E+00 0. -1.
         15    1    5    5    0    0  0.19774699767E+01 -0.35610978992E+02  0.14894537515E+02  0.38691823284E+02  0.17770000000E+01 0.  1.
        -15    1    5    5    0    0 -0.16458632957E+02 -0.16591395088E+03 -0.14628897422E+03  0.22181511987E+03  0.17770000000E+01 0. -1.
          2    1    6    6  503    0  0.22191865148E+03 -0.99534976344E+02  0.78739408725E+02  0.25564622797E+03  0.00000000000E+00 0. -1.
         -2    1    6    6    0  503  0.50357766350E+03 -0.33651521608E+03  0.89793737377E+02  0.61228740727E+03  0.00000000000E+00 0.  1.
<mgrwt>
<rscale>  0 0.10050210E+04</rscale>
<asrwt>0</asrwt>
<pdfrwt beam="1">  1        1 0.18071096E+00 0.10050210E+04</pdfrwt>
<pdfrwt beam="2">  1       -1 0.14594079E+00 0.10050210E+04</pdfrwt>
<totfact> 0.42001670E+00</totfact>
</mgrwt>
</event>
<event>
12    1  0.9321077E-008  0.8787514E+03  0.7818608E-02  0.9452540E-01
          2   -1    0    0  501    0  0.00000000000E+00  0.00000000000E+00  0.18033277371E+04  0.18033277371E+04  0.00000000000E+00 0. -1.
         -2   -1    0    0    0  501 -0.00000000000E+00 -0.00000000000E+00 -0.56726954858E+03  0.56726954858E+03  0.00000000000E+00 0.  1.
         23    2    1    2    0    0 -0.65803762848E+03  0.51270947048E+03  0.11024886624E+03  0.84633901413E+03  0.90831672418E+02 0.  0.
    5000000    2    1    2    0    0  0.65803762848E+03 -0.51270947048E+03  0.11258093223E+04  0.15242582716E+04  0.60002677161E+03 0.  0.
         23    2    4    4    0    0  0.12555917765E+03  0.51045796516E+02  0.49175801444E+03  0.51864153636E+03  0.93767361258E+02 0.  0.
         23    2    4    4    0    0  0.53247845083E+03 -0.56375526699E+03  0.63405130785E+03  0.10056167352E+04  0.88829361520E+02 0.  0.
          3    1    3    3  502    0 -0.37894679250E+03  0.25757064703E+03  0.26014499816E+02  0.45893361607E+03  0.00000000000E+00 0. -1.
         -3    1    3    3    0  502 -0.27909083598E+03  0.25513882344E+03  0.84234366428E+02  0.38740539806E+03  0.00000000000E+00 0.  1.
         15    1    5    5    0    0  0.53638890783E+02 -0.21940203150E+01  0.74208612720E+02  0.91607970507E+02  0.17770000000E+01 0. -1.
        -15    1    5    5    0    0  0.71920286868E+02  0.53239816831E+02  0.41754940172E+03  0.42703356585E+03  0.17770000000E+01 0.  1.
          1    1    6    6  503    0  0.23745643060E+03 -0.29665948536E+03  0.26888501888E+03  0.46550140716E+03  0.00000000000E+00 0. -1.
         -1    1    6    6    0  503  0.29502202023E+03 -0.26709578163E+03  0.36516628897E+03  0.54011532804E+03  0.00000000000E+00 0.  1.
<mgrwt>
<rscale>  0 0.87875140E+03</rscale>
<asrwt>0</asrwt>
<pdfrwt beam="1">  1        2 0.27743503E+00 0.87875140E+03</pdfrwt>
<pdfrwt beam="2">  1       -2 0.87272239E-01 0.87875140E+03</pdfrwt>
<totfact> 0.98754799E+00</totfact>
</mgrwt>
</event>
<event>
12    1  0.9321077E-008  0.7716705E+03  0.7818608E-02  0.9601953E-01
         -2   -1    0    0    0  501 -0.00000000000E+00  0.00000000000E+00  0.26294743272E+03  0.26294743272E+03  0.00000000000E+00 0.  1.
          2   -1    0    0  501    0  0.00000000000E+00 -0.00000000000E+00 -0.27121751594E+04  0.27121751594E+04  0.00000000000E+00 0. -1.
         23    2    1    2    0    0  0.22590483271E+03 -0.67563971515E+03 -0.75671875038E+03  0.10432526749E+04  0.90724078276E+02 0.  0.
    5000000    2    1    2    0    0 -0.22590483271E+03  0.67563971515E+03 -0.16925089763E+04  0.19318699172E+04  0.60001060331E+03 0.  0.
         23    2    4    4    0    0 -0.32168036626E+03  0.29695374491E+03 -0.12869233781E+04  0.13622821367E+04  0.89336746926E+02 0.  0.
         23    2    4    4    0    0  0.95775533552E+02  0.37868597024E+03 -0.40558559823E+03  0.56958778050E+03  0.85758645727E+02 0.  0.
          3    1    3    3  502    0  0.75913278091E+02 -0.31745994030E+03 -0.29515438387E+03  0.44006789227E+03  0.00000000000E+00 0. -1.
         -3    1    3    3    0  502  0.14999155462E+03 -0.35817977485E+03 -0.46156436651E+03  0.60318478263E+03  0.00000000000E+00 0.  1.
         15    1    5    5    0    0 -0.16659065512E+03  0.16250431524E+03 -0.54782613036E+03  0.59521149659E+03  0.17770000000E+01 0. -1.
        -15    1    5    5    0    0 -0.15508971114E+03  0.13444942967E+03 -0.73909724773E+03  0.76707064014E+03  0.17770000000E+01 0.  1.
          4    1    6    6  503    0  0.85101695394E+02  0.33251036611E+03 -0.30825302827E+03  0.46133000288E+03  0.00000000000E+00 0. -1.
         -4    1    6    6    0  503  0.10673838158E+02  0.46175604140E+02 -0.97332569962E+02  0.10825777762E+03  0.00000000000E+00 0.  1.
<mgrwt>
<rscale>  0 0.77167046E+03</rscale>
<asrwt>0</asrwt>
<pdfrwt beam="1">  1        2 0.41725773E+00 0.77167046E+03</pdfrwt>
<pdfrwt beam="2">  1       -2 0.40453450E-01 0.77167046E+03</pdfrwt>
<totfact> 0.15844590E+01</totfact>
</mgrwt>
</event>
<event>
12    1  0.9321077E-008  0.1108609E+04  0.7818608E-02  0.9196841E-01
          2   -1    0    0  501    0  0.00000000000E+00  0.00000000000E+00  0.32369366541E+04  0.32369366541E+04  0.00000000000E+00 0.  1.
         -2   -1    0    0    0  501 -0.00000000000E+00 -0.00000000000E+00 -0.38722943995E+03  0.38722943995E+03  0.00000000000E+00 0. -1.
         23    2    1    2    0    0 -0.74786583822E+03  0.70622831530E+03  0.11109389075E+04  0.15166927054E+04  0.90054211981E+02 0.  0.
    5000000    2    1    2    0    0  0.74786583822E+03 -0.70622831530E+03  0.17387683067E+04  0.21074733887E+04  0.60005592599E+03 0.  0.
         23    2    4    4    0    0  0.12011384128E+03 -0.50182657258E+03  0.78745142153E+03  0.94577295610E+03  0.90274577897E+02 0.  0.
         23    2    4    4    0    0  0.62775199694E+03 -0.20440174272E+03  0.95131688513E+03  0.11617004325E+04  0.93227876495E+02 0.  0.
          4    1    3    3  502    0 -0.57631713694E+03  0.57885876828E+03  0.84046146360E+03  0.11720044316E+04  0.00000000000E+00 0. -1.
         -4    1    3    3    0  502 -0.17154870128E+03  0.12736954702E+03  0.27047744388E+03  0.34468827376E+03  0.00000000000E+00 0.  1.
         15    1    5    5    0    0  0.11875020876E+03 -0.32942482731E+03  0.55764326899E+03  0.65847665267E+03  0.17770000000E+01 0. -1.
        -15    1    5    5    0    0  0.13636325228E+01 -0.17240174528E+03  0.22980815254E+03  0.28729630344E+03  0.17770000000E+01 0.  1.
          3    1    6    6  503    0  0.32162354716E+03 -0.66770163844E+02  0.41916958205E+03  0.53254398822E+03  0.00000000000E+00 0. -1.
         -3    1    6    6    0  503  0.30612844978E+03 -0.13763157887E+03  0.53214730308E+03  0.62915644433E+03  0.00000000000E+00 0.  1.
<mgrwt>
<rscale>  0 0.11086095E+04</rscale>
<asrwt>0</asrwt>
<pdfrwt beam="1">  1        2 0.49799024E+00 0.11086095E+04</pdfrwt>
<pdfrwt beam="2">  1       -2 0.59573762E-01 0.11086095E+04</pdfrwt>
<totfact> 0.32666364E+00</totfact>
</mgrwt>
</event>
<event>
12    1  0.9321077E-008  0.8573351E+03  0.7818608E-02  0.9480545E-01
         -2   -1    0    0    0  501 -0.00000000000E+00  0.00000000000E+00  0.72043707525E+03  0.72043707525E+03  0.00000000000E+00 0. -1.
          2   -1    0    0  501    0  0.00000000000E+00 -0.00000000000E+00 -0.12313147045E+04  0.12313147045E+04  0.00000000000E+00 0.  1.
         23    2    1    2    0    0 -0.57718450591E+03  0.61264023820E+03 -0.29005790528E+03  0.89470764446E+03  0.88871622622E+02 0.  0.
    5000000    2    1    2    0    0  0.57718450591E+03 -0.61264023820E+03 -0.22081972398E+03  0.10570441353E+04  0.60009244134E+03 0.  0.
         23    2    4    4    0    0  0.17860564567E+03 -0.73405554199E+02 -0.30784579917E+03  0.37475134896E+03  0.91548814435E+02 0.  0.
         23    2    4    4    0    0  0.39857886023E+03 -0.53923468401E+03  0.87026075194E+02  0.68229278634E+03  0.91163349397E+02 0.  0.
          1    1    3    3  502    0 -0.12023522574E+03  0.14863425996E+03 -0.10291986338E+03  0.21712013039E+03  0.00000000000E+00 0. -1.
         -1    1    3    3    0  502 -0.45694928016E+03  0.46400597825E+03 -0.18713804190E+03  0.67758751406E+03  0.00000000000E+00 0.  1.
         15    1    5    5    0    0  0.44242365363E+02 -0.18990752613E+01 -0.14597000696E+03  0.15254964451E+03  0.17770000000E+01 0. -1.
        -15    1    5    5    0    0  0.13436328031E+03 -0.71506478937E+02 -0.16187579221E+03  0.22220170445E+03  0.17770000000E+01 0.  1.
          2    1    6    6  503    0  0.12690432305E+03 -0.24052227361E+03  0.53184494486E+02  0.27709973252E+03  0.00000000000E+00 0. -1.
         -2    1    6    6    0  503  0.27167453719E+03 -0.29871241040E+03  0.33841580707E+02  0.40519305382E+03  0.00000000000E+00 0.  1.
<mgrwt>
<rscale>  0 0.85733512E+03</rscale>
<asrwt>0</asrwt>
<pdfrwt beam="1">  1        2 0.18943303E+00 0.85733512E+03</pdfrwt>
<pdfrwt beam="2">  1       -2 0.11083647E+00 0.85733512E+03</pdfrwt>
<totfact> 0.11792230E+01</totfact>
</mgrwt>
</event>
<event>
12    1  0.9321077E-008  0.7588726E+03  0.7818608E-02  0.9621533E-01
         -2   -1    0    0    0  501 -0.00000000000E+00  0.00000000000E+00  0.58530485400E+03  0.58530485400E+03  0.00000000000E+00 0.  1.
          2   -1    0    0  501    0  0.00000000000E+00 -0.00000000000E+00 -0.22793599030E+04  0.22793599030E+04  0.00000000000E+00 0. -1.
         23    2    1    2    0    0  0.59758593840E+03 -0.39192163818E+03  0.20465841006E+03  0.74908094302E+03  0.92334555524E+02 0.  0.
    5000000    2    1    2    0    0 -0.59758593840E+03  0.39192163818E+03 -0.18987134590E+04  0.21155838139E+04  0.59989211537E+03 0.  0.
         23    2    4    4    0    0 -0.51380186315E+03  0.45560725489E+03 -0.10643320108E+04  0.12699364007E+04  0.91463146952E+02 0.  0.
         23    2    4    4    0    0 -0.83784075249E+02 -0.63685616705E+02 -0.83438144821E+03  0.84564741326E+03  0.88608788466E+02 0.  0.
          3    1    3    3  502    0  0.21361460313E+03 -0.19286319897E+03  0.92039419162E+02  0.30215669257E+03  0.00000000000E+00 0. -1.
         -3    1    3    3    0  502  0.38397133526E+03 -0.19905843922E+03  0.11261899090E+03  0.44692425045E+03  0.00000000000E+00 0.  1.
         15    1    5    5    0    0 -0.20576006903E+03  0.13373772703E+03 -0.42310966494E+03  0.48912977004E+03  0.17770000000E+01 0. -1.
        -15    1    5    5    0    0 -0.30804179412E+03  0.32186952785E+03 -0.64122234587E+03  0.78080663065E+03  0.17770000000E+01 0.  1.
          2    1    6    6  503    0 -0.78274718998E+02 -0.63826340177E+02 -0.44869793033E+03  0.45992452209E+03  0.00000000000E+00 0. -1.
         -2    1    6    6    0  503 -0.55093562512E+01  0.14072347250E+00 -0.38568351788E+03  0.38572289117E+03  0.00000000000E+00 0.  1.
<mgrwt>
<rscale>  0 0.75887262E+03</rscale>
<asrwt>0</asrwt>
<pdfrwt beam="1">  1        2 0.35067076E+00 0.75887262E+03</pdfrwt>
<pdfrwt beam="2">  1       -2 0.90046900E-01 0.75887262E+03</pdfrwt>
<totfact> 0.51217149E+00</totfact>
</mgrwt>
</event>
<event>
12    1  0.9321077E-008  0.1782897E+04  0.7818608E-02  0.8715448E-01
          2   -1    0    0  501    0  0.00000000000E+00  0.00000000000E+00  0.16255241230E+04  0.16255241230E+04  0.00000000000E+00 0. -1.
         -2   -1    0    0    0  501 -0.00000000000E+00 -0.00000000000E+00 -0.19737778502E+04  0.19737778502E+04  0.00000000000E+00 0.  1.
         23    2    1    2    0    0 -0.16579778118E+04  0.51127453617E+03 -0.41110745552E+02  0.17379211110E+04  0.91583945317E+02 0.  0.
    5000000    2    1    2    0    0  0.16579778118E+04 -0.51127453617E+03 -0.30714298159E+03  0.18613808621E+04  0.60009151555E+03 0.  0.
         23    2    4    4    0    0  0.12558763490E+04 -0.11881834315E+03 -0.17308943729E+03  0.12769021775E+04  0.95791517833E+02 0.  0.
         23    2    4    4    0    0  0.40210146280E+03 -0.39245619302E+03 -0.13405354429E+03  0.58447868466E+03  0.89092818235E+02 0.  0.
          3    1    3    3  502    0 -0.63671381326E+03  0.23224602420E+03 -0.44676589614E+02  0.67921917921E+03  0.00000000000E+00 0. -1.
         -3    1    3    3    0  502 -0.10212639985E+04  0.27902851197E+03  0.35658440613E+01  0.10587019318E+04  0.00000000000E+00 0.  1.
         15    1    5    5    0    0  0.57467602858E+03 -0.12142041808E+02 -0.56032599608E+02  0.57753162420E+03  0.17770000000E+01 0. -1.
        -15    1    5    5    0    0  0.68120032043E+03 -0.10667630134E+03 -0.11705683769E+03  0.69937055329E+03  0.17770000000E+01 0.  1.
          1    1    6    6  503    0  0.24254357476E+03 -0.19525993230E+03 -0.10759278480E+03  0.32943896879E+03  0.00000000000E+00 0.  1.
         -1    1    6    6    0  503  0.15955788804E+03 -0.19719626072E+03 -0.26460759495E+02  0.25503971587E+03  0.00000000000E+00 0. -1.
<mgrwt>
<rscale>  0 0.17828967E+04</rscale>
<asrwt>0</asrwt>
<pdfrwt beam="1">  1        2 0.25008063E+00 0.17828967E+04</pdfrwt>
<pdfrwt beam="2">  1       -2 0.30365813E+00 0.17828967E+04</pdfrwt>
<totfact> 0.29750204E-01</totfact>
</mgrwt>
</event>
<event>
12    1  0.9321077E-008  0.6315197E+03  0.7818608E-02  0.9842088E-01
         -1   -1    0    0    0  501 -0.00000000000E+00  0.00000000000E+00  0.21377220880E+03  0.21377220880E+03  0.00000000000E+00 0.  1.
          1   -1    0    0  501    0  0.00000000000E+00 -0.00000000000E+00 -0.22364317357E+04  0.22364317357E+04  0.00000000000E+00 0. -1.
         23    2    1    2    0    0  0.25138926955E+03  0.49609075480E+03 -0.78030176759E+03  0.96265628464E+03  0.92377876123E+02 0.  0.
    5000000    2    1    2    0    0 -0.25138926955E+03 -0.49609075480E+03 -0.12423577593E+04  0.14875476598E+04  0.60003552930E+03 0.  0.
         23    2    4    4    0    0  0.83652491693E+02 -0.24400734277E+03 -0.14517324756E+03  0.30889377195E+03  0.88333277127E+02 0.  0.
         23    2    4    4    0    0 -0.33504176125E+03 -0.25208341203E+03 -0.10971845117E+04  0.11786538879E+04  0.98041349966E+02 0.  0.
          3    1    3    3  502    0  0.47122912923E+02  0.16429624638E+03 -0.19232499277E+03  0.25729890855E+03  0.00000000000E+00 0. -1.
         -3    1    3    3    0  502  0.20426635663E+03  0.33179450842E+03 -0.58797677482E+03  0.70535737608E+03  0.00000000000E+00 0.  1.
         15    1    5    5    0    0  0.92431685335E+02 -0.24637718955E+03 -0.14246668382E+03  0.29924112303E+03  0.17770000000E+01 0. -1.
        -15    1    5    5    0    0 -0.87791936425E+01  0.23698467817E+01 -0.27065637357E+01  0.96526489130E+01  0.17770000000E+01 0.  1.
          4    1    6    6  503    0 -0.32414405058E+03 -0.26086422522E+03 -0.10706225049E+04  0.11486305140E+04  0.00000000000E+00 0. -1.
         -4    1    6    6    0  503 -0.10897710666E+02  0.87808131966E+01 -0.26562006767E+02  0.30023373921E+02  0.00000000000E+00 0.  1.
<mgrwt>
<rscale>  0 0.63151975E+03</rscale>
<asrwt>0</asrwt>
<pdfrwt beam="1">  1        1 0.34406641E+00 0.63151975E+03</pdfrwt>
<pdfrwt beam="2">  1       -1 0.32888033E-01 0.63151975E+03</pdfrwt>
<totfact> 0.18990014E+01</totfact>
</mgrwt>
</event>
<event>
12    1  0.9321077E-008  0.4566898E+03  0.7818608E-02  0.1025746E+00
          2   -1    0    0  501    0  0.00000000000E+00  0.00000000000E+00  0.21384288547E+04  0.21384288547E+04  0.00000000000E+00 0. -1.
         -2   -1    0    0    0  501 -0.00000000000E+00 -0.00000000000E+00 -0.13727267727E+03  0.13727267727E+03  0.00000000000E+00 0.  1.
         23    2    1    2    0    0  0.32375063541E+03  0.71977591438E+02  0.36248098719E+03  0.49938747199E+03  0.89443465427E+02 0.  0.
    5000000    2    1    2    0    0 -0.32375063541E+03 -0.71977591438E+02  0.16386751902E+04  0.17763140599E+04  0.60003334321E+03 0.  0.
         23    2    4    4    0    0 -0.79870629543E+02 -0.25835966127E+03  0.12011323873E+04  0.12340597568E+04  0.83996662585E+02 0.  0.
         23    2    4    4    0    0 -0.24388000587E+03  0.18638206983E+03  0.43754280285E+03  0.54225430316E+03  0.91543933460E+02 0.  0.
          4    1    3    3  502    0  0.14998584460E+03  0.32567852253E+02  0.10382040710E+03  0.18529731653E+03  0.00000000000E+00 0.  1.
         -4    1    3    3    0  502  0.17376479081E+03  0.39409739185E+02  0.25866058009E+03  0.31409015547E+03  0.00000000000E+00 0. -1.
         15    1    5    5    0    0 -0.81664564955E+01 -0.10480704279E+03  0.32168598005E+03  0.33843202378E+03  0.17770000000E+01 0.  1.
        -15    1    5    5    0    0 -0.71704173047E+02 -0.15355261847E+03  0.87944640729E+03  0.89562773299E+03  0.17770000000E+01 0. -1.
          3    1    6    6  503    0 -0.17885676595E+03  0.14207390941E+03  0.24871799040E+03  0.33769124539E+03  0.00000000000E+00 0. -1.
         -3    1    6    6    0  503 -0.65023239923E+02  0.44308160415E+02  0.18882481245E+03  0.20456305777E+03  0.00000000000E+00 0.  1.
<mgrwt>
<rscale>  0 0.45668981E+03</rscale>
<asrwt>0</asrwt>
<pdfrwt beam="1">  1        2 0.32898903E+00 0.45668981E+03</pdfrwt>
<pdfrwt beam="2">  1       -2 0.21118875E-01 0.45668981E+03</pdfrwt>
<totfact> 0.11603615E+02</totfact>
</mgrwt>
</event>
<event>
12    1  0.9321077E-008  0.1320531E+04  0.7818608E-02  0.9013440E-01
          1   -1    0    0  501    0  0.00000000000E+00  0.00000000000E+00  0.34280791560E+04  0.34280791560E+04  0.00000000000E+00 0. -1.
         -1   -1    0    0    0  501 -0.00000000000E+00 -0.00000000000E+00 -0.53661841910E+03  0.53661841910E+03  0.00000000000E+00 0.  1.
         23    2    1    2    0    0  0.14861933779E+03  0.12464916642E+04  0.95338005951E+03  0.15789190731E+04  0.90679241534E+02 0.  0.
    5000000    2    1    2    0    0 -0.14861933779E+03 -0.12464916642E+04  0.19380806774E+04  0.23857785021E+04  0.59996097557E+03 0.  0.
         23    2    4    4    0    0 -0.23584055400E+03 -0.16481594289E+03  0.36800082959E+03  0.47494771891E+03  0.85823441876E+02 0.  0.
         23    2    4    4    0    0  0.87221216213E+02 -0.10816757213E+04  0.15700798478E+04  0.19108307832E+04  0.92160982115E+02 0.  0.
          3    1    3    3  502    0  0.74657484064E+02  0.30105044012E+03  0.24322913721E+03  0.39416433198E+03  0.00000000000E+00 0. -1.
         -3    1    3    3    0  502  0.73961853727E+02  0.94544122410E+03  0.71015092230E+03  0.11847547411E+04  0.00000000000E+00 0.  1.
         15    1    5    5    0    0 -0.12878569221E+03 -0.47402777697E+02  0.13187590912E+03  0.19033441882E+03  0.17770000000E+01 0. -1.
        -15    1    5    5    0    0 -0.10705486180E+03 -0.11741316519E+03  0.23612492047E+03  0.28461330009E+03  0.17770000000E+01 0.  1.
          2    1    6    6  503    0  0.19046599288E+02 -0.73105975056E+02  0.78209348387E+02  0.10873802789E+03  0.00000000000E+00 0. -1.
         -2    1    6    6    0  503  0.68174616925E+02 -0.10085697463E+04  0.14918704994E+04  0.18020927553E+04  0.00000000000E+00 0.  1.
<mgrwt>
<rscale>  0 0.13205314E+04</rscale>
<asrwt>0</asrwt>
<pdfrwt beam="1">  1        1 0.52739678E+00 0.13205314E+04</pdfrwt>
<pdfrwt beam="2">  1       -1 0.82556682E-01 0.13205314E+04</pdfrwt>
<totfact> 0.40974328E-01</totfact>
</mgrwt>
</event>
<event>
12    1  0.9321077E-008  0.1492110E+04  0.7818608E-02  0.8889717E-01
          2   -1    0    0  501    0  0.00000000000E+00  0.00000000000E+00  0.16811905981E+04  0.16811905981E+04  0.00000000000E+00 0. -1.
         -2   -1    0    0    0  501 -0.00000000000E+00 -0.00000000000E+00 -0.14085957783E+04  0.14085957783E+04  0.00000000000E+00 0.  1.
         23    2    1    2    0    0 -0.49537717541E+02 -0.14630246808E+04  0.34255616654E+03  0.15061571218E+04  0.90935945676E+02 0.  0.
    5000000    2    1    2    0    0  0.49537717541E+02  0.14630246808E+04 -0.69961346752E+02  0.15836292546E+04  0.60007651504E+03 0.  0.
         23    2    4    4    0    0  0.21522215272E+03  0.71654400224E+03 -0.24659232642E+03  0.79279448731E+03  0.89215702090E+02 0.  0.
         23    2    4    4    0    0 -0.16568443518E+03  0.74648067857E+03  0.17663097966E+03  0.79083476730E+03  0.97654445098E+02 0.  0.
          2    1    3    3  502    0 -0.15989173272E+02 -0.11043738531E+04  0.29177300544E+03  0.11423785483E+04  0.00000000000E+00 0. -1.
         -2    1    3    3    0  502 -0.33548544269E+02 -0.35865082773E+03  0.50783161098E+02  0.36377857346E+03  0.00000000000E+00 0.  1.
         15    1    5    5    0    0  0.20925825970E+03  0.63487612673E+03 -0.19638423311E+03  0.69672565641E+03  0.17770000000E+01 0. -1.
        -15    1    5    5    0    0  0.59638930193E+01  0.81667875503E+02 -0.50208093306E+02  0.96068830906E+02  0.17770000000E+01 0.  1.
          2    1    6    6  503    0 -0.39100545370E+02  0.36744098516E+03  0.11128372068E+03  0.38590905238E+03  0.00000000000E+00 0.  1.
         -2    1    6    6    0  503 -0.12658388981E+03  0.37903969342E+03  0.65347258981E+02  0.40492571492E+03  0.00000000000E+00 0. -1.
<mgrwt>
<rscale>  0 0.14921100E+04</rscale>
<asrwt>0</asrwt>
<pdfrwt beam="1">  1        2 0.25864471E+00 0.14921100E+04</pdfrwt>
<pdfrwt beam="2">  1       -2 0.21670704E+00 0.14921100E+04</pdfrwt>
<totfact> 0.98007198E-01</totfact>
</mgrwt>
</event>
<event>
12    1  0.9321077E-008  0.1378933E+04  0.7818608E-02  0.8969211E-01
         -2   -1    0    0    0  501 -0.00000000000E+00  0.00000000000E+00  0.93311340179E+03  0.93311340179E+03  0.00000000000E+00 0.  1.
          2   -1    0    0  501    0  0.00000000000E+00 -0.00000000000E+00 -0.22160330392E+04  0.22160330392E+04  0.00000000000E+00 0. -1.
         23    2    1    2    0    0 -0.12548739026E+04 -0.40120013344E+03 -0.18703358651E+03  0.13334761248E+04  0.86642681916E+02 0.  0.
    5000000    2    1    2    0    0  0.12548739026E+04  0.40120013344E+03 -0.10958860509E+04  0.18156703162E+04  0.60001866815E+03 0.  0.
         23    2    4    4    0    0  0.21816950887E+02 -0.67040939650E+02 -0.58803286950E+02  0.13532983691E+03  0.99427718806E+02 0.  0.
         23    2    4    4    0    0  0.12330569517E+04  0.46824107309E+03 -0.10370827640E+04  0.16803404793E+04  0.91237702796E+02 0.  0.
          4    1    3    3  502    0 -0.95917769106E+03 -0.27427837330E+03 -0.12036049740E+03  0.10048567651E+04  0.00000000000E+00 0. -1.
         -4    1    3    3    0  502 -0.29569621156E+03 -0.12692176014E+03 -0.66673089110E+02  0.32861935965E+03  0.00000000000E+00 0.  1.
         15    1    5    5    0    0  0.56334789726E+02 -0.24313414337E+02 -0.10730234588E+02  0.62314094020E+02  0.17770000000E+01 0. -1.
        -15    1    5    5    0    0 -0.34517838839E+02 -0.42727525313E+02 -0.48073052362E+02  0.73015742891E+02  0.17770000000E+01 0.  1.
          3    1    6    6  503    0  0.61357408976E+03  0.18424717229E+03 -0.50428265711E+03  0.81530434955E+03  0.00000000000E+00 0. -1.
         -3    1    6    6    0  503  0.61948286196E+03  0.28399390080E+03 -0.53280010685E+03  0.86503612978E+03  0.00000000000E+00 0.  1.
<mgrwt>
<rscale>  0 0.13789327E+04</rscale>
<asrwt>0</asrwt>
<pdfrwt beam="1">  1        2 0.34092816E+00 0.13789327E+04</pdfrwt>
<pdfrwt beam="2">  1       -2 0.14355591E+00 0.13789327E+04</pdfrwt>
<totfact> 0.16273982E+00</totfact>
</mgrwt>
</event>
<event>
12    1  0.9321077E-008  0.3546892E+03  0.7818608E-02  0.1060707E+00
          2   -1    0    0  501    0  0.00000000000E+00  0.00000000000E+00  0.17331077957E+04  0.17331077957E+04  0.00000000000E+00 0.  1.
         -2   -1    0    0    0  501 -0.00000000000E+00 -0.00000000000E+00 -0.99688141860E+02  0.99688141860E+02  0.00000000000E+00 0. -1.
         23    2    1    2    0    0 -0.15005529621E+03  0.43420936704E+02  0.60006864735E+03  0.62769689633E+03  0.97565580320E+02 0.  0.
    5000000    2    1    2    0    0  0.15005529621E+03 -0.43420936704E+02  0.10333510065E+04  0.12050990413E+04  0.60003952112E+03 0.  0.
         23    2    4    4    0    0 -0.30243705442E+02  0.21634914080E+03  0.68996939126E+03  0.72927744864E+03  0.89812046958E+02 0.  0.
         23    2    4    4    0    0  0.18029900165E+03 -0.25977007750E+03  0.34338161526E+03  0.47582159262E+03  0.92233568405E+02 0.  0.
          3    1    3    3  502    0 -0.79418028678E+02  0.34328900795E+01  0.14420964294E+03  0.16466763231E+03  0.00000000000E+00 0. -1.
         -3    1    3    3    0  502 -0.70637267534E+02  0.39988046625E+02  0.45585900441E+03  0.46302926402E+03  0.00000000000E+00 0.  1.
         15    1    5    5    0    0 -0.45560353520E+02  0.60500404551E+02  0.29023300305E+03  0.29995732788E+03  0.17770000000E+01 0. -1.
        -15    1    5    5    0    0  0.15316648077E+02  0.15584873625E+03  0.39973638821E+03  0.42932012075E+03  0.17770000000E+01 0.  1.
          3    1    6    6  503    0  0.66725612613E+02 -0.10417043670E+03  0.72377269546E+02  0.14332570045E+03  0.00000000000E+00 0. -1.
         -3    1    6    6    0  503  0.11357338904E+03 -0.15559964080E+03  0.27100434572E+03  0.33249589217E+03  0.00000000000E+00 0.  1.
<mgrwt>
<rscale>  0 0.35468922E+03</rscale>
<asrwt>0</asrwt>
<pdfrwt beam="1">  1        2 0.26663195E+00 0.35468922E+03</pdfrwt>
<pdfrwt beam="2">  1       -2 0.15336638E-01 0.35468922E+03</pdfrwt>
<totfact> 0.33555220E+02</totfact>
</mgrwt>
</event>
<event>
12    1  0.9321077E-008  0.8831105E+03  0.7818608E-02  0.9446944E-01
          1   -1    0    0  501    0  0.00000000000E+00  0.00000000000E+00  0.20006973955E+04  0.20006973955E+04  0.00000000000E+00 0. -1.
         -1   -1    0    0    0  501 -0.00000000000E+00 -0.00000000000E+00 -0.57283337525E+03  0.57283337525E+03  0.00000000000E+00 0.  1.
         23    2    1    2    0    0 -0.58029954663E+02 -0.85144858110E+03  0.69993994200E+02  0.86118004709E+03  0.91650163065E+02 0.  0.
    5000000    2    1    2    0    0  0.58029954663E+02  0.85144858110E+03  0.13578700261E+04  0.17123507237E+04  0.60000152605E+03 0.  0.
         23    2    4    4    0    0 -0.67606693582E+02  0.61834401657E+03  0.48257338084E+03  0.79263892752E+03  0.92083731829E+02 0.  0.
         23    2    4    4    0    0  0.12563664824E+03  0.23310456453E+03  0.87529664522E+03  0.91971179615E+03  0.97996252254E+02 0.  0.
          2    1    3    3  502    0 -0.59744290995E+02 -0.26836204334E+03  0.11638571521E+02  0.27517816584E+03  0.00000000000E+00 0. -1.
         -2    1    3    3    0  502  0.17143363321E+01 -0.58308653776E+03  0.58355422680E+02  0.58600188125E+03  0.00000000000E+00 0.  1.
         15    1    5    5    0    0 -0.70249402128E+02  0.29052753709E+03  0.19812105211E+03  0.35860331471E+03  0.17770000000E+01 0. -1.
        -15    1    5    5    0    0  0.26427085456E+01  0.32781647949E+03  0.28445232873E+03  0.43403561280E+03  0.17770000000E+01 0.  1.
          2    1    6    6  503    0  0.15485408596E+02  0.12891688590E+03  0.36753936548E+03  0.38980064973E+03  0.00000000000E+00 0.  1.
         -2    1    6    6    0  503  0.11015123965E+03  0.10418767863E+03  0.50775727974E+03  0.52991114643E+03  0.00000000000E+00 0. -1.
<mgrwt>
<rscale>  0 0.88311050E+03</rscale>
<asrwt>0</asrwt>
<pdfrwt beam="1">  1        1 0.30779960E+00 0.88311050E+03</pdfrwt>
<pdfrwt beam="2">  1       -1 0.88128212E-01 0.88311050E+03</pdfrwt>
<totfact> 0.38722572E+00</totfact>
</mgrwt>
</event>
<event>
12    1  0.9321077E-008  0.1410559E+04  0.7818608E-02  0.8946211E-01
         -2   -1    0    0    0  501 -0.00000000000E+00  0.00000000000E+00  0.22500779742E+04  0.22500779742E+04  0.00000000000E+00 0.  1.
          2   -1    0    0  501    0  0.00000000000E+00 -0.00000000000E+00 -0.19972410066E+04  0.19972410066E+04  0.00000000000E+00 0. -1.
         23    2    1    2    0    0  0.40352261583E+03  0.13253354727E+04 -0.14254100850E+04  0.19898865868E+04  0.92250209344E+02 0.  0.
    5000000    2    1    2    0    0 -0.40352261583E+03 -0.13253354727E+04  0.16782470526E+04  0.22574323940E+04  0.60011934402E+03 0.  0.
         23    2    4    4    0    0 -0.43891707739E+03 -0.11811828319E+04  0.11780324046E+04  0.17274921716E+04  0.92885809195E+02 0.  0.
         23    2    4    4    0    0  0.35394461560E+02 -0.14415264088E+03  0.50021464808E+03  0.52994022244E+03  0.92677901493E+02 0.  0.
          3    1    3    3  502    0  0.32147482047E+03  0.10892880607E+04 -0.11175300652E+04  0.15933511810E+04  0.00000000000E+00 0. -1.
         -3    1    3    3    0  502  0.82047795360E+02  0.23604741201E+03 -0.30788001986E+03  0.39653540582E+03  0.00000000000E+00 0.  1.
         15    1    5    5    0    0 -0.18250365089E+03 -0.60425452308E+03  0.55542602359E+03  0.84079268352E+03  0.17770000000E+01 0.  1.
        -15    1    5    5    0    0 -0.25641342650E+03 -0.57692830879E+03  0.62260638097E+03  0.88669948806E+03  0.17770000000E+01 0. -1.
          3    1    6    6  503    0  0.54463055127E+02 -0.41395191399E+02  0.15935154128E+03  0.17341482045E+03  0.00000000000E+00 0. -1.
         -3    1    6    6    0  503 -0.19068593567E+02 -0.10275744948E+03  0.34086310681E+03  0.35652540199E+03  0.00000000000E+00 0.  1.
<mgrwt>
<rscale>  0 0.14105592E+04</rscale>
<asrwt>0</asrwt>
<pdfrwt beam="1">  1        2 0.30726785E+00 0.14105592E+04</pdfrwt>
<pdfrwt beam="2">  1       -2 0.34616584E+00 0.14105592E+04</pdfrwt>
<totfact> 0.10483114E-01</totfact>
</mgrwt>
</event>
<event>
12    1  0.9321077E-008  0.4432251E+03  0.7818608E-02  0.1029762E+00
          2   -1    0    0  501    0  0.00000000000E+00  0.00000000000E+00  0.10066727593E+04  0.10066727593E+04  0.00000000000E+00 0.  1.
         -2   -1    0    0    0  501 -0.00000000000E+00 -0.00000000000E+00 -0.33466874996E+03  0.33466874996E+03  0.00000000000E+00 0. -1.
         23    2    1    2    0    0  0.20235797794E+03  0.13689605559E+03 -0.14531240364E+03  0.29829482970E+03  0.90414763737E+02 0.  0.
    5000000    2    1    2    0    0 -0.20235797794E+03 -0.13689605559E+03  0.81731641300E+03  0.10430466796E+04  0.60020910985E+03 0.  0.
         23    2    4    4    0    0 -0.40049673104E+03 -0.82750231330E+02  0.47198037871E+03  0.63114045376E+03  0.91255477198E+02 0.  0.
         23    2    4    4    0    0  0.19813875310E+03 -0.54145824256E+02  0.34533603429E+03  0.41190622583E+03  0.90658846941E+02 0.  0.
          3    1    3    3  502    0  0.13010297260E+03  0.39973906921E+02 -0.52480537736E+02  0.14587290206E+03  0.00000000000E+00 0. -1.
         -3    1    3    3    0  502  0.72255005348E+02  0.96922148666E+02 -0.92831865907E+02  0.15242192765E+03  0.00000000000E+00 0.  1.
         15    1    5    5    0    0 -0.15612729444E+03  0.62604550746E+01  0.21234749359E+03  0.26364662169E+03  0.17770000000E+01 0. -1.
        -15    1    5    5    0    0 -0.24436943660E+03 -0.89010686405E+02  0.25963288512E+03  0.36749383206E+03  0.17770000000E+01 0.  1.
          1    1    6    6  503    0  0.11954608449E+03 -0.61014957121E+02  0.27587997780E+03  0.30679611057E+03  0.00000000000E+00 0. -1.
         -1    1    6    6    0  503  0.78592668614E+02  0.68691328642E+01  0.69456056495E+02  0.10511011526E+03  0.00000000000E+00 0.  1.
<mgrwt>
<rscale>  0 0.44322505E+03</rscale>
<asrwt>0</asrwt>
<pdfrwt beam="1">  1        2 0.15487273E+00 0.44322505E+03</pdfrwt>
<pdfrwt beam="2">  1       -2 0.51487500E-01 0.44322505E+03</pdfrwt>
<totfact> 0.92837362E+01</totfact>
</mgrwt>
</event>
<event>
12    1  0.9321077E-008  0.1045177E+04  0.7818608E-02  0.9260337E-01
         -2   -1    0    0    0  501 -0.00000000000E+00  0.00000000000E+00  0.20372411529E+04  0.20372411529E+04  0.00000000000E+00 0. -1.
          2   -1    0    0  501    0  0.00000000000E+00 -0.00000000000E+00 -0.62519515273E+03  0.62519515273E+03  0.00000000000E+00 0.  1.
         23    2    1    2    0    0  0.98263943914E+03  0.34185226186E+03  0.79374125023E+03  0.13115946818E+04  0.88386654782E+02 0.  0.
    5000000    2    1    2    0    0 -0.98263943914E+03 -0.34185226186E+03  0.61830474990E+03  0.13508416238E+04  0.60002424326E+03 0.  0.
         23    2    4    4    0    0 -0.39556881934E+03 -0.19594332559E+03 -0.38776747063E+02  0.45296318866E+03  0.93827162868E+02 0.  0.
         23    2    4    4    0    0 -0.58707061980E+03 -0.14590893627E+03  0.65708149696E+03  0.89787843512E+03  0.92131755040E+02 0.  0.
          1    1    3    3  502    0  0.85510072313E+03  0.27162564991E+03  0.70534140261E+03  0.11412643141E+04  0.00000000000E+00 0. -1.
         -1    1    3    3    0  502  0.12753871601E+03  0.70226611947E+02  0.88399847618E+02  0.17033036771E+03  0.00000000000E+00 0.  1.
         15    1    5    5    0    0 -0.17101271728E+03 -0.85563519156E+02  0.29732731056E+02  0.19352947659E+03  0.17770000000E+01 0. -1.
        -15    1    5    5    0    0 -0.22455610205E+03 -0.11037980643E+03 -0.68509478120E+02  0.25943371207E+03  0.17770000000E+01 0.  1.
          1    1    6    6  503    0 -0.15898289609E+03 -0.56870842275E+02  0.13034277000E+03  0.21330516084E+03  0.00000000000E+00 0. -1.
         -1    1    6    6    0  503 -0.42808772371E+03 -0.89038094000E+02  0.52673872697E+03  0.68457327428E+03  0.00000000000E+00 0.  1.
<mgrwt>
<rscale>  0 0.10451774E+04</rscale>
<asrwt>0</asrwt>
<pdfrwt beam="1">  1        2 0.96183870E-01 0.10451774E+04</pdfrwt>
<pdfrwt beam="2">  1       -2 0.31342171E+00 0.10451774E+04</pdfrwt>
<totfact> 0.12427701E+00</totfact>
</mgrwt>
</event>
<event>
12    1  0.9321077E-008  0.1393386E+04  0.7818608E-02  0.8958620E-01
         -2   -1    0    0    0  501 -0.00000000000E+00  0.00000000000E+00  0.18543845024E+04  0.18543845024E+04  0.00000000000E+00 0.  1.
          2   -1    0    0  501    0  0.00000000000E+00 -0.00000000000E+00 -0.10553243358E+04  0.10553243358E+04  0.00000000000E+00 0. -1.
         23    2    1    2    0    0 -0.18065960457E+03 -0.13177704703E+04  0.29010278202E+03  0.13644453749E+04  0.91622332224E+02 0.  0.
    5000000    2    1    2    0    0  0.18065960457E+03  0.13177704703E+04  0.50895738465E+03  0.15452634633E+04  0.59970379898E+03 0.  0.
         23    2    4    4    0    0  0.38501625866E+03  0.90286400725E+03  0.30584484771E+03  0.10320478082E+04  0.90447070172E+02 0.  0.
         23    2    4    4    0    0 -0.20435665410E+03  0.41490646306E+03  0.20311253694E+03  0.51321565512E+03  0.90700555865E+02 0.  0.
          4    1    3    3  502    0 -0.28836756317E+02 -0.10861338689E+03  0.29257360762E+01  0.11241435077E+03  0.00000000000E+00 0. -1.
         -4    1    3    3    0  502 -0.15182284825E+03 -0.12091570834E+04  0.28717704595E+03  0.12520310241E+04  0.00000000000E+00 0.  1.
         15    1    5    5    0    0  0.16250591739E+03  0.27871197529E+03  0.85975017127E+02  0.33389129916E+03  0.17770000000E+01 0. -1.
        -15    1    5    5    0    0  0.22251034127E+03  0.62415203197E+03  0.21986983059E+03  0.69815650904E+03  0.17770000000E+01 0.  1.
          2    1    6    6  503    0 -0.96708578641E+02  0.10664886042E+03  0.48237614867E+02  0.15183344855E+03  0.00000000000E+00 0. -1.
         -2    1    6    6    0  503 -0.10764807545E+03  0.30825760264E+03  0.15487492207E+03  0.36138220656E+03  0.00000000000E+00 0.  1.
<mgrwt>
<rscale>  0 0.13933856E+04</rscale>
<asrwt>0</asrwt>
<pdfrwt beam="1">  1        2 0.16235759E+00 0.13933856E+04</pdfrwt>
<pdfrwt beam="2">  1       -2 0.28528992E+00 0.13933856E+04</pdfrwt>
<totfact> 0.86850244E-01</totfact>
</mgrwt>
</event>
<event>
12    1  0.9321077E-008  0.6460968E+03  0.7818608E-02  0.9814131E-01
         -1   -1    0    0    0  501 -0.00000000000E+00  0.00000000000E+00  0.75413196057E+03  0.75413196057E+03  0.00000000000E+00 0.  1.
          1   -1    0    0  501    0  0.00000000000E+00 -0.00000000000E+00 -0.75720234272E+03  0.75720234272E+03  0.00000000000E+00 0. -1.
         23    2    1    2    0    0  0.30703206581E+03 -0.55230259320E+03 -0.24166628879E+01  0.63990801101E+03  0.10084432759E+03 0.  0.
    5000000    2    1    2    0    0 -0.30703206581E+03  0.55230259320E+03 -0.65371926019E+00  0.87142629228E+03  0.60006375631E+03 0.  0.
         23    2    4    4    0    0 -0.20635256234E+03  0.29254296393E+03 -0.28241036924E+03  0.46511961016E+03  0.91748947504E+02 0.  0.
         23    2    4    4    0    0 -0.10067950347E+03  0.25975962927E+03  0.28175664998E+03  0.40630668213E+03  0.89927096672E+02 0.  0.
          2    1    3    3  502    0  0.11352449547E+03 -0.29282498470E+03 -0.27421548084E+02  0.31525580730E+03  0.00000000000E+00 0. -1.
         -2    1    3    3    0  502  0.19350757034E+03 -0.25947760850E+03  0.25004885196E+02  0.32465220372E+03  0.00000000000E+00 0.  1.
         15    1    5    5    0    0 -0.89091856821E+02  0.20247650924E+03 -0.18082725285E+03  0.28571970329E+03  0.17770000000E+01 0.  1.
        -15    1    5    5    0    0 -0.11726070552E+03  0.90066454690E+02 -0.10158311639E+03  0.17939990686E+03  0.17770000000E+01 0. -1.
          3    1    6    6  503    0 -0.43974587460E+02  0.19214687441E+03  0.23403904941E+03  0.30598768331E+03  0.00000000000E+00 0. -1.
         -3    1    6    6    0  503 -0.56704916012E+02  0.67612754857E+02  0.47717600566E+02  0.10031899881E+03  0.00000000000E+00 0.  1.
<mgrwt>
<rscale>  0 0.64609677E+03</rscale>
<asrwt>0</asrwt>
<pdfrwt beam="1">  1        1 0.11649267E+00 0.64609677E+03</pdfrwt>
<pdfrwt beam="2">  1       -1 0.11602030E+00 0.64609677E+03</pdfrwt>
<totfact> 0.16893929E+01</totfact>
</mgrwt>
</event>
<event>
12    1  0.9321077E-008  0.1367058E+04  0.7818608E-02  0.8978015E-01
         -2   -1    0    0    0  501 -0.00000000000E+00  0.00000000000E+00  0.86597632325E+03  0.86597632325E+03  0.00000000000E+00 0. -1.
          2   -1    0    0  501    0  0.00000000000E+00 -0.00000000000E+00 -0.24254610399E+04  0.24254610399E+04  0.00000000000E+00 0.  1.
         23    2    1    2    0    0 -0.36487454117E+03  0.12661213127E+04 -0.12337479063E+04  0.18074356564E+04  0.92158268818E+02 0.  0.
    5000000    2    1    2    0    0  0.36487454117E+03 -0.12661213127E+04 -0.32573681037E+03  0.14840017067E+04  0.59996665471E+03 0.  0.
         23    2    4    4    0    0 -0.95109205067E+02 -0.11555865031E+03 -0.14705783821E+03  0.22868636551E+03  0.90949895218E+02 0.  0.
         23    2    4    4    0    0  0.45998374624E+03 -0.11505626624E+04 -0.17867897215E+03  0.12553153412E+04  0.92254777640E+02 0.  0.
          1    1    3    3  502    0 -0.41678627845E+02  0.24923667854E+03 -0.20709550542E+03  0.32671788796E+03  0.00000000000E+00 0. -1.
         -1    1    3    3    0  502 -0.32319591333E+03  0.10168846341E+04 -0.10266524008E+04  0.14807177684E+04  0.00000000000E+00 0.  1.
         15    1    5    5    0    0 -0.97003789408E+02 -0.12900655185E+03 -0.13464336946E+03  0.21020090449E+03  0.17770000000E+01 0. -1.
        -15    1    5    5    0    0  0.18945843412E+01  0.13447901541E+02 -0.12414468759E+02  0.18485461023E+02  0.17770000000E+01 0.  1.
          4    1    6    6  503    0  0.27457078944E+03 -0.71527813782E+03 -0.66346060111E+02  0.76903428568E+03  0.00000000000E+00 0.  1.
         -4    1    6    6    0  503  0.18541295680E+03 -0.43528452455E+03 -0.11233291204E+03  0.48628105555E+03  0.00000000000E+00 0. -1.
<mgrwt>
<rscale>  0 0.13670584E+04</rscale>
<asrwt>0</asrwt>
<pdfrwt beam="1">  1        2 0.37314785E+00 0.13670584E+04</pdfrwt>
<pdfrwt beam="2">  1       -2 0.13322713E+00 0.13670584E+04</pdfrwt>
<totfact> 0.15058833E+00</totfact>
</mgrwt>
</event>
<event>
12    1  0.9321077E-008  0.4559416E+03  0.7818608E-02  0.1025965E+00
         -2   -1    0    0    0  501 -0.00000000000E+00  0.00000000000E+00  0.21214523338E+03  0.21214523338E+03  0.00000000000E+00 0.  1.
          2   -1    0    0  501    0  0.00000000000E+00 -0.00000000000E+00 -0.14933087274E+04  0.14933087274E+04  0.00000000000E+00 0. -1.
         23    2    1    2    0    0  0.40627146314E+02  0.30029906984E+03 -0.75587799466E+02  0.32505828033E+03  0.90107013133E+02 0.  0.
    5000000    2    1    2    0    0 -0.40627146314E+02 -0.30029906984E+03 -0.12055756945E+04  0.13803956804E+04  0.60020778314E+03 0.  0.
         23    2    4    4    0    0  0.19611150233E+03  0.10218331056E+02 -0.18987795086E+03  0.28833612629E+03  0.92303574493E+02 0.  0.
         23    2    4    4    0    0 -0.23673864864E+03 -0.31051740090E+03 -0.10156977437E+04  0.10920595542E+04  0.92119049499E+02 0.  0.
          2    1    3    3  502    0  0.70088383715E+00  0.81715686410E+02 -0.61754219182E+02  0.10242816132E+03  0.00000000000E+00 0. -1.
         -2    1    3    3    0  502  0.39926262477E+02  0.21858338343E+03 -0.13833580284E+02  0.22263011901E+03  0.00000000000E+00 0.  1.
         15    1    5    5    0    0  0.11699970492E+03  0.38506541377E+02 -0.69233979090E+02  0.14130883295E+03  0.17770000000E+01 0. -1.
        -15    1    5    5    0    0  0.79111797409E+02 -0.28288210321E+02 -0.12064397177E+03  0.14702729334E+03  0.17770000000E+01 0.  1.
          1    1    6    6  503    0 -0.15063418229E+03 -0.12326052341E+03 -0.51908336656E+03  0.55437474234E+03  0.00000000000E+00 0. -1.
         -1    1    6    6    0  503 -0.86104466347E+02 -0.18725687749E+03 -0.49661437712E+03  0.53768481181E+03  0.00000000000E+00 0.  1.
<mgrwt>
<rscale>  0 0.45594157E+03</rscale>
<asrwt>0</asrwt>
<pdfrwt beam="1">  1        2 0.22973981E+00 0.45594157E+03</pdfrwt>
<pdfrwt beam="2">  1       -2 0.32637727E-01 0.45594157E+03</pdfrwt>
<totfact> 0.11777301E+02</totfact>
</mgrwt>
</event>
<event>
12    1  0.9321077E-008  0.1035668E+04  0.7818608E-02  0.9270267E-01
          2   -1    0    0  501    0  0.00000000000E+00  0.00000000000E+00  0.17796480084E+04  0.17796480084E+04  0.00000000000E+00 0. -1.
         -2   -1    0    0    0  501 -0.00000000000E+00 -0.00000000000E+00 -0.64051884177E+03  0.64051884177E+03  0.00000000000E+00 0.  1.
         23    2    1    2    0    0  0.87658990624E+03  0.42655283993E+03  0.40099253187E+03  0.10580780772E+04  0.91526050033E+02 0.  0.
    5000000    2    1    2    0    0 -0.87658990624E+03 -0.42655283993E+03  0.73813663472E+03  0.13620887729E+04  0.60006911676E+03 0.  0.
         23    2    4    4    0    0 -0.81113018093E+03 -0.49909530637E+03  0.76077804390E+03  0.12216686024E+04  0.81625038017E+02 0.  0.
         23    2    4    4    0    0 -0.65459725305E+02  0.72542466440E+02 -0.22641409181E+02  0.14042017051E+03  0.98274135974E+02 0.  0.
          3    1    3    3  502    0  0.68990798783E+03  0.29536129667E+03  0.32177650389E+03  0.81654849562E+03  0.00000000000E+00 0. -1.
         -3    1    3    3    0  502  0.18668191841E+03  0.13119154325E+03  0.79216027987E+02  0.24152958157E+03  0.00000000000E+00 0.  1.
         15    1    5    5    0    0 -0.22335066344E+03 -0.10530326847E+03  0.22667891203E+03  0.33520260157E+03  0.17770000000E+01 0.  1.
        -15    1    5    5    0    0 -0.58777951749E+03 -0.39379203790E+03  0.53409913187E+03  0.88646600087E+03  0.17770000000E+01 0. -1.
          4    1    6    6  503    0 -0.54846621867E+02  0.97089996664E+02 -0.22051491485E+02  0.11367008252E+03  0.00000000000E+00 0.  1.
         -4    1    6    6    0  503 -0.10613103438E+02 -0.24547530224E+02 -0.58991769598E+00  0.26750087992E+02  0.00000000000E+00 0. -1.
<mgrwt>
<rscale>  0 0.10356684E+04</rscale>
<asrwt>0</asrwt>
<pdfrwt beam="1">  1        2 0.27379200E+00 0.10356684E+04</pdfrwt>
<pdfrwt beam="2">  1       -2 0.98541361E-01 0.10356684E+04</pdfrwt>
<totfact> 0.75294502E+00</totfact>
</mgrwt>
</event>
<event>
12    1  0.9321077E-008  0.4574315E+03  0.7818608E-02  0.1025529E+00
         -1   -1    0    0    0  501 -0.00000000000E+00  0.00000000000E+00  0.46828478157E+03  0.46828478157E+03  0.00000000000E+00 0.  1.
          1   -1    0    0  501    0  0.00000000000E+00 -0.00000000000E+00 -0.64305804393E+03  0.64305804393E+03  0.00000000000E+00 0. -1.
         23    2    1    2    0    0  0.21492393319E+03  0.17165237398E+03  0.19996812473E+03  0.35239744224E+03  0.92411426998E+02 0.  0.
    5000000    2    1    2    0    0 -0.21492393319E+03 -0.17165237398E+03 -0.37474138709E+03  0.75894538326E+03  0.59992512285E+03 0.  0.
         23    2    4    4    0    0 -0.26700545437E+02  0.19007476910E+03 -0.22143927133E+02  0.21223593123E+03  0.87820271137E+02 0.  0.
         23    2    4    4    0    0 -0.18822338776E+03 -0.36172714307E+03 -0.35259745995E+03  0.54670945203E+03  0.91058697778E+02 0.  0.
          1    1    3    3  502    0  0.68072419010E+02  0.75795361919E+01  0.32828026717E+02  0.75953821081E+02  0.00000000000E+00 0. -1.
         -1    1    3    3    0  502  0.14685151418E+03  0.16407283778E+03  0.16714009801E+03  0.27644362116E+03  0.00000000000E+00 0.  1.
         15    1    5    5    0    0 -0.57031575511E+02  0.12243270405E+03 -0.27658962950E+02  0.13787872783E+03  0.17770000000E+01 0.  1.
        -15    1    5    5    0    0  0.30331030074E+02  0.67642065043E+02  0.55150358168E+01  0.74357203401E+02  0.17770000000E+01 0. -1.
          1    1    6    6  503    0 -0.23853014767E+02 -0.13394459343E+03 -0.13178270384E+03  0.18941172470E+03  0.00000000000E+00 0. -1.
         -1    1    6    6    0  503 -0.16437037299E+03 -0.22778254964E+03 -0.22081475611E+03  0.35729772733E+03  0.00000000000E+00 0.  1.
<mgrwt>
<rscale>  0 0.45743150E+03</rscale>
<asrwt>0</asrwt>
<pdfrwt beam="1">  1        1 0.98932007E-01 0.45743150E+03</pdfrwt>
<pdfrwt beam="2">  1       -1 0.72043812E-01 0.45743150E+03</pdfrwt>
<totfact> 0.63346858E+01</totfact>
</mgrwt>
</event>
<event>
12    1  0.9321077E-008  0.1070067E+04  0.7818608E-02  0.9234868E-01
          2   -1    0    0  501    0  0.00000000000E+00  0.00000000000E+00  0.11398773999E+04  0.11398773999E+04  0.00000000000E+00 0. -1.
         -2   -1    0    0    0  501 -0.00000000000E+00 -0.00000000000E+00 -0.22557913354E+04  0.22557913354E+04  0.00000000000E+00 0.  1.
         23    2    1    2    0    0  0.74436016706E+03  0.66979663767E+03 -0.17860084305E+04  0.20497278507E+04  0.94119890651E+02 0.  0.
    5000000    2    1    2    0    0 -0.74436016706E+03 -0.66979663767E+03  0.67009449502E+03  0.13459408846E+04  0.59985884881E+03 0.  0.
         23    2    4    4    0    0 -0.64751268243E+03 -0.74526775518E+03  0.66756517610E+03  0.11952978134E+04  0.91634586621E+02 0.  0.
         23    2    4    4    0    0 -0.96847484627E+02  0.75471117519E+02  0.25293189229E+01  0.15064307125E+03  0.87244556300E+02 0.  0.
          1    1    3    3  502    0  0.46170300849E+03  0.36738455585E+03 -0.98897968480E+03  0.11516170791E+04  0.00000000000E+00 0. -1.
         -1    1    3    3    0  502  0.28265715857E+03  0.30241208182E+03 -0.79702874573E+03  0.89811077159E+03  0.00000000000E+00 0.  1.
         15    1    5    5    0    0 -0.27504019293E+03 -0.38249153227E+03  0.29942039354E+03  0.55821376710E+03  0.17770000000E+01 0.  1.
        -15    1    5    5    0    0 -0.37247248950E+03 -0.36277622291E+03  0.36814478256E+03  0.63708404626E+03  0.17770000000E+01 0. -1.
          3    1    6    6  503    0  0.84021961115E+01  0.28726598263E+02 -0.16095650286E+02  0.33983588765E+02  0.00000000000E+00 0. -1.
         -3    1    6    6    0  503 -0.10524968074E+03  0.46744519256E+02  0.18624969209E+02  0.11665948249E+03  0.00000000000E+00 0.  1.
<mgrwt>
<rscale>  0 0.10700668E+04</rscale>
<asrwt>0</asrwt>
<pdfrwt beam="1">  1        2 0.17536575E+00 0.10700668E+04</pdfrwt>
<pdfrwt beam="2">  1       -2 0.34704482E+00 0.10700668E+04</pdfrwt>
<totfact> 0.33433644E-01</totfact>
</mgrwt>
</event>
<event>
12    1  0.9321077E-008  0.9686438E+03  0.7818608E-02  0.9343620E-01
          1   -1    0    0  501    0  0.00000000000E+00  0.00000000000E+00  0.24926401665E+04  0.24926401665E+04  0.00000000000E+00 0. -1.
         -1   -1    0    0    0  501 -0.00000000000E+00 -0.00000000000E+00 -0.38382134006E+03  0.38382134006E+03  0.00000000000E+00 0.  1.
         23    2    1    2    0    0  0.49947917710E+03 -0.72527223696E+03  0.85219010870E+03  0.12288881751E+04  0.91863482569E+02 0.  0.
    5000000    2    1    2    0    0 -0.49947917710E+03  0.72527223696E+03  0.12566287178E+04  0.16475733315E+04  0.59990239400E+03 0.  0.
         23    2    4    4    0    0 -0.39986808373E+02  0.56222770947E+03  0.67635546130E+03  0.88461584157E+03  0.85962404501E+02 0.  0.
         23    2    4    4    0    0 -0.45949236873E+03  0.16304452749E+03  0.58027325645E+03  0.76295748993E+03  0.87580388342E+02 0.  0.
          4    1    3    3  502    0  0.30628899699E+03 -0.47528711947E+03  0.60185549584E+03  0.82579708977E+03  0.00000000000E+00 0. -1.
         -4    1    3    3    0  502  0.19319018011E+03 -0.24998511749E+03  0.25033461287E+03  0.40309108531E+03  0.00000000000E+00 0.  1.
         15    1    5    5    0    0 -0.57415586264E+02  0.29426775492E+03  0.32150263899E+03  0.43961024299E+03  0.17770000000E+01 0. -1.
        -15    1    5    5    0    0  0.17428777891E+02  0.26795995454E+03  0.35485282231E+03  0.44500559858E+03  0.17770000000E+01 0.  1.
          2    1    6    6  503    0 -0.73072611345E+02  0.24943974873E+02  0.48191387125E+02  0.91017680723E+02  0.00000000000E+00 0.  1.
         -2    1    6    6    0  503 -0.38641975738E+03  0.13810055262E+03  0.53208186933E+03  0.67193980921E+03  0.00000000000E+00 0. -1.
<mgrwt>
<rscale>  0 0.96864379E+03</rscale>
<asrwt>0</asrwt>
<pdfrwt beam="1">  1        1 0.38348309E+00 0.96864379E+03</pdfrwt>
<pdfrwt beam="2">  1       -1 0.59049438E-01 0.96864379E+03</pdfrwt>
<totfact> 0.40767971E+00</totfact>
</mgrwt>
</event>
<event>
12    1  0.9321077E-008  0.4812808E+03  0.7818608E-02  0.1018784E+00
          2   -1    0    0  501    0  0.00000000000E+00  0.00000000000E+00  0.11316154721E+04  0.11316154721E+04  0.00000000000E+00 0. -1.
         -2   -1    0    0    0  501 -0.00000000000E+00 -0.00000000000E+00 -0.36991937226E+03  0.36991937226E+03  0.00000000000E+00 0.  1.
         23    2    1    2    0    0  0.37841808091E+03  0.23707491701E+03  0.32224159412E+02  0.45675035571E+03  0.90430806421E+02 0.  0.
    5000000    2    1    2    0    0 -0.37841808091E+03 -0.23707491701E+03  0.72947194041E+03  0.10447844886E+04  0.60003379538E+03 0.  0.
         23    2    4    4    0    0 -0.25443097223E+02 -0.61064335230E+02  0.60984246658E+03  0.62014137586E+03  0.91056508717E+02 0.  0.
         23    2    4    4    0    0 -0.35297498369E+03 -0.17601058178E+03  0.11962947383E+03  0.42464311276E+03  0.10217386261E+03 0.  0.
          3    1    3    3  502    0  0.15574894853E+03  0.66088697876E+02 -0.22627536206E+02  0.17069697229E+03  0.00000000000E+00 0. -1.
         -3    1    3    3    0  502  0.22266913239E+03  0.17098621914E+03  0.54851695618E+02  0.28605338342E+03  0.00000000000E+00 0.  1.
         15    1    5    5    0    0 -0.38696012165E+02  0.43955175583E+01  0.13155349704E+03  0.13720853561E+03  0.17770000000E+01 0. -1.
        -15    1    5    5    0    0  0.13252914942E+02 -0.65459852788E+02  0.47828896954E+03  0.48293284025E+03  0.17770000000E+01 0.  1.
          1    1    6    6  503    0 -0.20120634757E+03 -0.44636494325E+02  0.48940794871E+02  0.21182920556E+03  0.00000000000E+00 0. -1.
         -1    1    6    6    0  503 -0.15176863612E+03 -0.13137408746E+03  0.70688678959E+02  0.21281390720E+03  0.00000000000E+00 0.  1.
<mgrwt>
<rscale>  0 0.48128079E+03</rscale>
<asrwt>0</asrwt>
<pdfrwt beam="1">  1        2 0.17409469E+00 0.48128079E+03</pdfrwt>
<pdfrwt beam="2">  1       -2 0.56910673E-01 0.48128079E+03</pdfrwt>
<totfact> 0.63113756E+01</totfact>
</mgrwt>
</event>
<event>
12    1  0.9321077E-008  0.5612211E+03  0.7818608E-02  0.9989296E-01
         -4   -1    0    0    0  501 -0.00000000000E+00  0.00000000000E+00  0.48687785455E+03  0.48687785455E+03  0.00000000000E+00 0.  1.
          4   -1    0    0  501    0  0.00000000000E+00 -0.00000000000E+00 -0.10408126255E+04  0.10408126255E+04  0.00000000000E+00 0. -1.
         23    2    1    2    0    0  0.57841683412E+02 -0.41562722818E+03 -0.66025222737E+03  0.78771030550E+03  0.91993850316E+02 0.  0.
    5000000    2    1    2    0    0 -0.57841683412E+02  0.41562722818E+03  0.10631745639E+03  0.73998017458E+03  0.60014631891E+03 0.  0.
         23    2    4    4    0    0  0.70145424638E+02 -0.11784857669E+03 -0.31711225324E+02  0.16711124051E+03  0.90066071685E+02 0.  0.
         23    2    4    4    0    0 -0.12798710805E+03  0.53347580487E+03  0.13802868171E+03  0.57286893407E+03  0.90276045781E+02 0.  0.
          1    1    3    3  502    0  0.65995731837E+02 -0.31205966828E+03 -0.55299722990E+03  0.63839064018E+03  0.00000000000E+00 0. -1.
         -1    1    3    3    0  502 -0.81540484251E+01 -0.10356755990E+03 -0.10725499747E+03  0.14931966532E+03  0.00000000000E+00 0.  1.
         15    1    5    5    0    0  0.62585901705E+02 -0.62043283018E+02 -0.57401489098E+02  0.10518770242E+03  0.17770000000E+01 0. -1.
        -15    1    5    5    0    0  0.75595229331E+01 -0.55805293670E+02  0.25690263773E+02  0.61923538096E+02  0.17770000000E+01 0.  1.
          2    1    6    6  503    0 -0.28089237161E+02  0.29791421394E+03  0.90517257613E+02  0.31262638731E+03  0.00000000000E+00 0. -1.
         -2    1    6    6    0  503 -0.99897870890E+02  0.23556159092E+03  0.47511424101E+02  0.26024254676E+03  0.00000000000E+00 0.  1.
<mgrwt>
<rscale>  0 0.56122107E+03</rscale>
<asrwt>0</asrwt>
<pdfrwt beam="1">  1        4 0.16012502E+00 0.56122107E+03</pdfrwt>
<pdfrwt beam="2">  1       -4 0.74904285E-01 0.56122107E+03</pdfrwt>
<totfact> 0.78939683E-01</totfact>
</mgrwt>
</event>
<event>
12    1  0.9321077E-008  0.4715089E+03  0.7818608E-02  0.1021495E+00
         -2   -1    0    0    0  501 -0.00000000000E+00  0.00000000000E+00  0.84691562634E+03  0.84691562634E+03  0.00000000000E+00 0.  1.
          2   -1    0    0  501    0  0.00000000000E+00 -0.00000000000E+00 -0.61791802944E+03  0.61791802944E+03  0.00000000000E+00 0. -1.
         23    2    1    2    0    0  0.19975086597E+03  0.23845334058E+03  0.60919129958E+03  0.68941583482E+03  0.86137969163E+02 0.  0.
    5000000    2    1    2    0    0 -0.19975086597E+03 -0.23845334058E+03 -0.38019370268E+03  0.77541782096E+03  0.59997095048E+03 0.  0.
         23    2    4    4    0    0  0.17266880063E+03 -0.12011027509E+03 -0.73746157286E+01  0.22801243369E+03  0.87717113879E+02 0.  0.
         23    2    4    4    0    0 -0.37241966661E+03 -0.11834306549E+03 -0.37281908695E+03  0.54740538727E+03  0.89202562676E+02 0.  0.
          1    1    3    3  502    0  0.25103827140E+02  0.69345631184E+02  0.20363832745E+03  0.21658159457E+03  0.00000000000E+00 0. -1.
         -1    1    3    3    0  502  0.17464703883E+03  0.16910770940E+03  0.40555297213E+03  0.47283424025E+03  0.00000000000E+00 0.  1.
         15    1    5    5    0    0  0.62317576310E+02  0.99075766673E+00 -0.14483118195E+02  0.64010783150E+02  0.17770000000E+01 0.  1.
        -15    1    5    5    0    0  0.11035122432E+03 -0.12110103276E+03  0.71085024659E+01  0.16400165054E+03  0.17770000000E+01 0. -1.
          1    1    6    6  503    0 -0.27905400560E+03 -0.12621478118E+03 -0.30021168584E+03  0.42886870409E+03  0.00000000000E+00 0. -1.
         -1    1    6    6    0  503 -0.93365661002E+02  0.78717156939E+01 -0.72607401118E+02  0.11853668318E+03  0.00000000000E+00 0.  1.
<mgrwt>
<rscale>  0 0.47150889E+03</rscale>
<asrwt>0</asrwt>
<pdfrwt beam="1">  1        2 0.95064313E-01 0.47150889E+03</pdfrwt>
<pdfrwt beam="2">  1       -2 0.13029471E+00 0.47150889E+03</pdfrwt>
<totfact> 0.21604991E+01</totfact>
</mgrwt>
</event>
<event>
12    1  0.9321077E-008  0.8609962E+03  0.7818608E-02  0.9475696E-01
         -2   -1    0    0    0  501 -0.00000000000E+00  0.00000000000E+00  0.26650342124E+03  0.26650342124E+03  0.00000000000E+00 0.  1.
          2   -1    0    0  501    0  0.00000000000E+00 -0.00000000000E+00 -0.29481471003E+04  0.29481471003E+04  0.00000000000E+00 0. -1.
         23    2    1    2    0    0  0.62337222960E+03 -0.43928316845E+03 -0.87766059643E+03  0.11662512497E+04  0.91056115086E+02 0.  0.
    5000000    2    1    2    0    0 -0.62337222960E+03  0.43928316845E+03 -0.18039830827E+04  0.20483992719E+04  0.60001831297E+03 0.  0.
         23    2    4    4    0    0 -0.62705757703E+03  0.13319926463E+03 -0.11247281177E+04  0.12978139788E+04  0.91457835826E+02 0.  0.
         23    2    4    4    0    0  0.36853474244E+01  0.30608390381E+03 -0.67925496496E+03  0.75058529314E+03  0.91049639713E+02 0.  0.
          1    1    3    3  502    0  0.27033015868E+03 -0.24598559512E+03 -0.41272332466E+03  0.55129651769E+03  0.00000000000E+00 0. -1.
         -1    1    3    3    0  502  0.35304207093E+03 -0.19329757333E+03 -0.46493727176E+03  0.61495473197E+03  0.00000000000E+00 0.  1.
         15    1    5    5    0    0 -0.12981238082E+03  0.63642082028E+02 -0.22433734634E+03  0.26689318370E+03  0.17770000000E+01 0. -1.
        -15    1    5    5    0    0 -0.49724519621E+03  0.69557182606E+02 -0.90039077136E+03  0.10309207951E+04  0.17770000000E+01 0.  1.
          3    1    6    6  503    0 -0.95580722901E+01  0.22203768908E+03 -0.57215480063E+03  0.61380225481E+03  0.00000000000E+00 0. -1.
         -3    1    6    6    0  503  0.13243419715E+02  0.84046214728E+02 -0.10710016433E+03  0.13678303833E+03  0.00000000000E+00 0.  1.
<mgrwt>
<rscale>  0 0.86099625E+03</rscale>
<asrwt>0</asrwt>
<pdfrwt beam="1">  1        2 0.45356111E+00 0.86099625E+03</pdfrwt>
<pdfrwt beam="2">  1       -2 0.41000525E-01 0.86099625E+03</pdfrwt>
<totfact> 0.11011603E+01</totfact>
</mgrwt>
</event>
<event>
12    1  0.9321077E-008  0.1212995E+04  0.7818608E-02  0.9101558E-01
         -2   -1    0    0    0  501 -0.00000000000E+00  0.00000000000E+00  0.83454710080E+03  0.83454710080E+03  0.00000000000E+00 0.  1.
          2   -1    0    0  501    0  0.00000000000E+00 -0.00000000000E+00 -0.23732237392E+04  0.23732237392E+04  0.00000000000E+00 0. -1.
         23    2    1    2    0    0  0.42266905779E+03 -0.11120821385E+04 -0.28089236193E+02  0.11935072890E+04  0.91075949355E+02 0.  0.
    5000000    2    1    2    0    0 -0.42266905779E+03  0.11120821385E+04 -0.15105874022E+04  0.20142635510E+04  0.60000628163E+03 0.  0.
         23    2    4    4    0    0 -0.15621220473E+03  0.80273114885E+03 -0.61922738192E+03  0.10298536262E+04  0.91522623212E+02 0.  0.
         23    2    4    4    0    0 -0.26645685305E+03  0.30935098965E+03 -0.89136002030E+03  0.98440992485E+03  0.88560290293E+02 0.  0.
          4    1    3    3  502    0  0.36288957005E+03 -0.86176593006E+03 -0.44256635658E+01  0.93506627827E+03  0.00000000000E+00 0. -1.
         -4    1    3    3    0  502  0.59779487733E+02 -0.25031620845E+03 -0.23663572627E+02  0.25844101074E+03  0.00000000000E+00 0.  1.
         15    1    5    5    0    0 -0.15722932596E+03  0.62018543823E+03 -0.46618444031E+03  0.79163257187E+03  0.17770000000E+01 0.  1.
        -15    1    5    5    0    0  0.10171212245E+01  0.18254571062E+03 -0.15304294161E+03  0.23822105429E+03  0.17770000000E+01 0. -1.
          3    1    6    6  503    0 -0.20310852590E+03  0.26499863381E+03 -0.78366629488E+03  0.85182757113E+03  0.00000000000E+00 0. -1.
         -3    1    6    6    0  503 -0.63348327154E+02  0.44352355846E+02 -0.10769372542E+03  0.13258235372E+03  0.00000000000E+00 0.  1.
<mgrwt>
<rscale>  0 0.12129950E+04</rscale>
<asrwt>0</asrwt>
<pdfrwt beam="1">  1        2 0.36511134E+00 0.12129950E+04</pdfrwt>
<pdfrwt beam="2">  1       -2 0.12839186E+00 0.12129950E+04</pdfrwt>
<totfact> 0.18031975E+00</totfact>
</mgrwt>
</event>
<event>
12    1  0.9321077E-008  0.1526466E+04  0.7818608E-02  0.8867041E-01
         -1   -1    0    0    0  501 -0.00000000000E+00  0.00000000000E+00  0.15645679384E+04  0.15645679384E+04  0.00000000000E+00 0.  1.
          1   -1    0    0  501    0  0.00000000000E+00 -0.00000000000E+00 -0.15667313834E+04  0.15667313834E+04  0.00000000000E+00 0. -1.
         23    2    1    2    0    0 -0.12467213824E+04 -0.82441904422E+03 -0.19109247973E+03  0.15096723497E+04  0.92807876325E+02 0.  0.
    5000000    2    1    2    0    0  0.12467213824E+04  0.82441904422E+03  0.18892903476E+03  0.16216269720E+04  0.59999907541E+03 0.  0.
         23    2    4    4    0    0  0.10235289436E+03 -0.35187078485E+02 -0.78855435921E+02  0.16261266882E+03  0.92252126306E+02 0.  0.
         23    2    4    4    0    0  0.11443684880E+04  0.85960612271E+03  0.26778447068E+03  0.14590143032E+04  0.92262081560E+02 0.  0.
          3    1    3    3  502    0 -0.69475715508E+03 -0.51165246558E+03 -0.95682924373E+02  0.86811921536E+03  0.00000000000E+00 0. -1.
         -3    1    3    3    0  502 -0.55196422730E+03 -0.31276657865E+03 -0.95409555360E+02  0.64155313435E+03  0.00000000000E+00 0.  1.
         15    1    5    5    0    0  0.89560785353E+02 -0.50070263395E+02 -0.92890824082E+02  0.13841975465E+03  0.17770000000E+01 0. -1.
        -15    1    5    5    0    0  0.12792109011E+02  0.14883184910E+02  0.14035388161E+02  0.24192914166E+02  0.17770000000E+01 0.  1.
          3    1    6    6  503    0  0.47328884861E+03  0.40355742320E+03  0.14145889730E+03  0.63786483495E+03  0.00000000000E+00 0. -1.
         -3    1    6    6    0  503  0.67107963941E+03  0.45604869950E+03  0.12632557338E+03  0.82114946827E+03  0.00000000000E+00 0.  1.
<mgrwt>
<rscale>  0 0.15264663E+04</rscale>
<asrwt>0</asrwt>
<pdfrwt beam="1">  1        1 0.24103560E+00 0.15264663E+04</pdfrwt>
<pdfrwt beam="2">  1       -1 0.24070276E+00 0.15264663E+04</pdfrwt>
<totfact> 0.44485566E-01</totfact>
</mgrwt>
</event>
<event>
12    1  0.9321077E-008  0.9164176E+03  0.7818608E-02  0.9405288E-01
         -1   -1    0    0    0  501 -0.00000000000E+00  0.00000000000E+00  0.10232254768E+04  0.10232254768E+04  0.00000000000E+00 0.  1.
          1   -1    0    0  501    0  0.00000000000E+00 -0.00000000000E+00 -0.96722279356E+03  0.96722279356E+03  0.00000000000E+00 0. -1.
         23    2    1    2    0    0  0.82492661973E+03 -0.19767609008E+03  0.33192463538E+03  0.91543026364E+03  0.90878157298E+02 0.  0.
    5000000    2    1    2    0    0 -0.82492661973E+03  0.19767609008E+03 -0.27592195210E+03  0.10750180068E+04  0.59995918751E+03 0.  0.
         23    2    4    4    0    0 -0.26689557484E+03 -0.16623764004E+03  0.44631378896E+02  0.33019978597E+03  0.90397665006E+02 0.  0.
         23    2    4    4    0    0 -0.55803104490E+03  0.36391373012E+03 -0.32055333100E+03  0.74481822080E+03  0.90376401644E+02 0.  0.
          1    1    3    3  502    0  0.35486382835E+03 -0.84368295654E+02  0.94711715559E+02  0.37685097193E+03  0.00000000000E+00 0. -1.
         -1    1    3    3    0  502  0.47006279139E+03 -0.11330779443E+03  0.23721291982E+03  0.53857929171E+03  0.00000000000E+00 0.  1.
         15    1    5    5    0    0 -0.77671226609E+02 -0.61709182870E+02 -0.26359491005E+02  0.10265877064E+03  0.17770000000E+01 0.  1.
        -15    1    5    5    0    0 -0.18922434823E+03 -0.10452845717E+03  0.70990869901E+02  0.22754101533E+03  0.17770000000E+01 0. -1.
          3    1    6    6  503    0 -0.25619972907E+03  0.13001432814E+03 -0.17352457801E+03  0.33563790887E+03  0.00000000000E+00 0. -1.
         -3    1    6    6    0  503 -0.30183131583E+03  0.23389940198E+03 -0.14702875299E+03  0.40918031192E+03  0.00000000000E+00 0.  1.
<mgrwt>
<rscale>  0 0.91641757E+03</rscale>
<asrwt>0</asrwt>
<pdfrwt beam="1">  1        1 0.14880351E+00 0.91641757E+03</pdfrwt>
<pdfrwt beam="2">  1       -1 0.15741930E+00 0.91641757E+03</pdfrwt>
<totfact> 0.49725368E+00</totfact>
</mgrwt>
</event>
<event>
12    1  0.9321077E-008  0.6128812E+03  0.7818608E-02  0.9879036E-01
          2   -1    0    0  501    0  0.00000000000E+00  0.00000000000E+00  0.14536550292E+04  0.14536550292E+04  0.00000000000E+00 0. -1.
         -2   -1    0    0    0  501 -0.00000000000E+00 -0.00000000000E+00 -0.27176407047E+03  0.27176407047E+03  0.00000000000E+00 0.  1.
         23    2    1    2    0    0 -0.43161009812E+02  0.47117012615E+03  0.34916683985E+03  0.59522465541E+03  0.92253714409E+02 0.  0.
    5000000    2    1    2    0    0  0.43161009812E+02 -0.47117012615E+03  0.83272411890E+03  0.11301944443E+04  0.60003821806E+03 0.  0.
         23    2    4    4    0    0 -0.26365392109E+03 -0.21938275753E+03  0.34777388545E+03  0.49709822600E+03  0.92291854896E+02 0.  0.
         23    2    4    4    0    0  0.30681493090E+03 -0.25178736862E+03  0.48495023345E+03  0.63309621828E+03  0.90010065304E+02 0.  0.
          2    1    3    3  502    0 -0.43723211274E+02  0.33644725471E+03  0.29647917672E+03  0.45056450885E+03  0.00000000000E+00 0. -1.
         -2    1    3    3    0  502  0.56220146183E+00  0.13472287143E+03  0.52687663129E+02  0.14466014656E+03  0.00000000000E+00 0.  1.
         15    1    5    5    0    0 -0.12208451812E+03 -0.16015439431E+03  0.20796617201E+03  0.28949463900E+03  0.17770000000E+01 0. -1.
        -15    1    5    5    0    0 -0.14156940297E+03 -0.59228363221E+02  0.13980771344E+03  0.20760358699E+03  0.17770000000E+01 0.  1.
          4    1    6    6  503    0  0.18814368757E+02 -0.15297435378E+02  0.38545683939E+01  0.24552997747E+02  0.00000000000E+00 0.  1.
         -4    1    6    6    0  503  0.28800056215E+03 -0.23648993324E+03  0.48109566505E+03  0.60854322053E+03  0.00000000000E+00 0. -1.
<mgrwt>
<rscale>  0 0.61288117E+03</rscale>
<asrwt>0</asrwt>
<pdfrwt beam="1">  1        2 0.22363923E+00 0.61288117E+03</pdfrwt>
<pdfrwt beam="2">  1       -2 0.41809858E-01 0.61288117E+03</pdfrwt>
<totfact> 0.75593138E+01</totfact>
</mgrwt>
</event>
<event>
12    1  0.9321077E-008  0.2477757E+04  0.7818608E-02  0.8410953E-01
          2   -1    0    0  501    0  0.00000000000E+00  0.00000000000E+00  0.45560941394E+04  0.45560941394E+04  0.00000000000E+00 0. -1.
         -2   -1    0    0    0  501 -0.00000000000E+00 -0.00000000000E+00 -0.13849157049E+04  0.13849157049E+04  0.00000000000E+00 0.  1.
         23    2    1    2    0    0  0.24664718428E+04 -0.15621244623E+02  0.18091593808E+04  0.30602273815E+04  0.90590211115E+02 0.  0.
    5000000    2    1    2    0    0 -0.24664718428E+04  0.15621244623E+02  0.13620190537E+04  0.28807824629E+04  0.60007026355E+03 0.  0.
         23    2    4    4    0    0 -0.16153065723E+04 -0.11789083543E+03  0.11507136084E+04  0.19889656779E+04  0.93429585602E+02 0.  0.
         23    2    4    4    0    0 -0.85116527047E+03  0.13351208005E+03  0.21130544531E+03  0.89181678502E+03  0.91539028056E+02 0.  0.
          1    1    3    3  502    0  0.14994126929E+04  0.13484187542E+02  0.11463078115E+04  0.18874432033E+04  0.00000000000E+00 0. -1.
         -1    1    3    3    0  502  0.96705914986E+03 -0.29105432165E+02  0.66285156930E+03  0.11727841781E+04  0.00000000000E+00 0.  1.
         15    1    5    5    0    0 -0.29652981839E+03 -0.57383191427E+02  0.20596260406E+03  0.36557696297E+03  0.17770000000E+01 0. -1.
        -15    1    5    5    0    0 -0.13187767539E+04 -0.60507644004E+02  0.94475100434E+03  0.16233887149E+04  0.17770000000E+01 0.  1.
          2    1    6    6  503    0 -0.61661794894E+03  0.13749524669E+03  0.15944548596E+03  0.65157156231E+03  0.00000000000E+00 0.  1.
         -2    1    6    6    0  503 -0.23454732153E+03 -0.39831666336E+01  0.51859959343E+02  0.24024522271E+03  0.00000000000E+00 0. -1.
<mgrwt>
<rscale>  0 0.24777573E+04</rscale>
<asrwt>0</asrwt>
<pdfrwt beam="1">  1        2 0.70093755E+00 0.24777573E+04</pdfrwt>
<pdfrwt beam="2">  1       -2 0.21306396E+00 0.24777573E+04</pdfrwt>
<totfact> 0.10097280E-02</totfact>
</mgrwt>
</event>
<event>
12    1  0.9321077E-008  0.5427496E+03  0.7818608E-02  0.1003186E+00
          1   -1    0    0  501    0  0.00000000000E+00  0.00000000000E+00  0.26143407847E+03  0.26143407847E+03  0.00000000000E+00 0. -1.
         -1   -1    0    0    0  501 -0.00000000000E+00 -0.00000000000E+00 -0.18284833072E+04  0.18284833072E+04  0.00000000000E+00 0.  1.
         23    2    1    2    0    0  0.24285588726E+03 -0.38027282422E+03 -0.11328107253E+04  0.12226374708E+04  0.89419477006E+02 0.  0.
    5000000    2    1    2    0    0 -0.24285588726E+03  0.38027282422E+03 -0.43423850350E+03  0.86727991491E+03  0.60002080804E+03 0.  0.
         23    2    4    4    0    0 -0.31949608636E+03  0.40861583982E+03 -0.13472405144E+03  0.54355444979E+03  0.90863722682E+02 0.  0.
         23    2    4    4    0    0  0.76640199096E+02 -0.28343015602E+02 -0.29951445206E+03  0.32372546513E+03  0.91718172286E+02 0.  0.
          3    1    3    3  502    0  0.79681335012E+02 -0.79610550581E+02 -0.20722171469E+03  0.23585545139E+03  0.00000000000E+00 0. -1.
         -3    1    3    3    0  502  0.16317455225E+03 -0.30066227363E+03 -0.92558901058E+03  0.98678201939E+03  0.00000000000E+00 0.  1.
         15    1    5    5    0    0 -0.21374666423E+03  0.20453606223E+03 -0.91442873158E+02  0.30965722017E+03  0.17770000000E+01 0. -1.
        -15    1    5    5    0    0 -0.10574942213E+03  0.20407977759E+03 -0.43281178281E+02  0.23389722962E+03  0.17770000000E+01 0.  1.
          2    1    6    6  503    0  0.53834004899E+02 -0.50107611676E+02 -0.11478139934E+03  0.13632183415E+03  0.00000000000E+00 0. -1.
         -2    1    6    6    0  503  0.22806194197E+02  0.21764596075E+02 -0.18473305272E+03  0.18740363098E+03  0.00000000000E+00 0.  1.
<mgrwt>
<rscale>  0 0.54274957E+03</rscale>
<asrwt>0</asrwt>
<pdfrwt beam="1">  1        1 0.40220629E-01 0.54274957E+03</pdfrwt>
<pdfrwt beam="2">  1       -1 0.28130512E+00 0.54274957E+03</pdfrwt>
<totfact> 0.49428456E+00</totfact>
</mgrwt>
</event>
<event>
12    1  0.9321077E-008  0.1059769E+04  0.7818608E-02  0.9245316E-01
         -2   -1    0    0    0  501 -0.00000000000E+00  0.00000000000E+00  0.43959820059E+03  0.43959820059E+03  0.00000000000E+00 0.  1.
          2   -1    0    0  501    0  0.00000000000E+00 -0.00000000000E+00 -0.29415433078E+04  0.29415433078E+04  0.00000000000E+00 0. -1.
         23    2    1    2    0    0 -0.46336936162E+02  0.10532775443E+04 -0.12527747924E+04  0.16399283221E+04  0.91539740580E+02 0.  0.
    5000000    2    1    2    0    0  0.46336936162E+02 -0.10532775443E+04 -0.12491703148E+04  0.17412131863E+04  0.59988014447E+03 0.  0.
         23    2    4    4    0    0 -0.11508927777E+02 -0.57040693078E+03 -0.10682375366E+04  0.12141457227E+04  0.86728767905E+02 0.  0.
         23    2    4    4    0    0  0.57845863939E+02 -0.48287061354E+03 -0.18093277818E+03  0.52706746360E+03  0.92483877375E+02 0.  0.
          2    1    3    3  502    0 -0.73235028694E+02  0.76731084036E+03 -0.89714427514E+03  0.11827920974E+04  0.00000000000E+00 0. -1.
         -2    1    3    3    0  502  0.26898092532E+02  0.28596670395E+03 -0.35563051723E+03  0.45713622471E+03  0.00000000000E+00 0.  1.
         15    1    5    5    0    0 -0.20335302155E+02 -0.26485443137E+03 -0.58272073187E+03  0.64041236981E+03  0.17770000000E+01 0. -1.
        -15    1    5    5    0    0  0.88263743788E+01 -0.30555249941E+03 -0.48551680478E+03  0.57373335290E+03  0.17770000000E+01 0.  1.
          3    1    6    6  503    0  0.15373545849E+02 -0.19299733918E+02 -0.27440007381E+02  0.36902298659E+02  0.00000000000E+00 0. -1.
         -3    1    6    6    0  503  0.42472318090E+02 -0.46357087962E+03 -0.15349277080E+03  0.49016516494E+03  0.00000000000E+00 0.  1.
<mgrwt>
<rscale>  0 0.10597693E+04</rscale>
<asrwt>0</asrwt>
<pdfrwt beam="1">  1        2 0.45254512E+00 0.10597693E+04</pdfrwt>
<pdfrwt beam="2">  1       -2 0.67630493E-01 0.10597693E+04</pdfrwt>
<totfact> 0.38409022E+00</totfact>
</mgrwt>
</event>
<event>
12    1  0.9321077E-008  0.1030200E+04  0.7818608E-02  0.9276028E-01
         -2   -1    0    0    0  501 -0.00000000000E+00  0.00000000000E+00  0.45657028248E+03  0.45657028248E+03  0.00000000000E+00 0.  1.
          2   -1    0    0  501    0  0.00000000000E+00 -0.00000000000E+00 -0.28494523998E+04  0.28494523998E+04  0.00000000000E+00 0. -1.
         23    2    1    2    0    0  0.89816301470E+03  0.28975962490E+03 -0.41717569495E+03  0.10357432260E+04  0.89838903101E+02 0.  0.
    5000000    2    1    2    0    0 -0.89816301470E+03 -0.28975962490E+03 -0.19757064223E+04  0.22702794563E+04  0.60007957899E+03 0.  0.
         23    2    4    4    0    0 -0.80791741969E+03 -0.15937388593E+02 -0.15042068957E+04  0.17099736095E+04  0.91579488457E+02 0.  0.
         23    2    4    4    0    0 -0.90245595008E+02 -0.27382223631E+03 -0.47149952660E+03  0.56030584675E+03  0.92238570012E+02 0.  0.
          1    1    3    3  502    0  0.40459664375E+03  0.92109626345E+02 -0.15508677153E+03  0.44298367250E+03  0.00000000000E+00 0. -1.
         -1    1    3    3    0  502  0.49356637095E+03  0.19764999855E+03 -0.26208892342E+03  0.59275955347E+03  0.00000000000E+00 0.  1.
         15    1    5    5    0    0 -0.15637422356E+03  0.33062625520E+02 -0.29082892900E+03  0.33185939594E+03  0.17770000000E+01 0. -1.
        -15    1    5    5    0    0 -0.65154319613E+03 -0.49000014112E+02 -0.12133779667E+04  0.13781142136E+04  0.17770000000E+01 0.  1.
          3    1    6    6  503    0 -0.10685744978E+03 -0.22756651747E+03 -0.36734279800E+03  0.44513567111E+03  0.00000000000E+00 0.  1.
         -3    1    6    6    0  503  0.16611854775E+02 -0.46255718833E+02 -0.10415672860E+03  0.11517017564E+03  0.00000000000E+00 0. -1.
<mgrwt>
<rscale>  0 0.10302001E+04</rscale>
<asrwt>0</asrwt>
<pdfrwt beam="1">  1        2 0.43837730E+00 0.10302001E+04</pdfrwt>
<pdfrwt beam="2">  1       -2 0.70241581E-01 0.10302001E+04</pdfrwt>
<totfact> 0.40370338E+00</totfact>
</mgrwt>
</event>
<event>
12    1  0.1014732E-007  0.1047569E+04  0.7818608E-02  0.9257858E-01
          2   -1    0    0  501    0  0.00000000000E+00  0.00000000000E+00  0.22498907046E+04  0.22498907046E+04  0.00000000000E+00 0. -1.
         -2   -1    0    0    0  501 -0.00000000000E+00 -0.00000000000E+00 -0.57809287034E+03  0.57809287034E+03  0.00000000000E+00 0.  1.
         23    2    1    2    0    0 -0.65840486939E+03 -0.75490226308E+03  0.12073113373E+04  0.15713971148E+04  0.91180196857E+02 0.  0.
    5000000    2    1    2    0    0  0.65840486939E+03  0.75490226308E+03  0.46448649698E+03  0.12565864602E+04  0.59990618199E+03 0.  0.
         23    2    4    4    0    0  0.17639870744E+03  0.50241858873E+03  0.75763188444E+01  0.54044616332E+03  0.92107071172E+02 0.  0.
         23    2    4    4    0    0  0.48200616195E+03  0.25248367435E+03  0.45691017813E+03  0.71614029686E+03  0.89510155421E+02 0.  0.
          1    1    3    3  502    0 -0.24449453520E+03 -0.21887134149E+03  0.37245349893E+03  0.49639082459E+03  0.00000000000E+00 0. -1.
         -1    1    3    3    0  502 -0.41391033419E+03 -0.53603092159E+03  0.83485783836E+03  0.10750062902E+04  0.00000000000E+00 0.  1.
         15    1    5    5    0    0  0.68403260887E+02  0.94557011290E+02 -0.16295546436E+02  0.11785048598E+03  0.17770000000E+01 0. -1.
        -15    1    5    5    0    0  0.10799544655E+03  0.40786157744E+03  0.23871865281E+02  0.42259567734E+03  0.17770000000E+01 0.  1.
          1    1    6    6  503    0  0.20373165193E+03  0.15594964488E+03  0.20031618359E+03  0.32550491724E+03  0.00000000000E+00 0. -1.
         -1    1    6    6    0  503  0.27827451002E+03  0.96534029469E+02  0.25659399454E+03  0.39063537962E+03  0.00000000000E+00 0.  1.
<mgrwt>
<rscale>  0 0.10475686E+04</rscale>
<asrwt>0</asrwt>
<pdfrwt beam="1">  1        2 0.34613703E+00 0.10475686E+04</pdfrwt>
<pdfrwt beam="2">  1       -2 0.88937366E-01 0.10475686E+04</pdfrwt>
<totfact> 0.52524713E+00</totfact>
</mgrwt>
</event>
<event>
12    1  0.9321077E-008  0.3215176E+03  0.7818608E-02  0.1074953E+00
         -2   -1    0    0    0  501 -0.00000000000E+00  0.00000000000E+00  0.54446957161E+03  0.54446957161E+03  0.00000000000E+00 0.  1.
          2   -1    0    0  501    0  0.00000000000E+00 -0.00000000000E+00 -0.36377123825E+03  0.36377123825E+03  0.00000000000E+00 0. -1.
         23    2    1    2    0    0 -0.16897923557E+03  0.15084594205E+03 -0.22178765829E+01  0.24124108458E+03  0.82969040170E+02 0.  0.
    5000000    2    1    2    0    0  0.16897923557E+03 -0.15084594205E+03  0.18291620995E+03  0.66699972528E+03  0.60010150256E+03 0.  0.
         23    2    4    4    0    0  0.69603782495E+02 -0.24803578327E+03  0.34153126899E+03  0.43735891593E+03  0.90954809245E+02 0.  0.
         23    2    4    4    0    0  0.99375453072E+02  0.97189841219E+02 -0.15861505905E+03  0.22964080935E+03  0.90856031467E+02 0.  0.
          4    1    3    3  502    0 -0.78670559972E+02  0.61014572636E+02 -0.41619710542E+02  0.10790753165E+03  0.00000000000E+00 0.  1.
         -4    1    3    3    0  502 -0.90308675595E+02  0.89831369417E+02  0.39401833960E+02  0.13333355294E+03  0.00000000000E+00 0. -1.
         15    1    5    5    0    0  0.47789493551E+02 -0.12872070722E+03  0.10988022651E+03  0.17586835437E+03  0.17770000000E+01 0.  1.
        -15    1    5    5    0    0  0.21814288944E+02 -0.11931507605E+03  0.23165104248E+03  0.26149056157E+03  0.17770000000E+01 0. -1.
          3    1    6    6  503    0  0.10109094446E+03  0.54681397137E+02 -0.79295351741E+02  0.13963232811E+03  0.00000000000E+00 0. -1.
         -3    1    6    6    0  503 -0.17154913886E+01  0.42508444082E+02 -0.79319707305E+02  0.90008481245E+02  0.00000000000E+00 0.  1.
<mgrwt>
<rscale>  0 0.32151765E+03</rscale>
<asrwt>0</asrwt>
<pdfrwt beam="1">  1        2 0.55964806E-01 0.32151765E+03</pdfrwt>
<pdfrwt beam="2">  1       -2 0.83764549E-01 0.32151765E+03</pdfrwt>
<totfact> 0.11440630E+02</totfact>
</mgrwt>
</event>
<event>
12    1  0.1435174E-007  0.1301733E+04  0.7818608E-02  0.9028192E-01
          1   -1    0    0  501    0  0.00000000000E+00  0.00000000000E+00  0.23394418595E+04  0.23394418595E+04  0.00000000000E+00 0. -1.
         -1   -1    0    0    0  501 -0.00000000000E+00 -0.00000000000E+00 -0.74336203755E+03  0.74336203755E+03  0.00000000000E+00 0.  1.
         23    2    1    2    0    0  0.64323628034E+03  0.10684123238E+04  0.79580768816E+03  0.14841376648E+04  0.11873047446E+03 0.  0.
    5000000    2    1    2    0    0 -0.64323628034E+03 -0.10684123238E+04  0.80027213380E+03  0.15986662322E+04  0.60003368905E+03 0.  0.
         23    2    4    4    0    0 -0.45113675311E+03 -0.10593092052E+04  0.58011613288E+03  0.12924653605E+04  0.90948436974E+02 0.  0.
         23    2    4    4    0    0 -0.19209952723E+03 -0.91031186145E+01  0.22015600092E+03  0.30620087178E+03  0.91132946872E+02 0.  0.
          4    1    3    3  502    0  0.39603876241E+03  0.54310318033E+03  0.42945714655E+03  0.79764729456E+03  0.00000000000E+00 0.  1.
         -4    1    3    3    0  502  0.24719751793E+03  0.52530914348E+03  0.36635054161E+03  0.68649037024E+03  0.00000000000E+00 0. -1.
         15    1    5    5    0    0 -0.25072191993E+03 -0.69234691286E+03  0.35196203267E+03  0.81614101664E+03  0.17770000000E+01 0.  1.
        -15    1    5    5    0    0 -0.20041483319E+03 -0.36696229233E+03  0.22815410022E+03  0.47632434383E+03  0.17770000000E+01 0. -1.
          3    1    6    6  503    0 -0.11777673289E+03 -0.24646815012E+02  0.73353486341E+02  0.14092394494E+03  0.00000000000E+00 0. -1.
         -3    1    6    6    0  503 -0.74322794336E+02  0.15543696397E+02  0.14680251458E+03  0.16527692683E+03  0.00000000000E+00 0.  1.
<mgrwt>
<rscale>  0 0.13017333E+04</rscale>
<asrwt>0</asrwt>
<pdfrwt beam="1">  1        1 0.35991413E+00 0.13017333E+04</pdfrwt>
<pdfrwt beam="2">  1       -1 0.11436339E+00 0.13017333E+04</pdfrwt>
<totfact> 0.11863171E+00</totfact>
</mgrwt>
</event>
<event>
12    1  0.9321077E-008  0.1342095E+04  0.7818608E-02  0.8996834E-01
          2   -1    0    0  501    0  0.00000000000E+00  0.00000000000E+00  0.25865451846E+04  0.25865451846E+04  0.00000000000E+00 0. -1.
         -2   -1    0    0    0  501 -0.00000000000E+00 -0.00000000000E+00 -0.76036386068E+03  0.76036386068E+03  0.00000000000E+00 0.  1.
         23    2    1    2    0    0  0.44881522254E+03 -0.12578906533E+04  0.93230690918E+03  0.16314315489E+04  0.92998529119E+02 0.  0.
    5000000    2    1    2    0    0 -0.44881522254E+03  0.12578906533E+04  0.89387441472E+03  0.17154774963E+04  0.60010630021E+03 0.  0.
         23    2    4    4    0    0 -0.26523014605E+03  0.80447026063E+03  0.22304173840E+03  0.88051142425E+03  0.89628793140E+02 0.  0.
         23    2    4    4    0    0 -0.18358507648E+03  0.45342039263E+03  0.67083267631E+03  0.83496607206E+03  0.88647217270E+02 0.  0.
          3    1    3    3  502    0  0.28636796522E+03 -0.86166173491E+03  0.58584046315E+03  0.10805908593E+04  0.00000000000E+00 0. -1.
         -3    1    3    3    0  502  0.16244725731E+03 -0.39622891834E+03  0.34646644603E+03  0.55084068964E+03  0.00000000000E+00 0.  1.
         15    1    5    5    0    0 -0.23442064723E+03  0.59914338275E+03  0.15225340816E+03  0.66114301854E+03  0.17770000000E+01 0.  1.
        -15    1    5    5    0    0 -0.30809498825E+02  0.20532687788E+03  0.70788330247E+02  0.21936840572E+03  0.17770000000E+01 0. -1.
          4    1    6    6  503    0 -0.14909828089E+02  0.14197806761E+03  0.20351599013E+03  0.24859371049E+03  0.00000000000E+00 0.  1.
         -4    1    6    6    0  503 -0.16867524840E+03  0.31144232502E+03  0.46731668618E+03  0.58637236157E+03  0.00000000000E+00 0. -1.
<mgrwt>
<rscale>  0 0.13420947E+04</rscale>
<asrwt>0</asrwt>
<pdfrwt beam="1">  1        2 0.39793002E+00 0.13420947E+04</pdfrwt>
<pdfrwt beam="2">  1       -2 0.11697906E+00 0.13420947E+04</pdfrwt>
<totfact> 0.16933682E+00</totfact>
</mgrwt>
</event>
<event>
12    1  0.9321077E-008  0.1616411E+04  0.7818608E-02  0.8810529E-01
         -1   -1    0    0    0  501 -0.00000000000E+00  0.00000000000E+00  0.22531623136E+04  0.22531623136E+04  0.00000000000E+00 0.  1.
          1   -1    0    0  501    0  0.00000000000E+00 -0.00000000000E+00 -0.11673857115E+04  0.11673857115E+04  0.00000000000E+00 0. -1.
         23    2    1    2    0    0  0.10021358062E+04  0.11982178420E+04  0.62550349638E+03  0.16850915359E+04  0.90976313545E+02 0.  0.
    5000000    2    1    2    0    0 -0.10021358062E+04 -0.11982178420E+04  0.46027310570E+03  0.17354564892E+04  0.59996310156E+03 0.  0.
         23    2    4    4    0    0 -0.58233807879E+03 -0.10727928200E+04  0.37204152154E+03  0.12793216112E+04  0.90811995367E+02 0.  0.
         23    2    4    4    0    0 -0.41979772737E+03 -0.12542502196E+03  0.88231584164E+02  0.45613487797E+03  0.91173715616E+02 0.  0.
          1    1    3    3  502    0  0.80274047044E+03  0.91000935092E+03  0.50717043164E+03  0.13151924302E+04  0.00000000000E+00 0. -1.
         -1    1    3    3    0  502  0.19939533571E+03  0.28820849106E+03  0.11833306474E+03  0.36989910575E+03  0.00000000000E+00 0.  1.
         15    1    5    5    0    0 -0.19967920075E+03 -0.43956319951E+03  0.11749047163E+03  0.49688505535E+03  0.17770000000E+01 0.  1.
        -15    1    5    5    0    0 -0.38265887804E+03 -0.63322962051E+03  0.25455104991E+03  0.78243655588E+03  0.17770000000E+01 0. -1.
          2    1    6    6  503    0 -0.41313196502E+03 -0.13493630456E+03  0.80031295950E+02  0.44191722657E+03  0.00000000000E+00 0. -1.
         -2    1    6    6    0  503 -0.66657623505E+01  0.95112826045E+01  0.82002882142E+01  0.14217651399E+02  0.00000000000E+00 0.  1.
<mgrwt>
<rscale>  0 0.16164109E+04</rscale>
<asrwt>0</asrwt>
<pdfrwt beam="1">  1        1 0.17959780E+00 0.16164109E+04</pdfrwt>
<pdfrwt beam="2">  1       -1 0.34664036E+00 0.16164109E+04</pdfrwt>
<totfact> 0.17317141E-01</totfact>
</mgrwt>
</event>
<event>
12    1  0.9321077E-008  0.5391084E+03  0.7818608E-02  0.1004047E+00
          1   -1    0    0  501    0  0.00000000000E+00  0.00000000000E+00  0.11053501626E+04  0.11053501626E+04  0.00000000000E+00 0. -1.
         -1   -1    0    0    0  501 -0.00000000000E+00 -0.00000000000E+00 -0.31419385388E+03  0.31419385388E+03  0.00000000000E+00 0.  1.
         23    2    1    2    0    0 -0.32931357084E+03  0.22193683627E+03  0.97059872587E+02  0.41971857160E+03  0.95077196247E+02 0.  0.
    5000000    2    1    2    0    0  0.32931357084E+03 -0.22193683627E+03  0.69409643611E+03  0.99982544487E+03  0.60014804036E+03 0.  0.
         23    2    4    4    0    0  0.72492738789E+02 -0.36695341009E+03  0.25525091174E+03  0.46225419225E+03  0.92821915295E+02 0.  0.
         23    2    4    4    0    0  0.25682083205E+03  0.14501657382E+03  0.43884552437E+03  0.53757125262E+03  0.97008818768E+02 0.  0.
          3    1    3    3  502    0 -0.14196388333E+03  0.62093079639E+02  0.75897133869E+02  0.17253889312E+03  0.00000000000E+00 0. -1.
         -3    1    3    3    0  502 -0.18734968751E+03  0.15984375663E+03  0.21162738718E+02  0.24717967848E+03  0.00000000000E+00 0.  1.
         15    1    5    5    0    0  0.37575232009E+02 -0.30425787600E+03  0.16910950780E+03  0.35012274494E+03  0.17770000000E+01 0. -1.
        -15    1    5    5    0    0  0.34917506780E+02 -0.62695534087E+02  0.86141403938E+02  0.11213144731E+03  0.17770000000E+01 0.  1.
          2    1    6    6  503    0  0.11875440076E+02  0.20902637433E+02  0.92529025654E+02  0.95601082196E+02  0.00000000000E+00 0.  1.
         -2    1    6    6    0  503  0.24494539198E+03  0.12411393639E+03  0.34631649872E+03  0.44197017042E+03  0.00000000000E+00 0. -1.
<mgrwt>
<rscale>  0 0.53910840E+03</rscale>
<asrwt>0</asrwt>
<pdfrwt beam="1">  1        1 0.17005387E+00 0.53910840E+03</pdfrwt>
<pdfrwt beam="2">  1       -1 0.48337517E-01 0.53910840E+03</pdfrwt>
<totfact> 0.56424554E+01</totfact>
</mgrwt>
</event>
<event>
12    1  0.9321077E-008  0.1884431E+03  0.7818608E-02  0.1159873E+00
          1   -1    0    0  501    0  0.00000000000E+00  0.00000000000E+00  0.72448879348E+03  0.72448879348E+03  0.00000000000E+00 0. -1.
         -1   -1    0    0    0  501 -0.00000000000E+00 -0.00000000000E+00 -0.24210260138E+03  0.24210260138E+03  0.00000000000E+00 0.  1.
         23    2    1    2    0    0  0.55915376912E+02 -0.49038137530E+02 -0.79266055171E+02  0.14091917856E+03  0.89687452172E+02 0.  0.
    5000000    2    1    2    0    0 -0.55915376912E+02  0.49038137530E+02  0.56165224727E+03  0.82567221629E+03  0.60062475272E+03 0.  0.
         23    2    4    4    0    0 -0.10097499257E+03  0.12022686131E+03  0.64961550539E+03  0.67444759554E+03  0.90712771884E+02 0.  0.
         23    2    4    4    0    0  0.45059615658E+02 -0.71188723781E+02 -0.87963258123E+02  0.15122462074E+03  0.89627829286E+02 0.  0.
          2    1    3    3  502    0  0.77294086477E+02 -0.35647342421E+02 -0.39524039186E+02  0.93846995155E+02  0.00000000000E+00 0. -1.
         -2    1    3    3    0  502 -0.21378709565E+02 -0.13390795109E+02 -0.39742015985E+02  0.47072183409E+02  0.00000000000E+00 0.  1.
         15    1    5    5    0    0 -0.73283375642E+02  0.58972889199E+02  0.21532115157E+03  0.23497789438E+03  0.17770000000E+01 0. -1.
        -15    1    5    5    0    0 -0.27691616928E+02  0.61253972111E+02  0.43429435382E+03  0.43946970116E+03  0.17770000000E+01 0.  1.
          3    1    6    6  503    0  0.55391811442E+02 -0.30500086589E+02 -0.89065811989E+02  0.10923015574E+03  0.00000000000E+00 0.  1.
         -3    1    6    6    0  503 -0.10332195784E+02 -0.40688637192E+02  0.11025538659E+01  0.41994465007E+02  0.00000000000E+00 0. -1.
<mgrwt>
<rscale>  0 0.18844309E+03</rscale>
<asrwt>0</asrwt>
<pdfrwt beam="1">  1        1 0.11145981E+00 0.18844309E+03</pdfrwt>
<pdfrwt beam="2">  1       -1 0.37246554E-01 0.18844309E+03</pdfrwt>
<totfact> 0.19250636E+02</totfact>
</mgrwt>
</event>
<event>
12    1  0.9321077E-008  0.1762335E+04  0.7818608E-02  0.8726590E-01
          1   -1    0    0  501    0  0.00000000000E+00  0.00000000000E+00  0.35534945263E+04  0.35534945263E+04  0.00000000000E+00 0. -1.
         -1   -1    0    0    0  501 -0.00000000000E+00 -0.00000000000E+00 -0.92996561170E+03  0.92996561170E+03  0.00000000000E+00 0.  1.
         23    2    1    2    0    0  0.59553115364E+03 -0.16541844499E+04  0.10557709172E+04  0.20526860537E+04  0.88793335152E+02 0.  0.
    5000000    2    1    2    0    0 -0.59553115364E+03  0.16541844499E+04  0.15677579975E+04  0.24307740843E+04  0.59984494741E+03 0.  0.
         23    2    4    4    0    0 -0.32114036886E+03  0.77811831788E+03  0.11231937354E+04  0.14066938096E+04  0.92865782537E+02 0.  0.
         23    2    4    4    0    0 -0.27439078479E+03  0.87606613203E+03  0.44456426204E+03  0.10240802747E+04  0.91218723034E+02 0.  0.
          1    1    3    3  502    0  0.50064152067E+03 -0.13339634237E+04  0.88861127765E+03  0.16792052735E+04  0.00000000000E+00 0. -1.
         -1    1    3    3    0  502  0.94889632971E+02 -0.32022102624E+03  0.16715963952E+03  0.37348078019E+03  0.00000000000E+00 0.  1.
         15    1    5    5    0    0 -0.26172512419E+03  0.53362390386E+03  0.81858590129E+03  0.10116029591E+04  0.17770000000E+01 0. -1.
        -15    1    5    5    0    0 -0.59415244666E+02  0.24449441402E+03  0.30460783412E+03  0.39509085047E+03  0.17770000000E+01 0.  1.
          1    1    6    6  503    0 -0.21688114443E+03  0.60234653180E+03  0.27316488977E+03  0.69604441826E+03  0.00000000000E+00 0. -1.
         -1    1    6    6    0  503 -0.57509640355E+02  0.27371960023E+03  0.17139937226E+03  0.32803585642E+03  0.00000000000E+00 0.  1.
<mgrwt>
<rscale>  0 0.17623348E+04</rscale>
<asrwt>0</asrwt>
<pdfrwt beam="1">  1        1 0.54669146E+00 0.17623348E+04</pdfrwt>
<pdfrwt beam="2">  1       -1 0.14307163E+00 0.17623348E+04</pdfrwt>
<totfact> 0.83173438E-02</totfact>
</mgrwt>
</event>
<event>
12    1  0.9321077E-008  0.1242781E+04  0.7818608E-02  0.9076213E-01
          2   -1    0    0  501    0  0.00000000000E+00  0.00000000000E+00  0.15951311449E+04  0.15951311449E+04  0.00000000000E+00 0.  1.
         -2   -1    0    0    0  501 -0.00000000000E+00 -0.00000000000E+00 -0.14731983997E+04  0.14731983997E+04  0.00000000000E+00 0. -1.
         23    2    1    2    0    0  0.39228268675E+02 -0.12312552057E+04 -0.74938339296E+03  0.14445299601E+04  0.86966070511E+02 0.  0.
    5000000    2    1    2    0    0 -0.39228268675E+02  0.12312552057E+04  0.87131613818E+03  0.16237995845E+04  0.60000419940E+03 0.  0.
         23    2    4    4    0    0 -0.57897926946E+02  0.25761400641E+03 -0.44741012607E+02  0.28385431637E+03  0.94097653925E+02 0.  0.
         23    2    4    4    0    0  0.18669658271E+02  0.97364119930E+03  0.91605715079E+03  0.13399452681E+04  0.89257363410E+02 0.  0.
          2    1    3    3  502    0 -0.26689670223E+02 -0.35789666775E+03 -0.20569532912E+03  0.41365798881E+03  0.00000000000E+00 0. -1.
         -2    1    3    3    0  502  0.65917938898E+02 -0.87335853796E+03 -0.54368806384E+03  0.10308719713E+04  0.00000000000E+00 0.  1.
         15    1    5    5    0    0  0.16425327438E+02  0.42807729714E+02  0.15959257108E+02  0.48581361871E+02  0.17770000000E+01 0.  1.
        -15    1    5    5    0    0 -0.74323254385E+02  0.21480627669E+03 -0.60700269716E+02  0.23527295450E+03  0.17770000000E+01 0. -1.
          2    1    6    6  503    0  0.49268093097E+02  0.37629379234E+03  0.37089153954E+03  0.53064573611E+03  0.00000000000E+00 0.  1.
         -2    1    6    6    0  503 -0.30598434826E+02  0.59734740696E+03  0.54516561125E+03  0.80929953201E+03  0.00000000000E+00 0. -1.
<mgrwt>
<rscale>  0 0.12427810E+04</rscale>
<asrwt>0</asrwt>
<pdfrwt beam="1">  1        2 0.24540479E+00 0.12427810E+04</pdfrwt>
<pdfrwt beam="2">  1       -2 0.22664591E+00 0.12427810E+04</pdfrwt>
<totfact> 0.97247800E-01</totfact>
</mgrwt>
</event>
<event>
12    1  0.9321077E-008  0.1076291E+04  0.7818608E-02  0.9228613E-01
         -2   -1    0    0    0  501 -0.00000000000E+00  0.00000000000E+00  0.20251023091E+04  0.20251023091E+04  0.00000000000E+00 0.  1.
          2   -1    0    0  501    0  0.00000000000E+00 -0.00000000000E+00 -0.59110881965E+03  0.59110881965E+03  0.00000000000E+00 0. -1.
         23    2    1    2    0    0  0.38803291502E+03 -0.91967240450E+03  0.48449912711E+03  0.11135814188E+04  0.94642999937E+02 0.  0.
    5000000    2    1    2    0    0 -0.38803291502E+03  0.91967240450E+03  0.94949436232E+03  0.15026297099E+04  0.59999135515E+03 0.  0.
         23    2    4    4    0    0 -0.13650752892E+03  0.86953789553E+03  0.64953323955E+03  0.10977723483E+04  0.92088230144E+02 0.  0.
         23    2    4    4    0    0 -0.25152538610E+03  0.50134508971E+02  0.29996112277E+03  0.40485736163E+03  0.90301269366E+02 0.  0.
          1    1    3    3  502    0  0.17806029100E+03 -0.35547224169E+03  0.15032950675E+03  0.42504698851E+03  0.00000000000E+00 0. -1.
         -1    1    3    3    0  502  0.20997262403E+03 -0.56420016281E+03  0.33416962035E+03  0.68853443031E+03  0.00000000000E+00 0.  1.
         15    1    5    5    0    0 -0.44748318002E+01  0.20726011764E+03  0.11946387473E+03  0.23927297294E+03  0.17770000000E+01 0. -1.
        -15    1    5    5    0    0 -0.13203269712E+03  0.66227777789E+03  0.53006936482E+03  0.85849937533E+03  0.17770000000E+01 0.  1.
          1    1    6    6  503    0 -0.63095019215E+02 -0.24520675908E+02  0.57308613746E+02  0.88693416927E+02  0.00000000000E+00 0. -1.
         -1    1    6    6    0  503 -0.18843036689E+03  0.74655184879E+02  0.24265250903E+03  0.31616394471E+03  0.00000000000E+00 0.  1.
<mgrwt>
<rscale>  0 0.10762911E+04</rscale>
<asrwt>0</asrwt>
<pdfrwt beam="1">  1        2 0.90939819E-01 0.10762911E+04</pdfrwt>
<pdfrwt beam="2">  1       -2 0.31155420E+00 0.10762911E+04</pdfrwt>
<totfact> 0.13614249E+00</totfact>
</mgrwt>
</event>
<event>
12    1  0.9321077E-008  0.6871233E+03  0.7818608E-02  0.9739510E-01
          2   -1    0    0  501    0  0.00000000000E+00  0.00000000000E+00  0.25193585568E+04  0.25193585568E+04  0.00000000000E+00 0. -1.
         -2   -1    0    0    0  501 -0.00000000000E+00 -0.00000000000E+00 -0.23614835192E+03  0.23614835192E+03  0.00000000000E+00 0.  1.
         23    2    1    2    0    0 -0.56874510805E+03  0.81995591802E+02  0.42677550644E+03  0.72166732740E+03  0.92044139076E+02 0.  0.
    5000000    2    1    2    0    0  0.56874510805E+03 -0.81995591802E+02  0.18564346984E+04  0.20338395813E+04  0.59996614734E+03 0.  0.
         23    2    4    4    0    0 -0.12744384827E+02 -0.17659861952E+03  0.24523972239E+03  0.31596975429E+03  0.91350273253E+02 0.  0.
         23    2    4    4    0    0  0.58148949288E+03  0.94603027722E+02  0.16111949760E+04  0.17178698270E+04  0.89709133272E+02 0.  0.
          2    1    3    3  502    0 -0.46642599210E+03  0.97302450652E+02  0.32659704894E+03  0.57765613074E+03  0.00000000000E+00 0. -1.
         -2    1    3    3    0  502 -0.10231911596E+03 -0.15306858850E+02  0.10017845749E+03  0.14401119666E+03  0.00000000000E+00 0.  1.
         15    1    5    5    0    0 -0.16159709422E+02  0.52325346979E+01  0.16601674569E+02  0.23817828522E+02  0.17770000000E+01 0.  1.
        -15    1    5    5    0    0  0.34153245950E+01 -0.18183115422E+03  0.22863804782E+03  0.29215192577E+03  0.17770000000E+01 0. -1.
          1    1    6    6  503    0  0.43661114610E+03  0.32736576957E+02  0.12168544638E+04  0.12932268798E+04  0.00000000000E+00 0. -1.
         -1    1    6    6    0  503  0.14487834678E+03  0.61866450766E+02  0.39434051217E+03  0.42464294724E+03  0.00000000000E+00 0.  1.
<mgrwt>
<rscale>  0 0.68712335E+03</rscale>
<asrwt>0</asrwt>
<pdfrwt beam="1">  1        2 0.38759361E+00 0.68712335E+03</pdfrwt>
<pdfrwt beam="2">  1       -2 0.36330517E-01 0.68712335E+03</pdfrwt>
<totfact> 0.25522494E+01</totfact>
</mgrwt>
</event>
<event>
12    1  0.9321077E-008  0.1102653E+04  0.7818608E-02  0.9202610E-01
         -1   -1    0    0    0  501 -0.00000000000E+00  0.00000000000E+00  0.13924148625E+04  0.13924148625E+04  0.00000000000E+00 0.  1.
          1   -1    0    0  501    0  0.00000000000E+00 -0.00000000000E+00 -0.10065417370E+04  0.10065417370E+04  0.00000000000E+00 0. -1.
         23    2    1    2    0    0 -0.90516433308E+01  0.10981482863E+04  0.51068983610E+02  0.11035028255E+04  0.95387912143E+02 0.  0.
    5000000    2    1    2    0    0  0.90516433308E+01 -0.10981482863E+04  0.33480414189E+03  0.12954537740E+04  0.60007922493E+03 0.  0.
         23    2    4    4    0    0  0.33572094338E+02 -0.41148004527E+03  0.42130373547E+03  0.59690495227E+03  0.91409908362E+02 0.  0.
         23    2    4    4    0    0 -0.24520451007E+02 -0.68666824107E+03 -0.86499593582E+02  0.69854882177E+03  0.91508201198E+02 0.  0.
          4    1    3    3  502    0  0.38261526620E+02  0.37794955753E+03 -0.90958346110E+00  0.37988240259E+03  0.00000000000E+00 0. -1.
         -4    1    3    3    0  502 -0.47313169950E+02  0.72019872882E+03  0.51978567071E+02  0.72362042293E+03  0.00000000000E+00 0.  1.
         15    1    5    5    0    0  0.47641159549E+02 -0.25475707627E+03  0.21078876235E+03  0.33407470430E+03  0.17770000000E+01 0. -1.
        -15    1    5    5    0    0 -0.14069065210E+02 -0.15672296900E+03  0.21051497312E+03  0.26283024797E+03  0.17770000000E+01 0.  1.
          3    1    6    6  503    0 -0.22368629924E+02 -0.56435265825E+03 -0.35193561147E+02  0.56589121324E+03  0.00000000000E+00 0. -1.
         -3    1    6    6    0  503 -0.21518210830E+01 -0.12231558282E+03 -0.51306032435E+02  0.13265760852E+03  0.00000000000E+00 0.  1.
<mgrwt>
<rscale>  0 0.11026527E+04</rscale>
<asrwt>0</asrwt>
<pdfrwt beam="1">  1        1 0.15485257E+00 0.11026527E+04</pdfrwt>
<pdfrwt beam="2">  1       -1 0.21421767E+00 0.11026527E+04</pdfrwt>
<totfact> 0.17859432E+00</totfact>
</mgrwt>
</event>
<event>
12    1  0.9321077E-008  0.4510050E+03  0.7818608E-02  0.1027423E+00
         -3   -1    0    0    0  501 -0.00000000000E+00  0.00000000000E+00  0.90139923943E+02  0.90139923943E+02  0.00000000000E+00 0.  1.
          3   -1    0    0  501    0  0.00000000000E+00 -0.00000000000E+00 -0.31760987446E+04  0.31760987446E+04  0.00000000000E+00 0. -1.
         23    2    1    2    0    0  0.20408977916E+03  0.20941259854E+03 -0.17057824701E+04  0.17330303403E+04  0.90520995999E+02 0.  0.
    5000000    2    1    2    0    0 -0.20408977916E+03 -0.20941259854E+03 -0.13801763506E+04  0.15332083283E+04  0.60027888917E+03 0.  0.
         23    2    4    4    0    0  0.17168743766E+03 -0.10731317572E+03 -0.78765067320E+03  0.81836400553E+03  0.91287286188E+02 0.  0.
         23    2    4    4    0    0 -0.37577721681E+03 -0.10209942282E+03 -0.59252567737E+03  0.71484432273E+03  0.91010541025E+02 0.  0.
          3    1    3    3  502    0  0.17314460409E+03  0.20946986407E+03 -0.14370090881E+04  0.14624813835E+04  0.00000000000E+00 0.  1.
         -3    1    3    3    0  502  0.30945175063E+02 -0.57265532458E-01 -0.26877338203E+03  0.27054895680E+03  0.00000000000E+00 0. -1.
         15    1    5    5    0    0  0.10215443002E+03 -0.31875283597E+02 -0.26612892188E+03  0.28684372412E+03  0.17770000000E+01 0.  1.
        -15    1    5    5    0    0  0.69533007637E+02 -0.75437892126E+02 -0.52152175132E+03  0.53152028141E+03  0.17770000000E+01 0. -1.
          1    1    6    6  503    0 -0.18159255350E+03 -0.56730534652E+02 -0.36996281906E+03  0.41601285621E+03  0.00000000000E+00 0. -1.
         -1    1    6    6    0  503 -0.19418466332E+03 -0.45368888167E+02 -0.22256285832E+03  0.29883146652E+03  0.00000000000E+00 0.  1.
<mgrwt>
<rscale>  0 0.45100502E+03</rscale>
<asrwt>0</asrwt>
<pdfrwt beam="1">  1        3 0.48863050E+00 0.45100502E+03</pdfrwt>
<pdfrwt beam="2">  1       -3 0.13867683E-01 0.45100502E+03</pdfrwt>
<totfact> 0.49051984E-01</totfact>
</mgrwt>
</event>
<event>
12    1  0.9321077E-008  0.6635911E+03  0.7818608E-02  0.9781605E-01
          1   -1    0    0  501    0  0.00000000000E+00  0.00000000000E+00  0.12884698098E+04  0.12884698098E+04  0.00000000000E+00 0. -1.
         -1   -1    0    0    0  501 -0.00000000000E+00 -0.00000000000E+00 -0.43710723888E+03  0.43710723888E+03  0.00000000000E+00 0.  1.
         23    2    1    2    0    0  0.39798318947E+03 -0.38605790986E+03  0.69830423152E+03  0.89436009462E+03  0.69425141204E+02 0.  0.
    5000000    2    1    2    0    0 -0.39798318947E+03  0.38605790986E+03  0.15305833941E+03  0.83121695407E+03  0.60005286484E+03 0.  0.
         23    2    4    4    0    0 -0.35568743100E+03 -0.24245041946E+02 -0.33963241296E+02  0.36933355381E+03  0.90290650584E+02 0.  0.
         23    2    4    4    0    0 -0.42295758475E+02  0.41030295180E+03  0.18702158070E+03  0.46188340026E+03  0.90673923162E+02 0.  0.
          2    1    3    3  502    0  0.37555572530E+03 -0.37079112184E+03  0.63632466935E+03  0.82670263315E+03  0.00000000000E+00 0. -1.
         -2    1    3    3    0  502  0.22427464172E+02 -0.15266788014E+02  0.61979562173E+02  0.67657461471E+02  0.00000000000E+00 0.  1.
         15    1    5    5    0    0 -0.32734096685E+02 -0.23803081001E-01 -0.31493387556E+02  0.45458913769E+02  0.17770000000E+01 0. -1.
        -15    1    5    5    0    0 -0.32295333431E+03 -0.24221238865E+02 -0.24698537403E+01  0.32387464004E+03  0.17770000000E+01 0.  1.
          2    1    6    6  503    0 -0.24137249327E+02  0.57294375179E+02  0.40964287751E+00  0.62172502278E+02  0.00000000000E+00 0. -1.
         -2    1    6    6    0  503 -0.18158509148E+02  0.35300857662E+03  0.18661193783E+03  0.39971089798E+03  0.00000000000E+00 0.  1.
<mgrwt>
<rscale>  0 0.66359109E+03</rscale>
<asrwt>0</asrwt>
<pdfrwt beam="1">  1        1 0.19822612E+00 0.66359109E+03</pdfrwt>
<pdfrwt beam="2">  1       -1 0.67247268E-01 0.66359109E+03</pdfrwt>
<totfact> 0.21554137E+01</totfact>
</mgrwt>
</event>
<event>
12    1  0.9321077E-008  0.8204618E+03  0.7818608E-02  0.9530863E-01
          1   -1    0    0  501    0  0.00000000000E+00  0.00000000000E+00  0.25607863732E+04  0.25607863732E+04  0.00000000000E+00 0. -1.
         -1   -1    0    0    0  501 -0.00000000000E+00 -0.00000000000E+00 -0.30017770907E+03  0.30017770907E+03  0.00000000000E+00 0.  1.
         23    2    1    2    0    0  0.50427453943E+03  0.55061956928E+03  0.68684244625E+03  0.10186106940E+04  0.91326221120E+02 0.  0.
    5000000    2    1    2    0    0 -0.50427453943E+03 -0.55061956928E+03  0.15737662179E+04  0.18423533883E+04  0.60004264660E+03 0.  0.
         23    2    4    4    0    0  0.18158364896E+02 -0.30169063127E+03  0.28078573186E+03  0.42292917698E+03  0.93174558275E+02 0.  0.
         23    2    4    4    0    0 -0.52243290433E+03 -0.24892893801E+03  0.12929804860E+04  0.14194242114E+04  0.89804224986E+02 0.  0.
          1    1    3    3  502    0  0.33451928955E+03  0.35316090143E+03  0.38795813438E+03  0.62220357715E+03  0.00000000000E+00 0. -1.
         -1    1    3    3    0  502  0.16975524988E+03  0.19745866785E+03  0.29888431187E+03  0.39640711681E+03  0.00000000000E+00 0.  1.
         15    1    5    5    0    0 -0.32815043970E+02 -0.12401671631E+03  0.86357949948E+02  0.15465389191E+03  0.17770000000E+01 0. -1.
        -15    1    5    5    0    0  0.50973408866E+02 -0.17767391497E+03  0.19442778191E+03  0.26827528507E+03  0.17770000000E+01 0.  1.
          1    1    6    6  503    0 -0.24067275639E+03 -0.86710670589E+02  0.65966467934E+03  0.70753063907E+03  0.00000000000E+00 0. -1.
         -1    1    6    6    0  503 -0.28176014794E+03 -0.16221826742E+03  0.63331580671E+03  0.71189357229E+03  0.00000000000E+00 0.  1.
<mgrwt>
<rscale>  0 0.82046178E+03</rscale>
<asrwt>0</asrwt>
<pdfrwt beam="1">  1        1 0.39396712E+00 0.82046178E+03</pdfrwt>
<pdfrwt beam="2">  1       -1 0.46181188E-01 0.82046178E+03</pdfrwt>
<totfact> 0.59970932E+00</totfact>
</mgrwt>
</event>
<event>
12    1  0.9321077E-008  0.5039103E+03  0.7818608E-02  0.1012763E+00
          2   -1    0    0  501    0  0.00000000000E+00  0.00000000000E+00  0.18429082702E+04  0.18429082702E+04  0.00000000000E+00 0. -1.
         -2   -1    0    0    0  501 -0.00000000000E+00 -0.00000000000E+00 -0.14858911342E+03  0.14858911342E+03  0.00000000000E+00 0.  1.
         23    2    1    2    0    0 -0.56618652797E+02  0.32413622738E+03  0.38209204099E+03  0.51146515106E+03  0.85628892441E+02 0.  0.
    5000000    2    1    2    0    0  0.56618652797E+02 -0.32413622738E+03  0.13122271158E+04  0.14800322326E+04  0.60023781974E+03 0.  0.
         23    2    4    4    0    0  0.30217774282E+03 -0.24429024792E+03  0.90043804299E+03  0.98548392737E+03  0.96957662738E+02 0.  0.
         23    2    4    4    0    0 -0.24555909002E+03 -0.79845979463E+02  0.41178907286E+03  0.49454830523E+03  0.91286026063E+02 0.  0.
          1    1    3    3  502    0  0.76712224181E+01  0.19973337102E+03  0.23044567332E+03  0.30505323389E+03  0.00000000000E+00 0. -1.
         -1    1    3    3    0  502 -0.64289875215E+02  0.12440285636E+03  0.15164636767E+03  0.20641191718E+03  0.00000000000E+00 0.  1.
         15    1    5    5    0    0  0.26386261550E+03 -0.23777111501E+03  0.85388089321E+03  0.92481042409E+03  0.17770000000E+01 0.  1.
        -15    1    5    5    0    0  0.38315127324E+02 -0.65191329030E+01  0.46557149776E+02  0.60673503277E+02  0.17770000000E+01 0. -1.
          4    1    6    6  503    0 -0.24188176580E+02  0.19593788389E+02  0.50378956586E+02  0.59220129149E+02  0.00000000000E+00 0. -1.
         -4    1    6    6    0  503 -0.22137091344E+03 -0.99439767852E+02  0.36141011627E+03  0.43532817608E+03  0.00000000000E+00 0.  1.
<mgrwt>
<rscale>  0 0.50391032E+03</rscale>
<asrwt>0</asrwt>
<pdfrwt beam="1">  1        2 0.28352433E+00 0.50391032E+03</pdfrwt>
<pdfrwt beam="2">  1       -2 0.22859865E-01 0.50391032E+03</pdfrwt>
<totfact> 0.14450088E+02</totfact>
</mgrwt>
</event>
<event>
12    1  0.9321077E-008  0.3151461E+03  0.7818608E-02  0.1077905E+00
         -1   -1    0    0    0  501 -0.00000000000E+00  0.00000000000E+00  0.19576073892E+03  0.19576073892E+03  0.00000000000E+00 0.  1.
          1   -1    0    0  501    0  0.00000000000E+00 -0.00000000000E+00 -0.12398574793E+04  0.12398574793E+04  0.00000000000E+00 0. -1.
         23    2    1    2    0    0 -0.18171476659E+03 -0.22961029305E+03 -0.23778483640E+03  0.38874379146E+03  0.94015764134E+02 0.  0.
    5000000    2    1    2    0    0  0.18171476659E+03  0.22961029305E+03 -0.80631190395E+03  0.10468744267E+04  0.60005502733E+03 0.  0.
         23    2    4    4    0    0  0.12208319317E+03  0.87961588117E+02 -0.84610665144E+03  0.86408098595E+03  0.89988541681E+02 0.  0.
         23    2    4    4    0    0  0.59631573422E+02  0.14164870494E+03  0.39794747488E+02  0.18279344078E+03  0.90606511390E+02 0.  0.
          3    1    3    3  502    0 -0.27532162788E+02 -0.82427522237E+02 -0.11012337498E+03  0.14028354903E+03  0.00000000000E+00 0. -1.
         -3    1    3    3    0  502 -0.15418260380E+03 -0.14718277082E+03 -0.12766146142E+03  0.24846024244E+03  0.00000000000E+00 0.  1.
         15    1    5    5    0    0  0.67061550671E+02  0.33164447300E+02 -0.63019407108E+03  0.63462182211E+03  0.17770000000E+01 0.  1.
        -15    1    5    5    0    0  0.55021642496E+02  0.54797140817E+02 -0.21591258036E+03  0.22945916384E+03  0.17770000000E+01 0. -1.
          3    1    6    6  503    0  0.78597173856E+02  0.75780511035E+02  0.16619577676E+02  0.11043736665E+03  0.00000000000E+00 0. -1.
         -3    1    6    6    0  503 -0.18965600434E+02  0.65868193903E+02  0.23175169812E+02  0.72356074131E+02  0.00000000000E+00 0.  1.
<mgrwt>
<rscale>  0 0.31514607E+03</rscale>
<asrwt>0</asrwt>
<pdfrwt beam="1">  1        1 0.19074731E+00 0.31514607E+03</pdfrwt>
<pdfrwt beam="2">  1       -1 0.30117036E-01 0.31514607E+03</pdfrwt>
<totfact> 0.10920341E+02</totfact>
</mgrwt>
</event>
<event>
12    1  0.9321077E-008  0.1279107E+04  0.7818608E-02  0.9046299E-01
         -2   -1    0    0    0  501 -0.00000000000E+00  0.00000000000E+00  0.58394572449E+03  0.58394572449E+03  0.00000000000E+00 0. -1.
          2   -1    0    0  501    0  0.00000000000E+00 -0.00000000000E+00 -0.34289543440E+04  0.34289543440E+04  0.00000000000E+00 0.  1.
         23    2    1    2    0    0  0.47421838663E+03  0.11281688932E+04 -0.55103539147E+03  0.13445671873E+04  0.81072737868E+02 0.  0.
    5000000    2    1    2    0    0 -0.47421838663E+03 -0.11281688932E+04 -0.22939732280E+04  0.26683328811E+04  0.60003255241E+03 0.  0.
         23    2    4    4    0    0 -0.56989034729E+03 -0.99317890341E+03 -0.21209185221E+04  0.24120651121E+04  0.92646561866E+02 0.  0.
         23    2    4    4    0    0  0.95671960664E+02 -0.13498998977E+03 -0.17305470591E+03  0.25626776905E+03  0.91377332090E+02 0.  0.
          1    1    3    3  502    0  0.11436125707E+03  0.32577810737E+03 -0.12285686144E+03  0.36647466592E+03  0.00000000000E+00 0. -1.
         -1    1    3    3    0  502  0.35985712956E+03  0.80239078581E+03 -0.42817853002E+03  0.97809252140E+03  0.00000000000E+00 0.  1.
         15    1    5    5    0    0 -0.22318237424E+03 -0.36179284391E+03 -0.87827610311E+03  0.97574407766E+03  0.17770000000E+01 0. -1.
        -15    1    5    5    0    0 -0.34670797305E+03 -0.63138605950E+03 -0.12426424190E+04  0.14363210344E+04  0.17770000000E+01 0.  1.
          1    1    6    6  503    0  0.15143783283E+02  0.12804718693E+02 -0.26467988685E+02  0.33073394413E+02  0.00000000000E+00 0. -1.
         -1    1    6    6    0  503  0.80528177381E+02 -0.14779470846E+03 -0.14658671722E+03  0.22319437463E+03  0.00000000000E+00 0.  1.
<mgrwt>
<rscale>  0 0.12791074E+04</rscale>
<asrwt>0</asrwt>
<pdfrwt beam="1">  1        2 0.52753144E+00 0.12791074E+04</pdfrwt>
<pdfrwt beam="2">  1       -2 0.89837803E-01 0.12791074E+04</pdfrwt>
<totfact> 0.95638164E-01</totfact>
</mgrwt>
</event>
<event>
12    1  0.9321077E-008  0.1084135E+04  0.7818608E-02  0.9220794E-01
         -2   -1    0    0    0  501 -0.00000000000E+00  0.00000000000E+00  0.16464969473E+04  0.16464969473E+04  0.00000000000E+00 0.  1.
          2   -1    0    0  501    0  0.00000000000E+00 -0.00000000000E+00 -0.15382099211E+04  0.15382099211E+04  0.00000000000E+00 0. -1.
         23    2    1    2    0    0 -0.25610067494E+03  0.97899654193E+03 -0.11006522195E+04  0.14978423415E+04  0.89858704931E+02 0.  0.
    5000000    2    1    2    0    0  0.25610067494E+03 -0.97899654193E+03  0.12089392457E+04  0.16868645269E+04  0.59996337182E+03 0.  0.
         23    2    4    4    0    0  0.14007338581E+03 -0.99676130217E+03  0.94136331302E+03  0.13811541788E+04  0.90930366289E+02 0.  0.
         23    2    4    4    0    0  0.11602728912E+03  0.17764760235E+02  0.26757593264E+03  0.30571034811E+03  0.89911171088E+02 0.  0.
          3    1    3    3  502    0 -0.18072074399E+03  0.51379045706E+03 -0.59085974947E+03  0.80358936318E+03  0.00000000000E+00 0. -1.
         -3    1    3    3    0  502 -0.75379930949E+02  0.46520608488E+03 -0.50979246999E+03  0.69425297829E+03  0.00000000000E+00 0.  1.
         15    1    5    5    0    0  0.91246913161E+02 -0.82456027540E+03  0.73933264886E+03  0.11112342554E+04  0.17770000000E+01 0.  1.
        -15    1    5    5    0    0  0.48826472652E+02 -0.17220102677E+03  0.20203066416E+03  0.26991992339E+03  0.17770000000E+01 0. -1.
          3    1    6    6  503    0  0.11504509724E+03 -0.10454257466E+02  0.23943648602E+03  0.26584675423E+03  0.00000000000E+00 0. -1.
         -3    1    6    6    0  503  0.98219188323E+00  0.28219017701E+02  0.28139446623E+02  0.39863593881E+02  0.00000000000E+00 0.  1.
<mgrwt>
<rscale>  0 0.10841350E+04</rscale>
<asrwt>0</asrwt>
<pdfrwt beam="1">  1        2 0.23664768E+00 0.10841350E+04</pdfrwt>
<pdfrwt beam="2">  1       -2 0.25330722E+00 0.10841350E+04</pdfrwt>
<totfact> 0.73094094E-01</totfact>
</mgrwt>
</event>
<event>
12    1  0.9321077E-008  0.9674944E+03  0.7818608E-02  0.9344933E-01
          2   -1    0    0  501    0  0.00000000000E+00  0.00000000000E+00  0.21317220728E+04  0.21317220728E+04  0.00000000000E+00 0. -1.
         -2   -1    0    0    0  501 -0.00000000000E+00 -0.00000000000E+00 -0.47794022963E+03  0.47794022963E+03  0.00000000000E+00 0.  1.
         23    2    1    2    0    0 -0.69069503261E+03  0.56673684659E+03  0.10271092654E+04  0.13642795446E+04  0.89749381507E+02 0.  0.
    5000000    2    1    2    0    0  0.69069503261E+03 -0.56673684659E+03  0.62667257778E+03  0.12453827578E+04  0.60000784358E+03 0.  0.
         23    2    4    4    0    0 -0.63730695937E+02 -0.55244957856E+02 -0.13001975903E+02  0.12817153439E+03  0.95630977597E+02 0.  0.
         23    2    4    4    0    0  0.75442572854E+03 -0.51149188873E+03  0.63967455368E+03  0.11172112234E+04  0.90527625542E+02 0.  0.
          1    1    3    3  502    0 -0.14545465927E+03  0.99368023565E+02  0.25384408609E+03  0.30897877282E+03  0.00000000000E+00 0. -1.
         -1    1    3    3    0  502 -0.54524037333E+03  0.46736882302E+03  0.77326517926E+03  0.10553007718E+04  0.00000000000E+00 0.  1.
         15    1    5    5    0    0 -0.24634952008E+01 -0.62896467535E+02  0.67282945458E+01  0.63328209460E+02  0.17770000000E+01 0.  1.
        -15    1    5    5    0    0 -0.61267200736E+02  0.76515096785E+01 -0.19730270449E+02  0.64843324925E+02  0.17770000000E+01 0. -1.
          3    1    6    6  503    0  0.25636744897E+03 -0.12324777157E+03  0.19839023549E+03  0.34680393254E+03  0.00000000000E+00 0. -1.
         -3    1    6    6    0  503  0.49805827958E+03 -0.38824411715E+03  0.44128431819E+03  0.77040729088E+03  0.00000000000E+00 0.  1.
<mgrwt>
<rscale>  0 0.96749438E+03</rscale>
<asrwt>0</asrwt>
<pdfrwt beam="1">  1        2 0.32795724E+00 0.96749438E+03</pdfrwt>
<pdfrwt beam="2">  1       -2 0.73529267E-01 0.96749438E+03</pdfrwt>
<totfact> 0.94895798E+00</totfact>
</mgrwt>
</event>
<event>
12    1  0.9321077E-008  0.4683118E+03  0.7818608E-02  0.1022398E+00
         -2   -1    0    0    0  501 -0.00000000000E+00  0.00000000000E+00  0.13594008066E+03  0.13594008066E+03  0.00000000000E+00 0.  1.
          2   -1    0    0  501    0  0.00000000000E+00 -0.00000000000E+00 -0.21391840425E+04  0.21391840425E+04  0.00000000000E+00 0. -1.
         23    2    1    2    0    0 -0.19108642179E+03 -0.29639602472E+03 -0.49722217639E+03  0.61602612478E+03  0.88846326065E+02 0.  0.
    5000000    2    1    2    0    0  0.19108642179E+03  0.29639602472E+03 -0.15060217854E+04  0.16590979984E+04  0.60011659361E+03 0.  0.
         23    2    4    4    0    0  0.32791075026E+03  0.15172439611E+03 -0.13272488120E+04  0.13788424594E+04  0.95243720841E+02 0.  0.
         23    2    4    4    0    0 -0.13682432846E+03  0.14467162861E+03 -0.17877297345E+03  0.28025553899E+03  0.83262321093E+02 0.  0.
          4    1    3    3  502    0 -0.68742292676E+02 -0.45688603071E+02 -0.86880917457E+02  0.11983841234E+03  0.00000000000E+00 0. -1.
         -4    1    3    3    0  502 -0.12234412912E+03 -0.25070742165E+03 -0.41034125893E+03  0.49618771244E+03  0.00000000000E+00 0.  1.
         15    1    5    5    0    0  0.27605489763E+03  0.15772741689E+03 -0.10651530502E+04  0.11115927413E+04  0.17770000000E+01 0. -1.
        -15    1    5    5    0    0  0.51855852630E+02 -0.60030207872E+01 -0.26209576183E+03  0.26724971807E+03  0.17770000000E+01 0.  1.
          1    1    6    6  503    0 -0.10062258056E+03  0.71926703034E+02 -0.62981134340E+02  0.13879833432E+03  0.00000000000E+00 0.  1.
         -1    1    6    6    0  503 -0.36201747909E+02  0.72744925581E+02 -0.11579183911E+03  0.14145720467E+03  0.00000000000E+00 0. -1.
<mgrwt>
<rscale>  0 0.46831177E+03</rscale>
<asrwt>0</asrwt>
<pdfrwt beam="1">  1        2 0.32910523E+00 0.46831177E+03</pdfrwt>
<pdfrwt beam="2">  1       -2 0.20913859E-01 0.46831177E+03</pdfrwt>
<totfact> 0.11768214E+02</totfact>
</mgrwt>
</event>
<event>
12    1  0.9321077E-008  0.2815834E+04  0.7818608E-02  0.8298369E-01
          2   -1    0    0  501    0  0.00000000000E+00  0.00000000000E+00  0.30081347155E+04  0.30081347155E+04  0.00000000000E+00 0. -1.
         -2   -1    0    0    0  501 -0.00000000000E+00 -0.00000000000E+00 -0.27032940351E+04  0.27032940351E+04  0.00000000000E+00 0.  1.
         23    2    1    2    0    0 -0.24209955368E+04 -0.14257285059E+04 -0.83789720806E+02  0.28123817993E+04  0.92463539588E+02 0.  0.
    5000000    2    1    2    0    0  0.24209955368E+04  0.14257285059E+04  0.38863040128E+03  0.28990469513E+04  0.59959859519E+03 0.  0.
         23    2    4    4    0    0  0.12911109685E+04  0.89761342663E+03  0.47439637868E+03  0.16452051681E+04  0.94713907641E+02 0.  0.
         23    2    4    4    0    0  0.11298845683E+04  0.52811507922E+03 -0.85765977399E+02  0.12538417832E+04  0.96014269124E+02 0.  0.
          3    1    3    3  502    0 -0.36009837133E+03 -0.17730335000E+03 -0.24163094596E+02  0.40210840591E+03  0.00000000000E+00 0.  1.
         -3    1    3    3    0  502 -0.20608971655E+04 -0.12484251558E+04 -0.59626626211E+02  0.24102733934E+04  0.00000000000E+00 0. -1.
         15    1    5    5    0    0  0.90971911220E+03  0.62585257891E+03  0.37763036355E+03  0.11669996413E+04  0.17770000000E+01 0. -1.
        -15    1    5    5    0    0  0.38139185632E+03  0.27176084772E+03  0.96766015123E+02  0.47820552677E+03  0.17770000000E+01 0.  1.
          2    1    6    6  503    0  0.48122659811E+03  0.19758655282E+03  0.46619383521E+01  0.52023188892E+03  0.00000000000E+00 0. -1.
         -2    1    6    6    0  503  0.64865797016E+03  0.33052852640E+03 -0.90427915751E+02  0.73360989427E+03  0.00000000000E+00 0.  1.
<mgrwt>
<rscale>  0 0.28158341E+04</rscale>
<asrwt>0</asrwt>
<pdfrwt beam="1">  1        2 0.46278996E+00 0.28158341E+04</pdfrwt>
<pdfrwt beam="2">  1       -2 0.41589139E+00 0.28158341E+04</pdfrwt>
<totfact> 0.81362785E-03</totfact>
</mgrwt>
</event>
<event>
12    1  0.9321077E-008  0.8438271E+03  0.7818608E-02  0.9498660E-01
          1   -1    0    0  501    0  0.00000000000E+00  0.00000000000E+00  0.27526272251E+04  0.27526272251E+04  0.00000000000E+00 0. -1.
         -1   -1    0    0    0  501 -0.00000000000E+00 -0.00000000000E+00 -0.32381446149E+03  0.32381446149E+03  0.00000000000E+00 0.  1.
         23    2    1    2    0    0  0.82706902413E+03  0.77232444232E+02  0.13565865049E+04  0.15933341726E+04  0.91535890241E+02 0.  0.
    5000000    2    1    2    0    0 -0.82706902413E+03 -0.77232444232E+02  0.10722262588E+04  0.14831075140E+04  0.59994226979E+03 0.  0.
         23    2    4    4    0    0 -0.51584012122E+03 -0.75225567405E+02  0.22376362493E+03  0.57450832980E+03  0.90773038487E+02 0.  0.
         23    2    4    4    0    0 -0.31122890291E+03 -0.20068768266E+01  0.84846263384E+03  0.90859918424E+03  0.93787947046E+02 0.  0.
          3    1    3    3  502    0  0.39018210468E+03  0.79697344246E+02  0.67615289886E+03  0.78471426910E+03  0.00000000000E+00 0. -1.
         -3    1    3    3    0  502  0.43688691945E+03 -0.24649000137E+01  0.68043360602E+03  0.80861990348E+03  0.00000000000E+00 0.  1.
         15    1    5    5    0    0 -0.11746998201E+03 -0.55647755558E+02  0.63246192932E+02  0.14456523794E+03  0.17770000000E+01 0.  1.
        -15    1    5    5    0    0 -0.39837013922E+03 -0.19577811847E+02  0.16051743200E+03  0.42994309187E+03  0.17770000000E+01 0. -1.
          2    1    6    6  503    0 -0.23138228633E+03 -0.40713771765E+02  0.65168839517E+03  0.69274319775E+03  0.00000000000E+00 0.  1.
         -2    1    6    6    0  503 -0.79846616581E+02  0.38706894938E+02  0.19677423867E+03  0.21585598648E+03  0.00000000000E+00 0. -1.
<mgrwt>
<rscale>  0 0.84382709E+03</rscale>
<asrwt>0</asrwt>
<pdfrwt beam="1">  1        1 0.42348110E+00 0.84382709E+03</pdfrwt>
<pdfrwt beam="2">  1       -1 0.49817611E-01 0.84382709E+03</pdfrwt>
<totfact> 0.38133933E+00</totfact>
</mgrwt>
</event>
<event>
12    1  0.9321077E-008  0.3390421E+03  0.7818608E-02  0.1067205E+00
          1   -1    0    0  501    0  0.00000000000E+00  0.00000000000E+00  0.16833704402E+04  0.16833704402E+04  0.00000000000E+00 0. -1.
         -1   -1    0    0    0  501 -0.00000000000E+00 -0.00000000000E+00 -0.78528791840E+02  0.78528791840E+02  0.00000000000E+00 0.  1.
         23    2    1    2    0    0 -0.48866336123E+02  0.49855039132E+02  0.36561802492E+03  0.38322735674E+03  0.91176877943E+02 0.  0.
    5000000    2    1    2    0    0  0.48866336123E+02 -0.49855039132E+02  0.12392236235E+04  0.13786718753E+04  0.60015623561E+03 0.  0.
         23    2    4    4    0    0 -0.33143398263E+02 -0.29123312893E+03  0.45344968809E+03  0.54761097320E+03  0.91356105992E+02 0.  0.
         23    2    4    4    0    0  0.82009734386E+02  0.24137808980E+03  0.78577393539E+03  0.83106090215E+03  0.90733493098E+02 0.  0.
          3    1    3    3  502    0 -0.35515807977E+02 -0.21044981878E+02  0.16305420114E+03  0.16819909746E+03  0.00000000000E+00 0.  1.
         -3    1    3    3    0  502 -0.13350528146E+02  0.70900021010E+02  0.20256382379E+03  0.21502825928E+03  0.00000000000E+00 0. -1.
         15    1    5    5    0    0 -0.27684231455E+02 -0.50137285658E+02  0.14613437377E+03  0.15696680226E+03  0.17770000000E+01 0.  1.
        -15    1    5    5    0    0 -0.54591668087E+01 -0.24109584327E+03  0.30731531432E+03  0.39064417095E+03  0.17770000000E+01 0. -1.
          4    1    6    6  503    0  0.43199226698E+02  0.33352877884E+02  0.10778596663E+03  0.12081557124E+03  0.00000000000E+00 0. -1.
         -4    1    6    6    0  503  0.38810507688E+02  0.20802521192E+03  0.67798796876E+03  0.71024533091E+03  0.00000000000E+00 0.  1.
<mgrwt>
<rscale>  0 0.33904214E+03</rscale>
<asrwt>0</asrwt>
<pdfrwt beam="1">  1        1 0.25898004E+00 0.33904214E+03</pdfrwt>
<pdfrwt beam="2">  1       -1 0.12081354E-01 0.33904214E+03</pdfrwt>
<totfact> 0.24368030E+02</totfact>
</mgrwt>
</event>
<event>
12    1  0.9321077E-008  0.8259771E+03  0.7818608E-02  0.9523159E-01
          2   -1    0    0  501    0  0.00000000000E+00  0.00000000000E+00  0.98733976131E+03  0.98733976131E+03  0.00000000000E+00 0. -1.
         -2   -1    0    0    0  501 -0.00000000000E+00 -0.00000000000E+00 -0.76298146140E+03  0.76298146140E+03  0.00000000000E+00 0.  1.
         23    2    1    2    0    0 -0.45441567339E+03  0.59781774177E+03 -0.26593041987E+02  0.75687075904E+03  0.90920291556E+02 0.  0.
    5000000    2    1    2    0    0  0.45441567339E+03 -0.59781774177E+03  0.25095134190E+03  0.99345046367E+03  0.60007298820E+03 0.  0.
         23    2    4    4    0    0  0.23277935989E+03 -0.61242291408E+03  0.33298681695E+03  0.74065328921E+03  0.91864130528E+02 0.  0.
         23    2    4    4    0    0  0.22163631351E+03  0.14605172312E+02 -0.82035475050E+02  0.25279717446E+03  0.88547307839E+02 0.  0.
          2    1    3    3  502    0 -0.18585431883E+03  0.18246557737E+03 -0.30575930123E+02  0.26224111474E+03  0.00000000000E+00 0. -1.
         -2    1    3    3    0  502 -0.26856135456E+03  0.41535216440E+03  0.39828881366E+01  0.49462964431E+03  0.00000000000E+00 0.  1.
         15    1    5    5    0    0  0.10130989389E+03 -0.18913450403E+03  0.72207711845E+02  0.22639051790E+03  0.17770000000E+01 0. -1.
        -15    1    5    5    0    0  0.13146946600E+03 -0.42328841005E+03  0.26077910510E+03  0.51426277131E+03  0.17770000000E+01 0.  1.
          2    1    6    6  503    0  0.14441505684E+03 -0.33306540618E+02 -0.48809433791E+02  0.15603651854E+03  0.00000000000E+00 0.  1.
         -2    1    6    6    0  503  0.77221256663E+02  0.47911712929E+02 -0.33226041259E+02  0.96760655921E+02  0.00000000000E+00 0. -1.
<mgrwt>
<rscale>  0 0.82597713E+03</rscale>
<asrwt>0</asrwt>
<pdfrwt beam="1">  1        2 0.15189842E+00 0.82597713E+03</pdfrwt>
<pdfrwt beam="2">  1       -2 0.11738176E+00 0.82597713E+03</pdfrwt>
<totfact> 0.14517273E+01</totfact>
</mgrwt>
</event>
<event>
12    1  0.9321077E-008  0.5798089E+03  0.7818608E-02  0.9948205E-01
         -2   -1    0    0    0  501 -0.00000000000E+00  0.00000000000E+00  0.16363219284E+03  0.16363219284E+03  0.00000000000E+00 0.  1.
          2   -1    0    0  501    0  0.00000000000E+00 -0.00000000000E+00 -0.28497806652E+04  0.28497806652E+04  0.00000000000E+00 0. -1.
         23    2    1    2    0    0 -0.50492581253E+03  0.10276276693E+03 -0.68877597836E+03  0.86515081122E+03  0.92538183244E+02 0.  0.
    5000000    2    1    2    0    0  0.50492581253E+03 -0.10276276693E+03 -0.19973724940E+04  0.21482620468E+04  0.60001889938E+03 0.  0.
         23    2    4    4    0    0  0.15815476292E+03  0.13297514486E+03 -0.20316379537E+03  0.30376392481E+03  0.91113534004E+02 0.  0.
         23    2    4    4    0    0  0.34677104961E+03 -0.23573791180E+03 -0.17942086986E+04  0.18444981220E+04  0.84651898895E+02 0.  0.
          4    1    3    3  502    0 -0.41380441821E+03  0.48096257772E+02 -0.56587239719E+03  0.70267981076E+03  0.00000000000E+00 0. -1.
         -4    1    3    3    0  502 -0.91121394316E+02  0.54666509161E+02 -0.12290358116E+03  0.16247100046E+03  0.00000000000E+00 0.  1.
         15    1    5    5    0    0  0.15568279406E+03  0.10335847753E+03 -0.20016313810E+03  0.27384036742E+03  0.17770000000E+01 0. -1.
        -15    1    5    5    0    0  0.24719688627E+01  0.29616667330E+02 -0.30006572690E+01  0.29923557389E+02  0.17770000000E+01 0.  1.
          4    1    6    6  503    0  0.50493315850E+02 -0.23692417818E+02 -0.14127337856E+03  0.15188506542E+03  0.00000000000E+00 0. -1.
         -4    1    6    6    0  503  0.29627773376E+03 -0.21204549398E+03 -0.16529353200E+04  0.16926130566E+04  0.00000000000E+00 0.  1.
<mgrwt>
<rscale>  0 0.57980894E+03</rscale>
<asrwt>0</asrwt>
<pdfrwt beam="1">  1        2 0.43842777E+00 0.57980894E+03</pdfrwt>
<pdfrwt beam="2">  1       -2 0.25174185E-01 0.57980894E+03</pdfrwt>
<totfact> 0.33084047E+01</totfact>
</mgrwt>
</event>
<event>
12    1  0.9321077E-008  0.1811370E+04  0.7818608E-02  0.8700276E-01
         -1   -1    0    0    0  501 -0.00000000000E+00  0.00000000000E+00  0.11158315137E+04  0.11158315137E+04  0.00000000000E+00 0.  1.
          1   -1    0    0  501    0  0.00000000000E+00 -0.00000000000E+00 -0.30931473060E+04  0.30931473060E+04  0.00000000000E+00 0. -1.
         23    2    1    2    0    0  0.18060592742E+04  0.44234614474E+02 -0.10502365190E+04  0.20916064969E+04  0.89522003061E+02 0.  0.
    5000000    2    1    2    0    0 -0.18060592742E+04 -0.44234614474E+02 -0.92707927332E+03  0.21173723228E+04  0.59998564262E+03 0.  0.
         23    2    4    4    0    0 -0.77940231834E+03  0.36576064585E+02 -0.97177637278E+02  0.79158594505E+03  0.91427746764E+02 0.  0.
         23    2    4    4    0    0 -0.10266569558E+04 -0.80810679059E+02 -0.82990163604E+03  0.13257863777E+04  0.91749240236E+02 0.  0.
          3    1    3    3  502    0  0.11415060914E+04 -0.12294840237E+02 -0.64474715234E+03  0.13110630077E+04  0.00000000000E+00 0. -1.
         -3    1    3    3    0  502  0.66455318280E+03  0.56529454711E+02 -0.40548936666E+03  0.78054348918E+03  0.00000000000E+00 0.  1.
         15    1    5    5    0    0 -0.73181322082E+03  0.41671817056E+02 -0.11187095641E+03  0.74148863722E+03  0.17770000000E+01 0. -1.
        -15    1    5    5    0    0 -0.47589097516E+02 -0.50957524713E+01  0.14693319131E+02  0.50097307829E+02  0.17770000000E+01 0.  1.
          4    1    6    6  503    0 -0.74137658308E+03 -0.20094246356E+02 -0.57523871884E+03  0.93858542516E+03  0.00000000000E+00 0. -1.
         -4    1    6    6    0  503 -0.28528037276E+03 -0.60716432702E+02 -0.25466291720E+03  0.38720095258E+03  0.00000000000E+00 0.  1.
<mgrwt>
<rscale>  0 0.18113696E+04</rscale>
<asrwt>0</asrwt>
<pdfrwt beam="1">  1        1 0.47586882E+00 0.18113696E+04</pdfrwt>
<pdfrwt beam="2">  1       -1 0.17166638E+00 0.18113696E+04</pdfrwt>
<totfact> 0.11190794E-01</totfact>
</mgrwt>
</event>
<event>
12    1  0.9321077E-008  0.5524486E+03  0.7818608E-02  0.1000929E+00
          2   -1    0    0  501    0  0.00000000000E+00  0.00000000000E+00  0.71140574286E+03  0.71140574286E+03  0.00000000000E+00 0. -1.
         -2   -1    0    0    0  501 -0.00000000000E+00 -0.00000000000E+00 -0.47085128409E+03  0.47085128409E+03  0.00000000000E+00 0.  1.
         23    2    1    2    0    0  0.38400874158E+03  0.15653155898E+03  0.43711183173E+02  0.42682584017E+03  0.91130608101E+02 0.  0.
    5000000    2    1    2    0    0 -0.38400874158E+03 -0.15653155898E+03  0.19684327559E+03  0.75543118678E+03  0.59997013280E+03 0.  0.
         23    2    4    4    0    0  0.12707086583E+03 -0.70599948948E+02 -0.43674226074E+02  0.17699665147E+03  0.91044049096E+02 0.  0.
         23    2    4    4    0    0 -0.51107960741E+03 -0.85931610028E+02  0.24051750166E+03  0.57843453531E+03  0.90284197520E+02 0.  0.
          3    1    3    3  502    0  0.17700508608E+03  0.10020680017E+03 -0.16320002182E+02  0.20405525176E+03  0.00000000000E+00 0. -1.
         -3    1    3    3    0  502  0.20700365550E+03  0.56324758810E+02  0.60031185356E+02  0.22277058841E+03  0.00000000000E+00 0.  1.
         15    1    5    5    0    0  0.19635955247E+02 -0.55785869311E+02  0.22472833810E+01  0.59210150860E+02  0.17770000000E+01 0. -1.
        -15    1    5    5    0    0  0.10743491058E+03 -0.14814079636E+02 -0.45921509455E+02  0.11778650061E+03  0.17770000000E+01 0.  1.
          4    1    6    6  503    0 -0.31304507680E+03 -0.69124411004E+02  0.19260370400E+03  0.37399410570E+03  0.00000000000E+00 0. -1.
         -4    1    6    6    0  503 -0.19803453060E+03 -0.16807199024E+02  0.47913797667E+02  0.20444042961E+03  0.00000000000E+00 0.  1.
<mgrwt>
<rscale>  0 0.55244864E+03</rscale>
<asrwt>0</asrwt>
<pdfrwt beam="1">  1        2 0.10944704E+00 0.55244864E+03</pdfrwt>
<pdfrwt beam="2">  1       -2 0.72438659E-01 0.55244864E+03</pdfrwt>
<totfact> 0.71197775E+01</totfact>
</mgrwt>
</event>
<event>
12    1  0.9321077E-008  0.7419272E+03  0.7818608E-02  0.9648101E-01
         -2   -1    0    0    0  501 -0.00000000000E+00  0.00000000000E+00  0.22547163573E+04  0.22547163573E+04  0.00000000000E+00 0.  1.
          2   -1    0    0  501    0  0.00000000000E+00 -0.00000000000E+00 -0.33069808317E+03  0.33069808317E+03  0.00000000000E+00 0. -1.
         23    2    1    2    0    0  0.66821654676E+02  0.67158185135E+03  0.13591260750E+04  0.15201653865E+04  0.90508551051E+02 0.  0.
    5000000    2    1    2    0    0 -0.66821654676E+02 -0.67158185135E+03  0.56489219914E+03  0.10652490540E+04  0.60013751247E+03 0.  0.
         23    2    4    4    0    0  0.30271536098E+02 -0.68581055791E+03  0.27467626026E+03  0.74569774359E+03  0.96775976386E+02 0.  0.
         23    2    4    4    0    0 -0.97093190774E+02  0.14228706560E+02  0.29021593888E+03  0.31955131045E+03  0.90874666667E+02 0.  0.
          3    1    3    3  502    0  0.17026390467E+02  0.23530801634E+03  0.38317628717E+03  0.44998203028E+03  0.00000000000E+00 0. -1.
         -3    1    3    3    0  502  0.49795264208E+02  0.43627383501E+03  0.97594978785E+03  0.10701833562E+04  0.00000000000E+00 0.  1.
         15    1    5    5    0    0  0.31600687127E+02 -0.52189125891E+03  0.25129420201E+03  0.58010432101E+03  0.17770000000E+01 0. -1.
        -15    1    5    5    0    0 -0.13291510284E+01 -0.16391929900E+03  0.23382058250E+02  0.16559342258E+03  0.17770000000E+01 0.  1.
          2    1    6    6  503    0 -0.95998930129E+02 -0.11144475408E+02  0.16032396907E+03  0.18719981030E+03  0.00000000000E+00 0.  1.
         -2    1    6    6    0  503 -0.10942606454E+01  0.25373181968E+02  0.12989196981E+03  0.13235150014E+03  0.00000000000E+00 0. -1.
<mgrwt>
<rscale>  0 0.74192723E+03</rscale>
<asrwt>0</asrwt>
<pdfrwt beam="1">  1        2 0.50876630E-01 0.74192723E+03</pdfrwt>
<pdfrwt beam="2">  1       -2 0.34687943E+00 0.74192723E+03</pdfrwt>
<totfact> 0.16880961E+00</totfact>
</mgrwt>
</event>
<event>
12    1  0.9321077E-008  0.1147198E+04  0.7818608E-02  0.9160372E-01
          2   -1    0    0  501    0  0.00000000000E+00  0.00000000000E+00  0.25923290085E+04  0.25923290085E+04  0.00000000000E+00 0. -1.
         -2   -1    0    0    0  501 -0.00000000000E+00 -0.00000000000E+00 -0.72525350463E+03  0.72525350463E+03  0.00000000000E+00 0.  1.
         23    2    1    2    0    0  0.10291199691E+04  0.29115974857E+03 -0.12516966843E+02  0.10733576866E+04  0.89878467689E+02 0.  0.
    5000000    2    1    2    0    0 -0.10291199691E+04 -0.29115974857E+03  0.18795924707E+04  0.22442248265E+04  0.59984606861E+03 0.  0.
         23    2    4    4    0    0 -0.91257206256E+03 -0.21730398437E+02  0.13578411292E+04  0.16386804571E+04  0.91000707811E+02 0.  0.
         23    2    4    4    0    0 -0.11654790653E+03 -0.26942935014E+03  0.52175134155E+03  0.60554436943E+03  0.91016106840E+02 0.  0.
          4    1    3    3  502    0  0.59277622226E+03  0.14567000385E+03 -0.46252195474E+02  0.61216228672E+03  0.00000000000E+00 0. -1.
         -4    1    3    3    0  502  0.43634374684E+03  0.14548974473E+03  0.33735228631E+02  0.46119539988E+03  0.00000000000E+00 0.  1.
         15    1    5    5    0    0 -0.50593559011E+03 -0.57173638405E+02  0.75823105698E+03  0.91332203509E+03  0.17770000000E+01 0. -1.
        -15    1    5    5    0    0 -0.40663647245E+03  0.35443239969E+02  0.59961007217E+03  0.72535842199E+03  0.17770000000E+01 0.  1.
          1    1    6    6  503    0 -0.12934978980E+03 -0.21623759614E+03  0.41274955738E+03  0.48358273669E+03  0.00000000000E+00 0. -1.
         -1    1    6    6    0  503  0.12801883265E+02 -0.53191753998E+02  0.10900178416E+03  0.12196163274E+03  0.00000000000E+00 0.  1.
<mgrwt>
<rscale>  0 0.11471982E+04</rscale>
<asrwt>0</asrwt>
<pdfrwt beam="1">  1        2 0.39881984E+00 0.11471982E+04</pdfrwt>
<pdfrwt beam="2">  1       -2 0.11157746E+00 0.11471982E+04</pdfrwt>
<totfact> 0.19310684E+00</totfact>
</mgrwt>
</event>
<event>
12    1  0.9321077E-008  0.9230751E+03  0.7818608E-02  0.9397187E-01
          1   -1    0    0  501    0  0.00000000000E+00  0.00000000000E+00  0.17156990262E+04  0.17156990262E+04  0.00000000000E+00 0. -1.
         -1   -1    0    0    0  501 -0.00000000000E+00 -0.00000000000E+00 -0.69971552428E+03  0.69971552428E+03  0.00000000000E+00 0.  1.
         23    2    1    2    0    0 -0.20308106879E+03 -0.82860971954E+03  0.10682523579E+04  0.13711322477E+04  0.10490258734E+03 0.  0.
    5000000    2    1    2    0    0  0.20308106879E+03  0.82860971954E+03 -0.52268855953E+02  0.10442823028E+04  0.59996458789E+03 0.  0.
         23    2    4    4    0    0 -0.13214195160E+03  0.49472775275E+03 -0.17431920500E+03  0.54787631527E+03  0.86972563977E+02 0.  0.
         23    2    4    4    0    0  0.33522302039E+03  0.33388196680E+03  0.12205034905E+03  0.49640598749E+03  0.87584105674E+02 0.  0.
          3    1    3    3  502    0 -0.18632154588E+03 -0.76987572266E+03  0.10288631909E+04  0.12984543936E+04  0.00000000000E+00 0. -1.
         -3    1    3    3    0  502 -0.16759522910E+02 -0.58733996887E+02  0.39389166971E+02  0.72677854076E+02  0.00000000000E+00 0.  1.
         15    1    5    5    0    0 -0.16415468674E+02  0.21280475776E+03 -0.90224581107E+02  0.23173037199E+03  0.17770000000E+01 0. -1.
        -15    1    5    5    0    0 -0.11572648293E+03  0.28192299499E+03 -0.84094623892E+02  0.31614594328E+03  0.17770000000E+01 0.  1.
          4    1    6    6  503    0  0.11235224696E+03  0.13885852577E+03  0.71984159821E+01  0.17876390790E+03  0.00000000000E+00 0.  1.
         -4    1    6    6    0  503  0.22287077343E+03  0.19502344103E+03  0.11485193306E+03  0.31764207959E+03  0.00000000000E+00 0. -1.
<mgrwt>
<rscale>  0 0.92307512E+03</rscale>
<asrwt>0</asrwt>
<pdfrwt beam="1">  1        1 0.26395370E+00 0.92307512E+03</pdfrwt>
<pdfrwt beam="2">  1       -1 0.10764854E+00 0.92307512E+03</pdfrwt>
<totfact> 0.38024384E+00</totfact>
</mgrwt>
</event>
<event>
12    1  0.9321077E-008  0.6575591E+03  0.7818608E-02  0.9792698E-01
          2   -1    0    0  501    0  0.00000000000E+00  0.00000000000E+00  0.28901892013E+03  0.28901892013E+03  0.00000000000E+00 0.  1.
         -2   -1    0    0    0  501 -0.00000000000E+00 -0.00000000000E+00 -0.21667104171E+04  0.21667104171E+04  0.00000000000E+00 0. -1.
         23    2    1    2    0    0 -0.58792560072E+03 -0.17337010809E+03 -0.37049851477E+03  0.72154743660E+03  0.87451972249E+02 0.  0.
    5000000    2    1    2    0    0  0.58792560072E+03  0.17337010809E+03 -0.15071929822E+04  0.17341819007E+04  0.60003539272E+03 0.  0.
         23    2    4    4    0    0  0.56773416868E+03  0.20161849729E+03 -0.73072006041E+03  0.95131769056E+03  0.89896812771E+02 0.  0.
         23    2    4    4    0    0  0.20191432043E+02 -0.28248389199E+02 -0.77647292182E+03  0.78286421009E+03  0.93597583915E+02 0.  0.
          1    1    3    3  502    0 -0.52925859379E+03 -0.14449660280E+03 -0.29961251490E+03  0.62510925957E+03  0.00000000000E+00 0. -1.
         -1    1    3    3    0  502 -0.58667006933E+02 -0.28873505295E+02 -0.70885999866E+02  0.96438177023E+02  0.00000000000E+00 0.  1.
         15    1    5    5    0    0  0.34427655429E+03  0.16755724674E+03 -0.47134831077E+03  0.60726778654E+03  0.17770000000E+01 0. -1.
        -15    1    5    5    0    0  0.22345761439E+03  0.34061250551E+02 -0.25937174964E+03  0.34404990402E+03  0.17770000000E+01 0.  1.
          4    1    6    6  503    0  0.52903977224E+02 -0.75118551978E+01 -0.29225270279E+03  0.29709746054E+03  0.00000000000E+00 0. -1.
         -4    1    6    6    0  503 -0.32712545181E+02 -0.20736534001E+02 -0.48422021903E+03  0.48576674955E+03  0.00000000000E+00 0.  1.
<mgrwt>
<rscale>  0 0.65755912E+03</rscale>
<asrwt>0</asrwt>
<pdfrwt beam="1">  1        2 0.44464451E-01 0.65755912E+03</pdfrwt>
<pdfrwt beam="2">  1       -2 0.33334005E+00 0.65755912E+03</pdfrwt>
<totfact> 0.24088787E+00</totfact>
</mgrwt>
</event>
<event>
12    1  0.9321077E-008  0.5131753E+03  0.7818608E-02  0.1010396E+00
          2   -1    0    0  501    0  0.00000000000E+00  0.00000000000E+00  0.43663341291E+03  0.43663341291E+03  0.00000000000E+00 0. -1.
         -2   -1    0    0    0  501 -0.00000000000E+00 -0.00000000000E+00 -0.82272436827E+03  0.82272436827E+03  0.00000000000E+00 0.  1.
         23    2    1    2    0    0  0.43050939759E+03 -0.64372766647E+02 -0.53577031836E+02  0.44696308858E+03  0.86158631092E+02 0.  0.
    5000000    2    1    2    0    0 -0.43050939759E+03  0.64372766647E+02 -0.33251392352E+03  0.81239469260E+03  0.59994785835E+03 0.  0.
         23    2    4    4    0    0  0.25889887976E+02  0.85971181835E+02 -0.32212845188E+03  0.34651094880E+03  0.90784182109E+02 0.  0.
         23    2    4    4    0    0 -0.45639928557E+03 -0.21598415188E+02 -0.10385471641E+02  0.46588374381E+03  0.90404675300E+02 0.  0.
          2    1    3    3  502    0  0.15881641089E+03 -0.64854062120E+02 -0.10427582510E+02  0.17186458687E+03  0.00000000000E+00 0. -1.
         -2    1    3    3    0  502  0.27169298670E+03  0.48129547324E+00 -0.43149449326E+02  0.27509850171E+03  0.00000000000E+00 0.  1.
         15    1    5    5    0    0  0.46278862368E+02  0.11418562514E+02 -0.15879753736E+03  0.16580691262E+03  0.17770000000E+01 0.  1.
        -15    1    5    5    0    0 -0.20388974392E+02  0.74552619321E+02 -0.16333091452E+03  0.18070403618E+03  0.17770000000E+01 0. -1.
          3    1    6    6  503    0 -0.29822140458E+03  0.16193270548E+01  0.33488216187E+02  0.30010013161E+03  0.00000000000E+00 0. -1.
         -3    1    6    6    0  503 -0.15817788099E+03 -0.23217742243E+02 -0.43873687828E+02  0.16578361219E+03  0.00000000000E+00 0.  1.
<mgrwt>
<rscale>  0 0.51317530E+03</rscale>
<asrwt>0</asrwt>
<pdfrwt beam="1">  1        2 0.67174371E-01 0.51317530E+03</pdfrwt>
<pdfrwt beam="2">  1       -2 0.12657298E+00 0.51317530E+03</pdfrwt>
<totfact> 0.34546809E+01</totfact>
</mgrwt>
</event>
<event>
12    1  0.9321077E-008  0.7187297E+03  0.7818608E-02  0.9685727E-01
         -1   -1    0    0    0  501 -0.00000000000E+00  0.00000000000E+00  0.86721659054E+03  0.86721659054E+03  0.00000000000E+00 0.  1.
          1   -1    0    0  501    0  0.00000000000E+00 -0.00000000000E+00 -0.87592134718E+03  0.87592134718E+03  0.00000000000E+00 0. -1.
         23    2    1    2    0    0 -0.25291423514E+03  0.56578113839E+03 -0.45235760616E+03  0.77308130515E+03  0.94622373843E+02 0.  0.
    5000000    2    1    2    0    0  0.25291423514E+03 -0.56578113839E+03  0.44365284952E+03  0.97005663257E+03  0.60009008708E+03 0.  0.
         23    2    4    4    0    0  0.41305545338E+03 -0.46069910489E+03  0.42398789486E+03  0.75696249352E+03  0.10182341967E+03 0.  0.
         23    2    4    4    0    0 -0.16014121824E+03 -0.10508203350E+03  0.19664954665E+02  0.21309413905E+03  0.91295991783E+02 0.  0.
          1    1    3    3  502    0 -0.18975649558E+03  0.36236864876E+03 -0.34208666775E+03  0.53323714562E+03  0.00000000000E+00 0. -1.
         -1    1    3    3    0  502 -0.63157739565E+02  0.20341248963E+03 -0.11027093841E+03  0.23984415953E+03  0.00000000000E+00 0.  1.
         15    1    5    5    0    0  0.23331155977E+03 -0.22396171244E+03  0.27471168740E+03  0.42433807451E+03  0.17770000000E+01 0. -1.
        -15    1    5    5    0    0  0.17974389361E+03 -0.23673739245E+03  0.14927620746E+03  0.33262441901E+03  0.17770000000E+01 0.  1.
          4    1    6    6  503    0 -0.13162140182E+02  0.14398789402E+01 -0.23080171410E+02  0.26608447866E+02  0.00000000000E+00 0.  1.
         -4    1    6    6    0  503 -0.14697907805E+03 -0.10652191244E+03  0.42745126075E+02  0.18648569119E+03  0.00000000000E+00 0. -1.
<mgrwt>
<rscale>  0 0.71872970E+03</rscale>
<asrwt>0</asrwt>
<pdfrwt beam="1">  1        1 0.13475713E+00 0.71872970E+03</pdfrwt>
<pdfrwt beam="2">  1       -1 0.13341794E+00 0.71872970E+03</pdfrwt>
<totfact> 0.93742391E+00</totfact>
</mgrwt>
</event>
<event>
12    1  0.9321077E-008  0.8238966E+03  0.7818608E-02  0.9526058E-01
         -1   -1    0    0    0  501 -0.00000000000E+00  0.00000000000E+00  0.52121970279E+03  0.52121970279E+03  0.00000000000E+00 0.  1.
          1   -1    0    0  501    0  0.00000000000E+00 -0.00000000000E+00 -0.13788008323E+04  0.13788008323E+04  0.00000000000E+00 0. -1.
         23    2    1    2    0    0  0.73247249200E+03  0.22411791820E+02 -0.27372262067E+03  0.78748095833E+03  0.90465168540E+02 0.  0.
    5000000    2    1    2    0    0 -0.73247249200E+03 -0.22411791820E+02 -0.58385850885E+03  0.11125395768E+04  0.59986274395E+03 0.  0.
         23    2    4    4    0    0 -0.80825555964E+03  0.14904388129E+02 -0.55554916589E+03  0.98507766761E+03  0.90796173025E+02 0.  0.
         23    2    4    4    0    0  0.75783067641E+02 -0.37316179949E+02 -0.28309342955E+02  0.12746190915E+03  0.91156726353E+02 0.  0.
          2    1    3    3  502    0  0.25331816151E+03 -0.69833234218E+01 -0.13826892648E+03  0.28868175174E+03  0.00000000000E+00 0. -1.
         -2    1    3    3    0  502  0.47915433050E+03  0.29395115242E+02 -0.13545369419E+03  0.49879920660E+03  0.00000000000E+00 0.  1.
         15    1    5    5    0    0 -0.44284668623E+03  0.25639403104E+02 -0.35469490086E+03  0.56796320033E+03  0.17770000000E+01 0.  1.
        -15    1    5    5    0    0 -0.36540887341E+03 -0.10735014976E+02 -0.20085426503E+03  0.41711446729E+03  0.17770000000E+01 0. -1.
          1    1    6    6  503    0  0.57897129405E+02 -0.55109397210E+02  0.11069065292E+02  0.80694779637E+02  0.00000000000E+00 0. -1.
         -1    1    6    6    0  503  0.17885938236E+02  0.17793217261E+02 -0.39378408248E+02  0.46767129516E+02  0.00000000000E+00 0.  1.
<mgrwt>
<rscale>  0 0.82389664E+03</rscale>
<asrwt>0</asrwt>
<pdfrwt beam="1">  1        1 0.21212321E+00 0.82389664E+03</pdfrwt>
<pdfrwt beam="2">  1       -1 0.80187646E-01 0.82389664E+03</pdfrwt>
<totfact> 0.12655262E+01</totfact>
</mgrwt>
</event>
<event>
12    1  0.9321077E-008  0.1522775E+04  0.7818608E-02  0.8869447E-01
         -1   -1    0    0    0  501 -0.00000000000E+00  0.00000000000E+00  0.22910162047E+04  0.22910162047E+04  0.00000000000E+00 0.  1.
          1   -1    0    0  501    0  0.00000000000E+00 -0.00000000000E+00 -0.12247191080E+04  0.12247191080E+04  0.00000000000E+00 0. -1.
         23    2    1    2    0    0 -0.13766752254E+04 -0.63596184418E+03  0.11153548030E+04  0.18847056278E+04  0.91743246855E+02 0.  0.
    5000000    2    1    2    0    0  0.13766752254E+04  0.63596184418E+03 -0.49057706321E+02  0.16310296849E+04  0.59847224744E+03 0.  0.
         23    2    4    4    0    0  0.30745006805E+03  0.21033883795E+03  0.22574656264E+03  0.44421548962E+03  0.87166046010E+02 0.  0.
         23    2    4    4    0    0  0.10692251573E+04  0.42562300623E+03 -0.27480426896E+03  0.11868141953E+04  0.92807151253E+02 0.  0.
          2    1    3    3  502    0 -0.25900374650E+03 -0.15415921526E+03  0.24512691893E+03  0.38850381045E+03  0.00000000000E+00 0.  1.
         -2    1    3    3    0  502 -0.11176714789E+04 -0.48180262892E+03  0.87022788411E+03  0.14962018174E+04  0.00000000000E+00 0. -1.
         15    1    5    5    0    0  0.34213487373E+02  0.24828711183E+02  0.63356994069E+02  0.76185917620E+02  0.17770000000E+01 0. -1.
        -15    1    5    5    0    0  0.27323658068E+03  0.18551012677E+03  0.16238956857E+03  0.36802957200E+03  0.17770000000E+01 0.  1.
          4    1    6    6  503    0  0.46963239128E+03  0.13820271204E+03 -0.10908806010E+03  0.50155236757E+03  0.00000000000E+00 0. -1.
         -4    1    6    6    0  503  0.59959276607E+03  0.28742029419E+03 -0.16571620886E+03  0.68526182770E+03  0.00000000000E+00 0.  1.
<mgrwt>
<rscale>  0 0.15227751E+04</rscale>
<asrwt>0</asrwt>
<pdfrwt beam="1">  1        1 0.18841832E+00 0.15227751E+04</pdfrwt>
<pdfrwt beam="2">  1       -1 0.35246403E+00 0.15227751E+04</pdfrwt>
<totfact> 0.14520641E-01</totfact>
</mgrwt>
</event>
<event>
12    1  0.9321077E-008  0.7370192E+03  0.7818608E-02  0.9655938E-01
         -2   -1    0    0    0  501 -0.00000000000E+00  0.00000000000E+00  0.72526873137E+03  0.72526873137E+03  0.00000000000E+00 0.  1.
          2   -1    0    0  501    0  0.00000000000E+00 -0.00000000000E+00 -0.96675620487E+03  0.96675620487E+03  0.00000000000E+00 0. -1.
         23    2    1    2    0    0 -0.70316091837E+03 -0.16039973178E+03 -0.15894565536E+02  0.72703702120E+03  0.90370580906E+02 0.  0.
    5000000    2    1    2    0    0  0.70316091837E+03  0.16039973178E+03 -0.22559290796E+03  0.96498791504E+03  0.60012179178E+03 0.  0.
         23    2    4    4    0    0  0.33255959213E+03  0.18161322668E+03  0.16054708092E+03  0.42160500490E+03  0.91630609186E+02 0.  0.
         23    2    4    4    0    0  0.37060132625E+03 -0.21213494902E+02 -0.38613998888E+03  0.54338291014E+03  0.91463329488E+02 0.  0.
          2    1    3    3  502    0 -0.23632005902E+03 -0.29995239483E+02 -0.40803810430E+02  0.24168540633E+03  0.00000000000E+00 0. -1.
         -2    1    3    3    0  502 -0.46684085935E+03 -0.13040449229E+03  0.24909244894E+02  0.48535161486E+03  0.00000000000E+00 0.  1.
         15    1    5    5    0    0  0.17607516492E+03  0.80864753581E+02  0.12913339384E+03  0.23285223471E+03  0.17770000000E+01 0. -1.
        -15    1    5    5    0    0  0.15648442721E+03  0.10074847310E+03  0.31413687083E+02  0.18875277019E+03  0.17770000000E+01 0.  1.
          4    1    6    6  503    0  0.99337584905E+02 -0.72846099856E+01 -0.50715643215E+02  0.11177252697E+03  0.00000000000E+00 0. -1.
         -4    1    6    6    0  503  0.27126374134E+03 -0.13928884917E+02 -0.33542434567E+03  0.43161038318E+03  0.00000000000E+00 0.  1.
<mgrwt>
<rscale>  0 0.73701923E+03</rscale>
<asrwt>0</asrwt>
<pdfrwt beam="1">  1        2 0.14873172E+00 0.73701923E+03</pdfrwt>
<pdfrwt beam="2">  1       -2 0.11157980E+00 0.73701923E+03</pdfrwt>
<totfact> 0.17098179E+01</totfact>
</mgrwt>
</event>
<event>
12    1  0.9321077E-008  0.5158818E+03  0.7818608E-02  0.1009715E+00
          2   -1    0    0  501    0  0.00000000000E+00  0.00000000000E+00  0.20275335504E+04  0.20275335504E+04  0.00000000000E+00 0. -1.
         -2   -1    0    0    0  501 -0.00000000000E+00 -0.00000000000E+00 -0.21255436907E+03  0.21255436907E+03  0.00000000000E+00 0.  1.
         23    2    1    2    0    0 -0.12138260284E+03  0.34983910575E+03  0.13318738745E+04  0.13852894526E+04  0.89541687644E+02 0.  0.
    5000000    2    1    2    0    0  0.12138260284E+03 -0.34983910575E+03  0.48310530686E+03  0.85479846686E+03  0.60014043794E+03 0.  0.
         23    2    4    4    0    0  0.20770323337E+03  0.71325270397E+02  0.58819566824E+02  0.24502321278E+03  0.91371253755E+02 0.  0.
         23    2    4    4    0    0 -0.86320630527E+02 -0.42116437615E+03  0.42428574004E+03  0.60977525408E+03  0.83527171024E+02 0.  0.
          1    1    3    3  502    0 -0.12563014949E+03  0.23868410123E+03  0.93913070591E+03  0.97709749638E+03  0.00000000000E+00 0. -1.
         -1    1    3    3    0  502  0.42475466455E+01  0.11115500452E+03  0.39274316857E+03  0.40819195624E+03  0.00000000000E+00 0.  1.
         15    1    5    5    0    0  0.16924971701E+03  0.53843203331E+02  0.83287961312E+02  0.19617492063E+03  0.17770000000E+01 0.  1.
        -15    1    5    5    0    0  0.38453516355E+02  0.17482067066E+02 -0.24468394488E+02  0.48848292158E+02  0.17770000000E+01 0. -1.
          2    1    6    6  503    0 -0.68188430078E+02 -0.26266779115E+03  0.31813825947E+03  0.41815784417E+03  0.00000000000E+00 0. -1.
         -2    1    6    6    0  503 -0.18132200449E+02 -0.15849658499E+03  0.10614748056E+03  0.19161740990E+03  0.00000000000E+00 0.  1.
<mgrwt>
<rscale>  0 0.51588180E+03</rscale>
<asrwt>0</asrwt>
<pdfrwt beam="1">  1        2 0.31192823E+00 0.51588180E+03</pdfrwt>
<pdfrwt beam="2">  1       -2 0.32700673E-01 0.51588180E+03</pdfrwt>
<totfact> 0.59842823E+01</totfact>
</mgrwt>
</event>
<event>
12    1  0.9321077E-008  0.1437766E+04  0.7818608E-02  0.8926926E-01
         -1   -1    0    0    0  501 -0.00000000000E+00  0.00000000000E+00  0.94585947335E+03  0.94585947335E+03  0.00000000000E+00 0.  1.
          1   -1    0    0  501    0  0.00000000000E+00 -0.00000000000E+00 -0.22004830374E+04  0.22004830374E+04  0.00000000000E+00 0. -1.
         23    2    1    2    0    0 -0.97057493132E+03 -0.97854829443E+03 -0.56028998793E+03  0.14905462214E+04  0.90723236929E+02 0.  0.
    5000000    2    1    2    0    0  0.97057493132E+03  0.97854829443E+03 -0.69433357609E+03  0.16557962893E+04  0.59999147913E+03 0.  0.
         23    2    4    4    0    0  0.76175065926E+03  0.37819863483E+03 -0.46608318083E+03  0.97407267807E+03  0.91026240400E+02 0.  0.
         23    2    4    4    0    0  0.20882427206E+03  0.60034965960E+03 -0.22825039526E+03  0.68172361125E+03  0.92852295739E+02 0.  0.
          4    1    3    3  502    0 -0.33653779423E+03 -0.28193803030E+03 -0.19146114472E+03  0.47896149095E+03  0.00000000000E+00 0. -1.
         -4    1    3    3    0  502 -0.63403713709E+03 -0.69661026412E+03 -0.36882884321E+03  0.10115847304E+04  0.00000000000E+00 0.  1.
         15    1    5    5    0    0  0.41499020350E+03  0.23591216923E+03 -0.21946416386E+03  0.52539423059E+03  0.17770000000E+01 0.  1.
        -15    1    5    5    0    0  0.34676045576E+03  0.14228646560E+03 -0.24661901697E+03  0.44867844748E+03  0.17770000000E+01 0. -1.
          1    1    6    6  503    0  0.18953923238E+03  0.41754492761E+03 -0.16442016346E+03  0.48713743167E+03  0.00000000000E+00 0. -1.
         -1    1    6    6    0  503  0.19285039680E+02  0.18280473199E+03 -0.63830231807E+02  0.19458617959E+03  0.00000000000E+00 0.  1.
<mgrwt>
<rscale>  0 0.14377664E+04</rscale>
<asrwt>0</asrwt>
<pdfrwt beam="1">  1        1 0.33853585E+00 0.14377664E+04</pdfrwt>
<pdfrwt beam="2">  1       -1 0.14551684E+00 0.14377664E+04</pdfrwt>
<totfact> 0.78812643E-01</totfact>
</mgrwt>
</event>
<event>
12    1  0.9321077E-008  0.6639651E+03  0.7818608E-02  0.9780922E-01
          1   -1    0    0  501    0  0.00000000000E+00  0.00000000000E+00  0.81836031065E+03  0.81836031065E+03  0.00000000000E+00 0. -1.
         -1   -1    0    0    0  501 -0.00000000000E+00 -0.00000000000E+00 -0.71097339594E+03  0.71097339594E+03  0.00000000000E+00 0.  1.
         23    2    1    2    0    0 -0.56201902982E+02  0.54129372833E+03 -0.29414482946E+03  0.62525207941E+03  0.90892397270E+02 0.  0.
    5000000    2    1    2    0    0  0.56201902982E+02 -0.54129372833E+03  0.40153174417E+03  0.90408162718E+03  0.59998191039E+03 0.  0.
         23    2    4    4    0    0 -0.80271093607E+02  0.85979821427E+02  0.14149149656E+03  0.20513650969E+03  0.90692700064E+02 0.  0.
         23    2    4    4    0    0  0.13647299659E+03 -0.62727354975E+03  0.26004024761E+03  0.69894511749E+03  0.93842217970E+02 0.  0.
          3    1    3    3  502    0 -0.65255041850E+02  0.21105728855E+03 -0.13051882179E+03  0.25659026165E+03  0.00000000000E+00 0.  1.
         -3    1    3    3    0  502  0.90531388679E+01  0.33023643978E+03 -0.16362600768E+03  0.36866181776E+03  0.00000000000E+00 0. -1.
         15    1    5    5    0    0 -0.43837781341E+02  0.12084941979E+02  0.51133386598E+01  0.45794113778E+02  0.17770000000E+01 0.  1.
        -15    1    5    5    0    0 -0.36433312266E+02  0.73894879448E+02  0.13637815790E+03  0.15934239591E+03  0.17770000000E+01 0. -1.
          3    1    6    6  503    0 -0.18083705506E+01 -0.19243136246E+03  0.74019943503E+02  0.20618450839E+03  0.00000000000E+00 0. -1.
         -3    1    6    6    0  503  0.13828136714E+03 -0.43484218729E+03  0.18602030410E+03  0.49276060910E+03  0.00000000000E+00 0.  1.
<mgrwt>
<rscale>  0 0.66396514E+03</rscale>
<asrwt>0</asrwt>
<pdfrwt beam="1">  1        1 0.12590159E+00 0.66396514E+03</pdfrwt>
<pdfrwt beam="2">  1       -1 0.10938052E+00 0.66396514E+03</pdfrwt>
<totfact> 0.17141881E+01</totfact>
</mgrwt>
</event>
<event>
12    1  0.9321077E-008  0.5291952E+03  0.7818608E-02  0.1006428E+00
         -1   -1    0    0    0  501 -0.00000000000E+00  0.00000000000E+00  0.20756178266E+03  0.20756178266E+03  0.00000000000E+00 0.  1.
          1   -1    0    0  501    0  0.00000000000E+00 -0.00000000000E+00 -0.15710257019E+04  0.15710257019E+04  0.00000000000E+00 0. -1.
         23    2    1    2    0    0  0.36331667782E+03 -0.15817522132E+03 -0.64857316524E+03  0.76535961264E+03  0.90054300109E+02 0.  0.
    5000000    2    1    2    0    0 -0.36331667782E+03  0.15817522132E+03 -0.71489075400E+03  0.10132278719E+04  0.59878503759E+03 0.  0.
         23    2    4    4    0    0 -0.27969016265E+03 -0.14599578335E+03 -0.15376416079E+03  0.36290765323E+03  0.92288633053E+02 0.  0.
         23    2    4    4    0    0 -0.83626515170E+02  0.30417100467E+03 -0.56112659321E+03  0.65032021868E+03  0.92411790869E+02 0.  0.
          4    1    3    3  502    0  0.84103927963E+02 -0.73012995838E+02 -0.22338732370E+03  0.24961222856E+03  0.00000000000E+00 0. -1.
         -4    1    3    3    0  502  0.27921274986E+03 -0.85162225479E+02 -0.42518584154E+03  0.51574738408E+03  0.00000000000E+00 0.  1.
         15    1    5    5    0    0 -0.89213574974E+02 -0.92769104790E+02 -0.40242053571E+02  0.13486196413E+03  0.17770000000E+01 0.  1.
        -15    1    5    5    0    0 -0.19047658768E+03 -0.53226678563E+02 -0.11352210722E+03  0.22804568911E+03  0.17770000000E+01 0. -1.
          3    1    6    6  503    0 -0.88416197100E+02  0.30923930549E+03 -0.54659992906E+03  0.63420647617E+03  0.00000000000E+00 0. -1.
         -3    1    6    6    0  503  0.47896819291E+01 -0.50683008213E+01 -0.14526664151E+02  0.16113742506E+02  0.00000000000E+00 0.  1.
<mgrwt>
<rscale>  0 0.52919516E+03</rscale>
<asrwt>0</asrwt>
<pdfrwt beam="1">  1        1 0.24169625E+00 0.52919516E+03</pdfrwt>
<pdfrwt beam="2">  1       -1 0.31932583E-01 0.52919516E+03</pdfrwt>
<totfact> 0.56458226E+01</totfact>
</mgrwt>
</event>
<event>
12    1  0.9321077E-008  0.1332966E+04  0.7818608E-02  0.9003824E-01
          2   -1    0    0  501    0  0.00000000000E+00  0.00000000000E+00  0.15556861367E+04  0.15556861367E+04  0.00000000000E+00 0. -1.
         -2   -1    0    0    0  501 -0.00000000000E+00 -0.00000000000E+00 -0.17134408355E+04  0.17134408355E+04  0.00000000000E+00 0.  1.
         23    2    1    2    0    0 -0.10586640764E+04  0.79433294794E+03 -0.93310914510E+03  0.16219605525E+04  0.91262797863E+02 0.  0.
    5000000    2    1    2    0    0  0.10586640764E+04 -0.79433294794E+03  0.77535444631E+03  0.16471664197E+04  0.60020682930E+03 0.  0.
         23    2    4    4    0    0  0.23024612638E+03 -0.27132851678E+03  0.50868126066E+03  0.62750883279E+03  0.91532876879E+02 0.  0.
         23    2    4    4    0    0  0.82841795004E+03 -0.52300443117E+03  0.26667318565E+03  0.10196575869E+04  0.93686027108E+02 0.  0.
          3    1    3    3  502    0 -0.45382383338E+03  0.28992539341E+03 -0.40257283123E+03  0.67236722848E+03  0.00000000000E+00 0. -1.
         -3    1    3    3    0  502 -0.60484024304E+03  0.50440755454E+03 -0.53053631387E+03  0.94959332401E+03  0.00000000000E+00 0.  1.
         15    1    5    5    0    0  0.42645080186E+02 -0.84041393301E+02  0.19665191040E+03  0.21807496474E+03  0.17770000000E+01 0.  1.
        -15    1    5    5    0    0  0.18760104620E+03 -0.18728712348E+03  0.31202935025E+03  0.40943386805E+03  0.17770000000E+01 0. -1.
          2    1    6    6  503    0  0.35657712724E+03 -0.20218202044E+03  0.15510986664E+03  0.43827375895E+03  0.00000000000E+00 0. -1.
         -2    1    6    6    0  503  0.47184082280E+03 -0.32082241072E+03  0.11156331901E+03  0.58138382798E+03  0.00000000000E+00 0.  1.
<mgrwt>
<rscale>  0 0.13329659E+04</rscale>
<asrwt>0</asrwt>
<pdfrwt beam="1">  1        2 0.23933633E+00 0.13329659E+04</pdfrwt>
<pdfrwt beam="2">  1       -2 0.26360628E+00 0.13329659E+04</pdfrwt>
<totfact> 0.59930147E-01</totfact>
</mgrwt>
</event>
<event>
12    1  0.9321077E-008  0.1561413E+04  0.7818608E-02  0.8844610E-01
         -1   -1    0    0    0  501 -0.00000000000E+00  0.00000000000E+00  0.96196405224E+03  0.96196405224E+03  0.00000000000E+00 0.  1.
          1   -1    0    0  501    0  0.00000000000E+00 -0.00000000000E+00 -0.29957541891E+04  0.29957541891E+04  0.00000000000E+00 0. -1.
         23    2    1    2    0    0  0.10723948109E+04  0.10746782479E+04 -0.17187812951E+04  0.22951209432E+04  0.91689893537E+02 0.  0.
    5000000    2    1    2    0    0 -0.10723948109E+04 -0.10746782479E+04 -0.31500884178E+03  0.16625972981E+04  0.60002936460E+03 0.  0.
         23    2    4    4    0    0 -0.28662718734E+03 -0.62781920512E+03 -0.28891901311E+03  0.75381469879E+03  0.91925541252E+02 0.  0.
         23    2    4    4    0    0 -0.78576762356E+03 -0.44685904279E+03 -0.26089828662E+02  0.90878259934E+03  0.89952050260E+02 0.  0.
          3    1    3    3  502    0  0.67806517529E+03  0.62197485781E+03 -0.10685163449E+04  0.14100894599E+04  0.00000000000E+00 0. -1.
         -3    1    3    3    0  502  0.39432963562E+03  0.45270339010E+03 -0.65026495017E+03  0.88503148325E+03  0.00000000000E+00 0.  1.
         15    1    5    5    0    0 -0.17335217294E+03 -0.46237818571E+03 -0.17972848073E+03  0.52549980685E+03  0.17770000000E+01 0.  1.
        -15    1    5    5    0    0 -0.11327501441E+03 -0.16544101941E+03 -0.10919053238E+03  0.22831489194E+03  0.17770000000E+01 0. -1.
          3    1    6    6  503    0 -0.25819616590E+03 -0.19414361539E+03 -0.22014106443E+02  0.32379256379E+03  0.00000000000E+00 0. -1.
         -3    1    6    6    0  503 -0.52757145767E+03 -0.25271542740E+03 -0.40757222193E+01  0.58499003556E+03  0.00000000000E+00 0.  1.
<mgrwt>
<rscale>  0 0.15614132E+04</rscale>
<asrwt>0</asrwt>
<pdfrwt beam="1">  1        1 0.46088525E+00 0.15614132E+04</pdfrwt>
<pdfrwt beam="2">  1       -1 0.14799447E+00 0.15614132E+04</pdfrwt>
<totfact> 0.20585976E-01</totfact>
</mgrwt>
</event>
<event>
12    1  0.9321077E-008  0.4936778E+03  0.7818608E-02  0.1015442E+00
          2   -1    0    0  501    0  0.00000000000E+00  0.00000000000E+00  0.10979491678E+04  0.10979491678E+04  0.00000000000E+00 0. -1.
         -2   -1    0    0    0  501 -0.00000000000E+00 -0.00000000000E+00 -0.28208157579E+03  0.28208157579E+03  0.00000000000E+00 0.  1.
         23    2    1    2    0    0 -0.35585101434E+03  0.15427705519E+03  0.27557740925E+03  0.48432335749E+03  0.90525421604E+02 0.  0.
    5000000    2    1    2    0    0  0.35585101434E+03 -0.15427705519E+03  0.54029018272E+03  0.89570738605E+03  0.59995573647E+03 0.  0.
         23    2    4    4    0    0 -0.78936955312E+02  0.20139094045E+02  0.36797441307E+03  0.38728637472E+03  0.89156835693E+02 0.  0.
         23    2    4    4    0    0  0.43478796965E+03 -0.17441614924E+03  0.17231576965E+03  0.50842101133E+03  0.96631405969E+02 0.  0.
          2    1    3    3  502    0 -0.17238379787E+02  0.21042272721E+02 -0.10650029518E+01  0.27222659867E+02  0.00000000000E+00 0.  1.
         -2    1    3    3    0  502 -0.33861263455E+03  0.13323478247E+03  0.27664241220E+03  0.45710069762E+03  0.00000000000E+00 0. -1.
         15    1    5    5    0    0 -0.13174152810E+02 -0.32491706640E+02  0.82993313393E+02  0.90112802085E+02  0.17770000000E+01 0.  1.
        -15    1    5    5    0    0 -0.65762802502E+02  0.52630800685E+02  0.28498109968E+03  0.29717357264E+03  0.17770000000E+01 0. -1.
          2    1    6    6  503    0  0.43209350141E+03 -0.15767963904E+03  0.15835623011E+03  0.48646105511E+03  0.00000000000E+00 0. -1.
         -2    1    6    6    0  503  0.26944682434E+01 -0.16736510202E+02  0.13959539535E+02  0.21959956213E+02  0.00000000000E+00 0.  1.
<mgrwt>
<rscale>  0 0.49367779E+03</rscale>
<asrwt>0</asrwt>
<pdfrwt beam="1">  1        2 0.16891525E+00 0.49367779E+03</pdfrwt>
<pdfrwt beam="2">  1       -2 0.43397166E-01 0.49367779E+03</pdfrwt>
<totfact> 0.11415384E+02</totfact>
</mgrwt>
</event>
<event>
12    1  0.9321077E-008  0.8159100E+03  0.7818608E-02  0.9537269E-01
          2   -1    0    0  501    0  0.00000000000E+00  0.00000000000E+00  0.22243991725E+04  0.22243991725E+04  0.00000000000E+00 0. -1.
         -2   -1    0    0    0  501 -0.00000000000E+00 -0.00000000000E+00 -0.51532553974E+03  0.51532553974E+03  0.00000000000E+00 0.  1.
         23    2    1    2    0    0 -0.70268881791E+03  0.14426632072E+03 -0.75708945413E+02  0.72479222388E+03  0.70764237237E+02 0.  0.
    5000000    2    1    2    0    0  0.70268881791E+03 -0.14426632072E+03  0.17847825781E+04  0.20149324883E+04  0.59993310890E+03 0.  0.
         23    2    4    4    0    0  0.68928222862E+02 -0.24538784087E+03  0.37213277230E+03  0.46059020163E+03  0.93242915364E+02 0.  0.
         23    2    4    4    0    0  0.63376059505E+03  0.10112152015E+03  0.14126498058E+04  0.15543422867E+04  0.92316935540E+02 0.  0.
          3    1    3    3  502    0 -0.53074237111E+02  0.23192492535E+02  0.88871954769E+01  0.58598196204E+02  0.00000000000E+00 0. -1.
         -3    1    3    3    0  502 -0.64961458080E+03  0.12107382819E+03 -0.84596140890E+02  0.66619402767E+03  0.00000000000E+00 0.  1.
         15    1    5    5    0    0  0.88623863154E+02 -0.22558164353E+03  0.34484892501E+03  0.42150350630E+03  0.17770000000E+01 0.  1.
        -15    1    5    5    0    0 -0.19695640292E+02 -0.19806197335E+02  0.27283847292E+02  0.39086695326E+02  0.17770000000E+01 0. -1.
          3    1    6    6  503    0  0.46835609905E+03  0.59030549003E+02  0.11223911779E+04  0.12176222721E+04  0.00000000000E+00 0. -1.
         -3    1    6    6    0  503  0.16540449600E+03  0.42090971143E+02  0.29025862793E+03  0.33672001461E+03  0.00000000000E+00 0.  1.
<mgrwt>
<rscale>  0 0.81590996E+03</rscale>
<asrwt>0</asrwt>
<pdfrwt beam="1">  1        2 0.34221525E+00 0.81590996E+03</pdfrwt>
<pdfrwt beam="2">  1       -2 0.79280854E-01 0.81590996E+03</pdfrwt>
<totfact> 0.72746151E+00</totfact>
</mgrwt>
</event>
<event>
12    1  0.9321077E-008  0.3225841E+03  0.7818608E-02  0.1074466E+00
          2   -1    0    0  501    0  0.00000000000E+00  0.00000000000E+00  0.12329949563E+04  0.12329949563E+04  0.00000000000E+00 0. -1.
         -2   -1    0    0    0  501 -0.00000000000E+00 -0.00000000000E+00 -0.20043958204E+03  0.20043958204E+03  0.00000000000E+00 0.  1.
         23    2    1    2    0    0  0.75479120977E+02  0.24063334453E+03  0.79507337435E+02  0.27932752497E+03  0.90005251489E+02 0.  0.
    5000000    2    1    2    0    0 -0.75479120977E+02 -0.24063334453E+03  0.95304803679E+03  0.11541070133E+04  0.60005077586E+03 0.  0.
         23    2    4    4    0    0  0.31024235647E+02 -0.26854394407E+03  0.12181942963E+03  0.31059422627E+03  0.92468626375E+02 0.  0.
         23    2    4    4    0    0 -0.10650335662E+03  0.27910599542E+02  0.83122860716E+03  0.84351278707E+03  0.91928548587E+02 0.  0.
          1    1    3    3  502    0  0.81176625013E+02  0.17288451947E+03  0.88942309435E+02  0.21068800614E+03  0.00000000000E+00 0. -1.
         -1    1    3    3    0  502 -0.56975040359E+01  0.67748825057E+02 -0.94349719998E+01  0.68639518832E+02  0.00000000000E+00 0.  1.
         15    1    5    5    0    0  0.66711886593E+01 -0.70882409347E+02 -0.97702391243E+01  0.71884880291E+02  0.17770000000E+01 0.  1.
        -15    1    5    5    0    0  0.24353046988E+02 -0.19766153473E+03  0.13158966875E+03  0.23870934598E+03  0.17770000000E+01 0. -1.
          1    1    6    6  503    0 -0.10154318833E+03  0.15861877747E+02  0.81969127188E+03  0.82610919342E+03  0.00000000000E+00 0. -1.
         -1    1    6    6    0  503 -0.49601682950E+01  0.12048721795E+02  0.11537335285E+02  0.17403593649E+02  0.00000000000E+00 0.  1.
<mgrwt>
<rscale>  0 0.32258409E+03</rscale>
<asrwt>0</asrwt>
<pdfrwt beam="1">  1        2 0.18969153E+00 0.32258409E+03</pdfrwt>
<pdfrwt beam="2">  1       -2 0.30836860E-01 0.32258409E+03</pdfrwt>
<totfact> 0.18630017E+02</totfact>
</mgrwt>
</event>
<event>
12    1  0.9321077E-008  0.9724228E+03  0.7818608E-02  0.9339319E-01
         -2   -1    0    0    0  501 -0.00000000000E+00  0.00000000000E+00  0.81418974123E+03  0.81418974123E+03  0.00000000000E+00 0. -1.
          2   -1    0    0  501    0  0.00000000000E+00 -0.00000000000E+00 -0.15570967225E+04  0.15570967225E+04  0.00000000000E+00 0.  1.
         23    2    1    2    0    0 -0.87804665954E+03 -0.27158591370E+03 -0.86698622210E+03  0.12667002475E+04  0.90219525319E+02 0.  0.
    5000000    2    1    2    0    0  0.87804665954E+03  0.27158591370E+03  0.12407924088E+03  0.11045862162E+04  0.59999183847E+03 0.  0.
         23    2    4    4    0    0  0.53979995008E+03  0.38532329040E+03 -0.95001166781E+02  0.67583694099E+03  0.88726122891E+02 0.  0.
         23    2    4    4    0    0  0.33824670946E+03 -0.11373737670E+03  0.21908040766E+03  0.42874927524E+03  0.92101512927E+02 0.  0.
          4    1    3    3  502    0 -0.34565240202E+03 -0.82138888126E+02 -0.38609611009E+03  0.52468331992E+03  0.00000000000E+00 0. -1.
         -4    1    3    3    0  502 -0.53239425751E+03 -0.18944702557E+03 -0.48089011200E+03  0.74201692754E+03  0.00000000000E+00 0.  1.
         15    1    5    5    0    0  0.50672296113E+03  0.34927518849E+03 -0.66079017369E+02  0.61897569491E+03  0.17770000000E+01 0.  1.
        -15    1    5    5    0    0  0.33076988952E+02  0.36048101911E+02 -0.28922149412E+02  0.56861246074E+02  0.17770000000E+01 0. -1.
          4    1    6    6  503    0  0.19220167223E+03 -0.39388858947E+02  0.16445406228E+03  0.25600410859E+03  0.00000000000E+00 0. -1.
         -4    1    6    6    0  503  0.14604503722E+03 -0.74348517756E+02  0.54626345382E+02  0.17274516665E+03  0.00000000000E+00 0.  1.
<mgrwt>
<rscale>  0 0.97242284E+03</rscale>
<asrwt>0</asrwt>
<pdfrwt beam="1">  1        2 0.23955334E+00 0.97242284E+03</pdfrwt>
<pdfrwt beam="2">  1       -2 0.12525996E+00 0.97242284E+03</pdfrwt>
<totfact> 0.56066457E+00</totfact>
</mgrwt>
</event>
<event>
12    1  0.9321077E-008  0.3923642E+03  0.7818608E-02  0.1046456E+00
          1   -1    0    0  501    0  0.00000000000E+00  0.00000000000E+00  0.29951529260E+03  0.29951529260E+03  0.00000000000E+00 0. -1.
         -1   -1    0    0    0  501 -0.00000000000E+00 -0.00000000000E+00 -0.58472663916E+03  0.58472663916E+03  0.00000000000E+00 0.  1.
         23    2    1    2    0    0  0.77864426521E+02  0.15061622849E+03 -0.15517026751E+03  0.24730679391E+03  0.91294694227E+02 0.  0.
    5000000    2    1    2    0    0 -0.77864426521E+02 -0.15061622849E+03 -0.13004107906E+03  0.63693513785E+03  0.60002297488E+03 0.  0.
         23    2    4    4    0    0 -0.24281268886E+03  0.12156761303E+03 -0.32022909536E+02  0.28854261471E+03  0.92166628230E+02 0.  0.
         23    2    4    4    0    0  0.16494826234E+03 -0.27218384152E+03 -0.98018169521E+02  0.34839252314E+03  0.10236120255E+03 0.  0.
          1    1    3    3  502    0  0.72391306443E+02  0.41761358923E+02 -0.68059414913E+02  0.10778031502E+03  0.00000000000E+00 0. -1.
         -1    1    3    3    0  502  0.54731200785E+01  0.10885486957E+03 -0.87110852592E+02  0.13952647889E+03  0.00000000000E+00 0.  1.
         15    1    5    5    0    0 -0.11266440778E+03  0.56902160146E+02 -0.61231060599E+02  0.14029798687E+03  0.17770000000E+01 0. -1.
        -15    1    5    5    0    0 -0.13014828108E+03  0.64665452887E+02  0.29208151063E+02  0.14824462784E+03  0.17770000000E+01 0.  1.
          4    1    6    6  503    0  0.25708060318E+01 -0.23185265482E+02 -0.38820403490E+02  0.45290057477E+02  0.00000000000E+00 0. -1.
         -4    1    6    6    0  503  0.16237745631E+03 -0.24899857604E+03 -0.59197766031E+02  0.30310246566E+03  0.00000000000E+00 0.  1.
<mgrwt>
<rscale>  0 0.39236418E+03</rscale>
<asrwt>0</asrwt>
<pdfrwt beam="1">  1        1 0.46079276E-01 0.39236418E+03</pdfrwt>
<pdfrwt beam="2">  1       -1 0.89957944E-01 0.39236418E+03</pdfrwt>
<totfact> 0.11103522E+02</totfact>
</mgrwt>
</event>
<event>
12    1  0.9321077E-008  0.4478851E+03  0.7818608E-02  0.1028355E+00
         -1   -1    0    0    0  501 -0.00000000000E+00  0.00000000000E+00  0.42002924955E+03  0.42002924955E+03  0.00000000000E+00 0.  1.
          1   -1    0    0  501    0  0.00000000000E+00 -0.00000000000E+00 -0.86013433601E+03  0.86013433601E+03  0.00000000000E+00 0. -1.
         23    2    1    2    0    0 -0.37926356775E+03 -0.10182317236E+03  0.57356484022E+02  0.40734253300E+03  0.91811549800E+02 0.  0.
    5000000    2    1    2    0    0  0.37926356775E+03  0.10182317236E+03 -0.49746157048E+03  0.87282105257E+03  0.60011645824E+03 0.  0.
         23    2    4    4    0    0  0.19874343153E+03 -0.88041309679E+02  0.68816074252E+02  0.24202324163E+03  0.81174956900E+02 0.  0.
         23    2    4    4    0    0  0.18052013623E+03  0.18986448203E+03 -0.56627764473E+03  0.63079781094E+03  0.92733307076E+02 0.  0.
          1    1    3    3  502    0 -0.10021092787E+03 -0.70146353844E+02  0.12894833237E+02  0.12300007214E+03  0.00000000000E+00 0. -1.
         -1    1    3    3    0  502 -0.27905263988E+03 -0.31676818511E+02  0.44461650784E+02  0.28434246086E+03  0.00000000000E+00 0.  1.
         15    1    5    5    0    0  0.10958637990E+03 -0.36344399741E+02  0.76737574132E+02  0.13864307796E+03  0.17770000000E+01 0.  1.
        -15    1    5    5    0    0  0.89157051625E+02 -0.51696909938E+02 -0.79214998792E+01  0.10338016367E+03  0.17770000000E+01 0. -1.
          3    1    6    6  503    0  0.16413315898E+03  0.12271122187E+03 -0.37390577618E+03  0.42638394355E+03  0.00000000000E+00 0. -1.
         -3    1    6    6    0  503  0.16386977244E+02  0.67153260162E+02 -0.19237186855E+03  0.20441386739E+03  0.00000000000E+00 0.  1.
<mgrwt>
<rscale>  0 0.44788512E+03</rscale>
<asrwt>0</asrwt>
<pdfrwt beam="1">  1        1 0.13232836E+00 0.44788512E+03</pdfrwt>
<pdfrwt beam="2">  1       -1 0.64619885E-01 0.44788512E+03</pdfrwt>
<totfact> 0.50630955E+01</totfact>
</mgrwt>
</event>
<event>
12    1  0.9321077E-008  0.4815657E+03  0.7818608E-02  0.1018706E+00
          2   -1    0    0  501    0  0.00000000000E+00  0.00000000000E+00  0.80399988629E+03  0.80399988629E+03  0.00000000000E+00 0. -1.
         -2   -1    0    0    0  501 -0.00000000000E+00 -0.00000000000E+00 -0.61057632883E+03  0.61057632883E+03  0.00000000000E+00 0.  1.
         23    2    1    2    0    0 -0.16816320617E+03  0.30266610240E+03  0.53381158687E+03  0.64273567044E+03  0.90932383324E+02 0.  0.
    5000000    2    1    2    0    0  0.16816320617E+03 -0.30266610240E+03 -0.34038802941E+03  0.77184054467E+03  0.59999015191E+03 0.  0.
         23    2    4    4    0    0  0.22808789927E+03 -0.40781890183E+03 -0.10015272788E+03  0.48663328867E+03  0.91875144919E+02 0.  0.
         23    2    4    4    0    0 -0.59924693105E+02  0.10515279943E+03 -0.24023530153E+03  0.28520725600E+03  0.94773934730E+02 0.  0.
          4    1    3    3  502    0 -0.10245941339E+03  0.17161243798E+03  0.38529111144E+03  0.43404838534E+03  0.00000000000E+00 0.  1.
         -4    1    3    3    0  502 -0.65703792772E+02  0.13105366442E+03  0.14852047543E+03  0.20868728511E+03  0.00000000000E+00 0. -1.
         15    1    5    5    0    0  0.13904401919E+03 -0.17174385278E+03 -0.19959884158E+02  0.22188002376E+03  0.17770000000E+01 0.  1.
        -15    1    5    5    0    0  0.89043880078E+02 -0.23607504905E+03 -0.80192843724E+02  0.26475326491E+03  0.17770000000E+01 0. -1.
          4    1    6    6  503    0 -0.20534966865E+02  0.10177621971E+03 -0.21371768256E+03  0.23760330722E+03  0.00000000000E+00 0.  1.
         -4    1    6    6    0  503 -0.39389726240E+02  0.33765797203E+01 -0.26517618964E+02  0.47603948779E+02  0.00000000000E+00 0. -1.
<mgrwt>
<rscale>  0 0.48156570E+03</rscale>
<asrwt>0</asrwt>
<pdfrwt beam="1">  1        2 0.12369229E+00 0.48156570E+03</pdfrwt>
<pdfrwt beam="2">  1       -2 0.93934820E-01 0.48156570E+03</pdfrwt>
<totfact> 0.34179259E+01</totfact>
</mgrwt>
</event>
<event>
12    1  0.9321077E-008  0.4877908E+03  0.7818608E-02  0.1017016E+00
         -2   -1    0    0    0  501 -0.00000000000E+00  0.00000000000E+00  0.59234717113E+02  0.59234717113E+02  0.00000000000E+00 0.  1.
          2   -1    0    0  501    0  0.00000000000E+00 -0.00000000000E+00 -0.44575715821E+04  0.44575715821E+04  0.00000000000E+00 0. -1.
         23    2    1    2    0    0  0.30410913543E+03  0.12585432670E+03 -0.16064894589E+04  0.16422746745E+04  0.89084494292E+02 0.  0.
    5000000    2    1    2    0    0 -0.30410913543E+03 -0.12585432670E+03 -0.27918474060E+04  0.28745316247E+04  0.60016534791E+03 0.  0.
         23    2    4    4    0    0 -0.45538104886E+03 -0.14038533778E+03 -0.23421219727E+04  0.23919462736E+04  0.93764056423E+02 0.  0.
         23    2    4    4    0    0  0.15127191343E+03  0.14531011076E+02 -0.44972543335E+03  0.48258535104E+03  0.86840736737E+02 0.  0.
          1    1    3    3  502    0  0.14747074070E+03  0.18573065988E+02 -0.80488630425E+03  0.81849529071E+03  0.00000000000E+00 0. -1.
         -1    1    3    3    0  502  0.15663839473E+03  0.10728126072E+03 -0.80160315469E+03  0.82377938383E+03  0.00000000000E+00 0.  1.
         15    1    5    5    0    0 -0.15704598868E+03 -0.16717293007E+02 -0.61987262729E+03  0.63967815520E+03  0.17770000000E+01 0.  1.
        -15    1    5    5    0    0 -0.29833506018E+03 -0.12366804477E+03 -0.17222493454E+04  0.17522681184E+04  0.17770000000E+01 0. -1.
          3    1    6    6  503    0  0.56764552058E+02  0.23124880288E+02 -0.29321109680E+03  0.29954919754E+03  0.00000000000E+00 0. -1.
         -3    1    6    6    0  503  0.94507361376E+02 -0.85938692118E+01 -0.15651433655E+03  0.18303615350E+03  0.00000000000E+00 0.  1.
<mgrwt>
<rscale>  0 0.48779076E+03</rscale>
<asrwt>0</asrwt>
<pdfrwt beam="1">  1        2 0.68578032E+00 0.48779076E+03</pdfrwt>
<pdfrwt beam="2">  1       -2 0.91130324E-02 0.48779076E+03</pdfrwt>
<totfact> 0.13037817E+01</totfact>
</mgrwt>
</event>
<event>
12    1  0.9321077E-008  0.8422941E+03  0.7818608E-02  0.9500738E-01
         -2   -1    0    0    0  501 -0.00000000000E+00  0.00000000000E+00  0.69140985070E+03  0.69140985070E+03  0.00000000000E+00 0.  1.
          2   -1    0    0  501    0  0.00000000000E+00 -0.00000000000E+00 -0.10608732632E+04  0.10608732632E+04  0.00000000000E+00 0. -1.
         23    2    1    2    0    0  0.60580491385E+03 -0.43911524164E+03 -0.15320891340E+03  0.76911263183E+03  0.90771582611E+02 0.  0.
    5000000    2    1    2    0    0 -0.60580491385E+03  0.43911524164E+03 -0.21625449909E+03  0.98317048206E+03  0.60003033201E+03 0.  0.
         23    2    4    4    0    0 -0.70030955617E+03  0.42228354074E+03 -0.15608292707E+03  0.83839999931E+03  0.98973812117E+02 0.  0.
         23    2    4    4    0    0  0.94504642317E+02  0.16831700897E+02 -0.60171572023E+02  0.14477048275E+03  0.90130133809E+02 0.  0.
          3    1    3    3  502    0  0.22818289192E+03 -0.20276863336E+03 -0.95826858594E+02  0.31994583552E+03  0.00000000000E+00 0. -1.
         -3    1    3    3    0  502  0.37762202193E+03 -0.23634660827E+03 -0.57382054811E+02  0.44916679630E+03  0.00000000000E+00 0.  1.
         15    1    5    5    0    0 -0.16656181906E+03  0.13155714650E+03 -0.75516859518E+02  0.22529109206E+03  0.17770000000E+01 0. -1.
        -15    1    5    5    0    0 -0.53374773711E+03  0.29072639424E+03 -0.80566067548E+02  0.61310890725E+03  0.17770000000E+01 0.  1.
          2    1    6    6  503    0  0.92548737569E+02  0.32435291225E+02 -0.74764624720E+02  0.12331693335E+03  0.00000000000E+00 0. -1.
         -2    1    6    6    0  503  0.19559047480E+01 -0.15603590329E+02  0.14593052696E+02  0.21453549392E+02  0.00000000000E+00 0.  1.
<mgrwt>
<rscale>  0 0.84229409E+03</rscale>
<asrwt>0</asrwt>
<pdfrwt beam="1">  1        2 0.16321127E+00 0.84229409E+03</pdfrwt>
<pdfrwt beam="2">  1       -2 0.10637075E+00 0.84229409E+03</pdfrwt>
<totfact> 0.16544451E+01</totfact>
</mgrwt>
</event>
<event>
12    1  0.9321077E-008  0.6315248E+03  0.7818608E-02  0.9842078E-01
          4   -1    0    0  501    0  0.00000000000E+00  0.00000000000E+00  0.21582188453E+04  0.21582188453E+04  0.00000000000E+00 0. -1.
         -4   -1    0    0    0  501 -0.00000000000E+00 -0.00000000000E+00 -0.21688529901E+03  0.21688529901E+03  0.00000000000E+00 0.  1.
         23    2    1    2    0    0 -0.91371570228E+01  0.53256386656E+03  0.57094225158E+03  0.78716188582E+03  0.99704665159E+02 0.  0.
    5000000    2    1    2    0    0  0.91371570228E+01 -0.53256386656E+03  0.13703912947E+04  0.15879422584E+04  0.59990045513E+03 0.  0.
         23    2    4    4    0    0  0.21280012243E+03 -0.39892303357E+03  0.11740501043E+04  0.12614343387E+04  0.91648592450E+02 0.  0.
         23    2    4    4    0    0 -0.20366296540E+03 -0.13364083299E+03  0.19634119033E+03  0.32650791977E+03  0.93376029737E+02 0.  0.
          2    1    3    3  502    0 -0.54432736106E+02  0.30381078251E+03  0.31988578305E+03  0.44451189920E+03  0.00000000000E+00 0.  1.
         -2    1    3    3    0  502  0.45295579084E+02  0.22875308405E+03  0.25105646852E+03  0.34264998662E+03  0.00000000000E+00 0. -1.
         15    1    5    5    0    0  0.11980095268E+03 -0.30701509163E+03  0.87686524262E+03  0.93675308711E+03  0.17770000000E+01 0.  1.
        -15    1    5    5    0    0  0.92999169748E+02 -0.91907941936E+02  0.29718486171E+03  0.32468125158E+03  0.17770000000E+01 0. -1.
          1    1    6    6  503    0 -0.57869296144E+02 -0.92983359542E+02  0.81932682615E+02  0.13677618604E+03  0.00000000000E+00 0. -1.
         -1    1    6    6    0  503 -0.14579366926E+03 -0.40657473448E+02  0.11440850772E+03  0.18973173372E+03  0.00000000000E+00 0.  1.
<mgrwt>
<rscale>  0 0.63152477E+03</rscale>
<asrwt>0</asrwt>
<pdfrwt beam="1">  1        4 0.33203365E+00 0.63152477E+03</pdfrwt>
<pdfrwt beam="2">  1       -4 0.33366971E-01 0.63152477E+03</pdfrwt>
<totfact> 0.34968298E-01</totfact>
</mgrwt>
</event>
<event>
12    1  0.9526687E-008  0.1368601E+04  0.7818608E-02  0.8976866E-01
         -2   -1    0    0    0  501 -0.00000000000E+00  0.00000000000E+00  0.89795929549E+03  0.89795929549E+03  0.00000000000E+00 0.  1.
          2   -1    0    0  501    0  0.00000000000E+00 -0.00000000000E+00 -0.25879397136E+04  0.25879397136E+04  0.00000000000E+00 0. -1.
         23    2    1    2    0    0 -0.13589067712E+04  0.26554455133E+02 -0.14346351044E+04  0.19783812203E+04  0.92095701724E+02 0.  0.
    5000000    2    1    2    0    0  0.13589067712E+04 -0.26554455133E+02 -0.25534531372E+03  0.15075177888E+04  0.60006324874E+03 0.  0.
         23    2    4    4    0    0  0.95323775927E+03  0.53279736020E+02 -0.42803980303E+03  0.10503258132E+04  0.92006982467E+02 0.  0.
         23    2    4    4    0    0  0.40566901190E+03 -0.79834191152E+02  0.17269448931E+03  0.45719197565E+03  0.90886031188E+02 0.  0.
          3    1    3    3  502    0 -0.79943433004E+03  0.45322995882E+02 -0.89373534499E+03  0.11999634531E+04  0.00000000000E+00 0. -1.
         -3    1    3    3    0  502 -0.55947244113E+03 -0.18768540750E+02 -0.54089975943E+03  0.77841776718E+03  0.00000000000E+00 0.  1.
         15    1    5    5    0    0  0.36377391776E+03  0.61602447101E+02 -0.18388239663E+03  0.41224048594E+03  0.17770000000E+01 0. -1.
        -15    1    5    5    0    0  0.58946384152E+03 -0.83227110811E+01 -0.24415740641E+03  0.63808532722E+03  0.17770000000E+01 0.  1.
          1    1    6    6  503    0  0.61752655112E+02 -0.36093905575E+02  0.57802416525E+02  0.91963469863E+02  0.00000000000E+00 0. -1.
         -1    1    6    6    0  503  0.34391635679E+03 -0.43740285577E+02  0.11489207279E+03  0.36522850578E+03  0.00000000000E+00 0.  1.
<mgrwt>
<rscale>  0 0.13686009E+04</rscale>
<asrwt>0</asrwt>
<pdfrwt beam="1">  1        2 0.39814456E+00 0.13686009E+04</pdfrwt>
<pdfrwt beam="2">  1       -2 0.13814759E+00 0.13686009E+04</pdfrwt>
<totfact> 0.11044429E+00</totfact>
</mgrwt>
</event>
<event>
12    1  0.9321077E-008  0.7896614E+03  0.7818608E-02  0.9575103E-01
         -1   -1    0    0    0  501 -0.00000000000E+00  0.00000000000E+00  0.12338026019E+04  0.12338026019E+04  0.00000000000E+00 0.  1.
          1   -1    0    0  501    0  0.00000000000E+00 -0.00000000000E+00 -0.98023060960E+03  0.98023060960E+03  0.00000000000E+00 0. -1.
         23    2    1    2    0    0 -0.20010874731E+03  0.73121942301E+03 -0.56299633299E+03  0.94874540852E+03  0.91802090801E+02 0.  0.
    5000000    2    1    2    0    0  0.20010874731E+03 -0.73121942301E+03  0.81656832532E+03  0.12652878030E+04  0.59953652030E+03 0.  0.
         23    2    4    4    0    0  0.21023740821E+03 -0.25806402711E+03  0.35191660871E+02  0.34746506791E+03  0.93256155436E+02 0.  0.
         23    2    4    4    0    0 -0.10128660899E+02 -0.47315539591E+03  0.78137666445E+03  0.91782273509E+03  0.88715629157E+02 0.  0.
          1    1    3    3  502    0 -0.71767070959E+02  0.33581946994E+03 -0.20361537869E+03  0.39922982266E+03  0.00000000000E+00 0. -1.
         -1    1    3    3    0  502 -0.12834167635E+03  0.39539995307E+03 -0.35938095431E+03  0.54951558586E+03  0.00000000000E+00 0.  1.
         15    1    5    5    0    0  0.10560945613E+03 -0.73082545069E+02  0.41088537267E+02  0.13485488957E+03  0.17770000000E+01 0.  1.
        -15    1    5    5    0    0  0.10462795208E+03 -0.18498148204E+03 -0.58968763954E+01  0.21261017834E+03  0.17770000000E+01 0. -1.
          1    1    6    6  503    0 -0.43008143815E+02 -0.24880583318E+03  0.36708320547E+03  0.44553801499E+03  0.00000000000E+00 0. -1.
         -1    1    6    6    0  503  0.32879482916E+02 -0.22434956273E+03  0.41429345898E+03  0.47228472011E+03  0.00000000000E+00 0.  1.
<mgrwt>
<rscale>  0 0.78966144E+03</rscale>
<asrwt>0</asrwt>
<pdfrwt beam="1">  1        1 0.15080471E+00 0.78966144E+03</pdfrwt>
<pdfrwt beam="2">  1       -1 0.18981578E+00 0.78966144E+03</pdfrwt>
<totfact> 0.28737544E+00</totfact>
</mgrwt>
</event>
<event>
12    1  0.9321077E-008  0.8343801E+03  0.7818608E-02  0.9511545E-01
         -2   -1    0    0    0  501 -0.00000000000E+00  0.00000000000E+00  0.21269532695E+03  0.21269532695E+03  0.00000000000E+00 0.  1.
          2   -1    0    0  501    0  0.00000000000E+00 -0.00000000000E+00 -0.36922585050E+04  0.36922585050E+04  0.00000000000E+00 0. -1.
         23    2    1    2    0    0 -0.15498552620E+03  0.76277086564E+03 -0.17049951240E+04  0.18764609381E+04  0.90870085916E+02 0.  0.
    5000000    2    1    2    0    0  0.15498552620E+03 -0.76277086564E+03 -0.17745680541E+04  0.20284928939E+04  0.59987643326E+03 0.  0.
         23    2    4    4    0    0  0.28754873034E+03 -0.48878561231E+03 -0.68608392465E+03  0.89454567413E+03  0.88910990974E+02 0.  0.
         23    2    4    4    0    0 -0.13256320414E+03 -0.27398525333E+03 -0.10884841294E+04  0.11339472197E+04  0.91638829378E+02 0.  0.
          3    1    3    3  502    0 -0.20863698302E+02  0.21397649728E+03 -0.55514573687E+03  0.59532178228E+03  0.00000000000E+00 0. -1.
         -3    1    3    3    0  502 -0.13412182790E+03  0.54879436835E+03 -0.11498493871E+04  0.12811391558E+04  0.00000000000E+00 0.  1.
         15    1    5    5    0    0  0.27732224321E+03 -0.42428234920E+03 -0.58340726203E+03  0.77284560524E+03  0.17770000000E+01 0. -1.
        -15    1    5    5    0    0  0.10226487123E+02 -0.64503263107E+02 -0.10267666262E+03  0.12170006888E+03  0.17770000000E+01 0.  1.
          3    1    6    6  503    0 -0.15828888733E+02 -0.13133359295E+03 -0.40583832161E+03  0.42685338190E+03  0.00000000000E+00 0.  1.
         -3    1    6    6    0  503 -0.11673431541E+03 -0.14265166038E+03 -0.68264580779E+03  0.70709383783E+03  0.00000000000E+00 0. -1.
<mgrwt>
<rscale>  0 0.83438007E+03</rscale>
<asrwt>0</asrwt>
<pdfrwt beam="1">  1        2 0.56803980E+00 0.83438007E+03</pdfrwt>
<pdfrwt beam="2">  1       -2 0.32722356E-01 0.83438007E+03</pdfrwt>
<totfact> 0.55233676E+00</totfact>
</mgrwt>
</event>
<event>
12    1  0.9321077E-008  0.1324195E+04  0.7818608E-02  0.9010595E-01
          2   -1    0    0  501    0  0.00000000000E+00  0.00000000000E+00  0.32114636414E+04  0.32114636414E+04  0.00000000000E+00 0. -1.
         -2   -1    0    0    0  501 -0.00000000000E+00 -0.00000000000E+00 -0.68538842684E+03  0.68538842684E+03  0.00000000000E+00 0.  1.
         23    2    1    2    0    0  0.90339730345E+03  0.87436075495E+03  0.20836025341E+04  0.24352415146E+04  0.91478395571E+02 0.  0.
    5000000    2    1    2    0    0 -0.90339730345E+03 -0.87436075495E+03  0.44247268049E+03  0.14616105536E+04  0.59990825947E+03 0.  0.
         23    2    4    4    0    0 -0.71363435748E+03 -0.29905478006E+03  0.21738571798E+03  0.80878691876E+03  0.90398959741E+02 0.  0.
         23    2    4    4    0    0 -0.18976294597E+03 -0.57530597490E+03  0.22508696251E+03  0.65282363486E+03  0.92345097975E+02 0.  0.
          4    1    3    3  502    0  0.44333927389E+03  0.45333462971E+03  0.96872128492E+03  0.11577922638E+04  0.00000000000E+00 0.  1.
         -4    1    3    3    0  502  0.46005802956E+03  0.42102612524E+03  0.11148812491E+04  0.12774492508E+04  0.00000000000E+00 0. -1.
         15    1    5    5    0    0 -0.17897277333E+03 -0.11727704815E+03  0.70161508387E+02  0.22519092922E+03  0.17770000000E+01 0.  1.
        -15    1    5    5    0    0 -0.53466158415E+03 -0.18177773191E+03  0.14722420959E+03  0.58359598954E+03  0.17770000000E+01 0. -1.
          1    1    6    6  503    0 -0.70990139037E+02 -0.35156823794E+03  0.11524492455E+03  0.37672432680E+03  0.00000000000E+00 0. -1.
         -1    1    6    6    0  503 -0.11877280693E+03 -0.22373773695E+03  0.10984203796E+03  0.27609930805E+03  0.00000000000E+00 0.  1.
<mgrwt>
<rscale>  0 0.13241955E+04</rscale>
<asrwt>0</asrwt>
<pdfrwt beam="1">  1        2 0.49407132E+00 0.13241955E+04</pdfrwt>
<pdfrwt beam="2">  1       -2 0.10544438E+00 0.13241955E+04</pdfrwt>
<totfact> 0.90654486E-01</totfact>
</mgrwt>
</event>
<event>
12    1  0.9321077E-008  0.1444640E+04  0.7818608E-02  0.8922125E-01
          2   -1    0    0  501    0  0.00000000000E+00  0.00000000000E+00  0.15285283852E+04  0.15285283852E+04  0.00000000000E+00 0.  1.
         -2   -1    0    0    0  501 -0.00000000000E+00 -0.00000000000E+00 -0.15344678922E+04  0.15344678922E+04  0.00000000000E+00 0. -1.
         23    2    1    2    0    0 -0.12759187079E+04  0.58917966810E+03 -0.43828575729E+03  0.14749196905E+04  0.90512197260E+02 0.  0.
    5000000    2    1    2    0    0  0.12759187079E+04 -0.58917966810E+03  0.43234625029E+03  0.15880765869E+04  0.59996894511E+03 0.  0.
         23    2    4    4    0    0  0.12673285368E+04 -0.56323638875E+03  0.29558185451E+03  0.14208797318E+04  0.90408682936E+02 0.  0.
         23    2    4    4    0    0  0.85901711862E+01 -0.25943279352E+02  0.13676439578E+03  0.16719685505E+03  0.92214118221E+02 0.  0.
          1    1    3    3  502    0 -0.97902415756E+02  0.20063557237E+02 -0.34904975250E+02  0.10585738820E+03  0.00000000000E+00 0. -1.
         -1    1    3    3    0  502 -0.11780162922E+04  0.56911611087E+03 -0.40338078204E+03  0.13690623023E+04  0.00000000000E+00 0.  1.
         15    1    5    5    0    0  0.78142621652E+03 -0.30023154138E+03  0.16756730199E+03  0.85372587447E+03  0.17770000000E+01 0.  1.
        -15    1    5    5    0    0  0.48590232024E+03 -0.26300484737E+03  0.12801455251E+03  0.56715385737E+03  0.17770000000E+01 0. -1.
          2    1    6    6  503    0 -0.19971978141E+02  0.25613443082E+02  0.75469246409E+02  0.82161642699E+02  0.00000000000E+00 0.  1.
         -2    1    6    6    0  503  0.28562149327E+02 -0.51556722435E+02  0.61295149375E+02  0.85035212349E+02  0.00000000000E+00 0. -1.
<mgrwt>
<rscale>  0 0.14446405E+04</rscale>
<asrwt>0</asrwt>
<pdfrwt beam="1">  1        2 0.23515821E+00 0.14446405E+04</pdfrwt>
<pdfrwt beam="2">  1       -2 0.23607198E+00 0.14446405E+04</pdfrwt>
<totfact> 0.90617887E-01</totfact>
</mgrwt>
</event>
<event>
12    1  0.9680164E-008  0.1107136E+04  0.7818608E-02  0.9198265E-01
          1   -1    0    0  501    0  0.00000000000E+00  0.00000000000E+00  0.10504992065E+04  0.10504992065E+04  0.00000000000E+00 0. -1.
         -1   -1    0    0    0  501 -0.00000000000E+00 -0.00000000000E+00 -0.12039034131E+04  0.12039034131E+04  0.00000000000E+00 0.  1.
         23    2    1    2    0    0  0.10292683145E+04 -0.21515605430E+01 -0.24535468976E+03  0.10595950220E+04  0.56078466055E+02 0.  0.
    5000000    2    1    2    0    0 -0.10292683145E+04  0.21515605430E+01  0.91950483076E+02  0.11948075976E+04  0.59976029501E+03 0.  0.
         23    2    4    4    0    0 -0.10705916435E+04  0.59413069289E+02  0.94017654024E+02  0.10805796119E+04  0.95480879774E+02 0.  0.
         23    2    4    4    0    0  0.41323328973E+02 -0.57261508746E+02 -0.20671709483E+01  0.11422798574E+03  0.89762250575E+02 0.  0.
          2    1    3    3  502    0  0.57722379611E+03  0.26571220245E+02 -0.13575277997E+03  0.59356731532E+03  0.00000000000E+00 0. -1.
         -2    1    3    3    0  502  0.45204451841E+03 -0.28722780788E+02 -0.10960190979E+03  0.46602770668E+03  0.00000000000E+00 0.  1.
         15    1    5    5    0    0 -0.63238067926E+03  0.70645754203E+02  0.86391226552E+02  0.64215476938E+03  0.17770000000E+01 0. -1.
        -15    1    5    5    0    0 -0.43821096424E+03 -0.11232684914E+02  0.76264274726E+01  0.43842484249E+03  0.17770000000E+01 0.  1.
          3    1    6    6  503    0  0.42889072769E+02  0.79114366913E+01  0.16201738425E+02  0.46524829086E+02  0.00000000000E+00 0. -1.
         -3    1    6    6    0  503 -0.15657437963E+01 -0.65172945437E+02 -0.18268909373E+02  0.67703156649E+02  0.00000000000E+00 0.  1.
<mgrwt>
<rscale>  0 0.11071355E+04</rscale>
<asrwt>0</asrwt>
<pdfrwt beam="1">  1        1 0.16161526E+00 0.11071355E+04</pdfrwt>
<pdfrwt beam="2">  1       -1 0.18521591E+00 0.11071355E+04</pdfrwt>
<totfact> 0.26168410E+00</totfact>
</mgrwt>
</event>
<event>
12    1  0.9321077E-008  0.1829667E+04  0.7818608E-02  0.8690680E-01
          2   -1    0    0  501    0  0.00000000000E+00  0.00000000000E+00  0.41418881788E+04  0.41418881788E+04  0.00000000000E+00 0. -1.
         -2   -1    0    0    0  501 -0.00000000000E+00 -0.00000000000E+00 -0.85589885646E+03  0.85589885646E+03  0.00000000000E+00 0.  1.
         23    2    1    2    0    0  0.17427952126E+04  0.51217419496E+03  0.12681198413E+04  0.22172277142E+04  0.91177001435E+02 0.  0.
    5000000    2    1    2    0    0 -0.17427952126E+04 -0.51217419496E+03  0.20178694810E+04  0.27805593210E+04  0.60004611184E+03 0.  0.
         23    2    4    4    0    0 -0.76226944106E+03 -0.94951581485E+02  0.49158084768E+03  0.91676793741E+03  0.93494479299E+02 0.  0.
         23    2    4    4    0    0 -0.98052577156E+03 -0.41722261348E+03  0.15262886333E+04  0.18637913836E+04  0.93036721687E+02 0.  0.
          1    1    3    3  502    0  0.29208330098E+03  0.99931895201E+02  0.17797583960E+03  0.35633472729E+03  0.00000000000E+00 0. -1.
         -1    1    3    3    0  502  0.14507119116E+04  0.41224229976E+03  0.10901440017E+04  0.18608929869E+04  0.00000000000E+00 0.  1.
         15    1    5    5    0    0 -0.39425667429E+03 -0.36320297765E+01  0.26483182753E+03  0.47496375806E+03  0.17770000000E+01 0.  1.
        -15    1    5    5    0    0 -0.36801276677E+03 -0.91319551709E+02  0.22674902015E+03  0.44180417935E+03  0.17770000000E+01 0. -1.
          3    1    6    6  503    0 -0.39441326746E+03 -0.12259130466E+03  0.55877356229E+03  0.69485131319E+03  0.00000000000E+00 0. -1.
         -3    1    6    6    0  503 -0.58611250409E+03 -0.29463130882E+03  0.96751507104E+03  0.11689400704E+04  0.00000000000E+00 0.  1.
<mgrwt>
<rscale>  0 0.18296668E+04</rscale>
<asrwt>0</asrwt>
<pdfrwt beam="1">  1        2 0.63721356E+00 0.18296668E+04</pdfrwt>
<pdfrwt beam="2">  1       -2 0.13167675E+00 0.18296668E+04</pdfrwt>
<totfact> 0.10168109E-01</totfact>
</mgrwt>
</event>
<event>
12    1  0.9321077E-008  0.8266962E+03  0.7818608E-02  0.9522160E-01
          1   -1    0    0  501    0  0.00000000000E+00  0.00000000000E+00  0.13807302637E+04  0.13807302637E+04  0.00000000000E+00 0. -1.
         -1   -1    0    0    0  501 -0.00000000000E+00 -0.00000000000E+00 -0.57644817613E+03  0.57644817613E+03  0.00000000000E+00 0.  1.
         23    2    1    2    0    0  0.38918324921E+03 -0.68160862031E+03  0.43627694850E+03  0.90288044619E+03  0.93816904572E+02 0.  0.
    5000000    2    1    2    0    0 -0.38918324921E+03  0.68160862031E+03  0.36800513910E+03  0.10542979937E+04  0.60005213466E+03 0.  0.
         23    2    4    4    0    0 -0.40617912773E+03  0.66127284333E+03  0.46784250204E+03  0.91047108955E+03  0.88417990619E+02 0.  0.
         23    2    4    4    0    0  0.16995878517E+02  0.20335776976E+02 -0.99837362934E+02  0.14382690412E+03  0.10008134491E+03 0.  0.
          4    1    3    3  502    0  0.27055902926E+03 -0.42410301758E+03  0.23535999349E+03  0.55539164953E+03  0.00000000000E+00 0. -1.
         -4    1    3    3    0  502  0.11862421995E+03 -0.25750560273E+03  0.20091695501E+03  0.34748879666E+03  0.00000000000E+00 0.  1.
         15    1    5    5    0    0 -0.12520910066E+03  0.15043973765E+03  0.14882030123E+03  0.24588630165E+03  0.17770000000E+01 0.  1.
        -15    1    5    5    0    0 -0.28097002707E+03  0.51083310568E+03  0.31902220081E+03  0.66458478790E+03  0.17770000000E+01 0. -1.
          3    1    6    6  503    0 -0.21292573240E+02  0.39790924061E+02 -0.88602696478E+02  0.99434044149E+02  0.00000000000E+00 0. -1.
         -3    1    6    6    0  503  0.38288451758E+02 -0.19455147085E+02 -0.11234666457E+02  0.44392859972E+02  0.00000000000E+00 0.  1.
<mgrwt>
<rscale>  0 0.82669619E+03</rscale>
<asrwt>0</asrwt>
<pdfrwt beam="1">  1        1 0.21242004E+00 0.82669619E+03</pdfrwt>
<pdfrwt beam="2">  1       -1 0.88684336E-01 0.82669619E+03</pdfrwt>
<totfact> 0.10145764E+01</totfact>
</mgrwt>
</event>
<event>
12    1  0.9321077E-008  0.5084519E+03  0.7818608E-02  0.1011596E+00
          2   -1    0    0  501    0  0.00000000000E+00  0.00000000000E+00  0.11623449969E+04  0.11623449969E+04  0.00000000000E+00 0. -1.
         -2   -1    0    0    0  501 -0.00000000000E+00 -0.00000000000E+00 -0.33034697894E+03  0.33034697894E+03  0.00000000000E+00 0.  1.
         23    2    1    2    0    0 -0.59682291324E+02 -0.46085130232E+03  0.39501443289E+03  0.61694170721E+03  0.92923458591E+02 0.  0.
    5000000    2    1    2    0    0  0.59682291324E+02  0.46085130232E+03  0.43698358504E+03  0.87575026859E+03  0.60003164966E+03 0.  0.
         23    2    4    4    0    0 -0.99076529201E+02  0.21091879398E+03 -0.88533500753E+02  0.26529707716E+03  0.90782498887E+02 0.  0.
         23    2    4    4    0    0  0.15875882052E+03  0.24993250834E+03  0.52551708579E+03  0.61045319143E+03  0.93884341847E+02 0.  0.
          1    1    3    3  502    0 -0.77392249116E+02 -0.38516377452E+03  0.30076491145E+03  0.49477290284E+03  0.00000000000E+00 0. -1.
         -1    1    3    3    0  502  0.17709957792E+02 -0.75687527802E+02  0.94249521442E+02  0.12216880437E+03  0.00000000000E+00 0.  1.
         15    1    5    5    0    0 -0.74842873837E+02  0.19141224170E+03 -0.10418248834E+03  0.23042840676E+03  0.17770000000E+01 0. -1.
        -15    1    5    5    0    0 -0.24233655364E+02  0.19506552276E+02  0.15648987587E+02  0.34868670400E+02  0.17770000000E+01 0.  1.
          3    1    6    6  503    0  0.16005897352E+03  0.25681723304E+03  0.50448592300E+03  0.58828565570E+03  0.00000000000E+00 0. -1.
         -3    1    6    6    0  503 -0.13001529912E+01 -0.68847247034E+01  0.21031162790E+02  0.22167535730E+02  0.00000000000E+00 0.  1.
<mgrwt>
<rscale>  0 0.50845192E+03</rscale>
<asrwt>0</asrwt>
<pdfrwt beam="1">  1        2 0.17882231E+00 0.50845192E+03</pdfrwt>
<pdfrwt beam="2">  1       -2 0.50822613E-01 0.50845192E+03</pdfrwt>
<totfact> 0.76072058E+01</totfact>
</mgrwt>
</event>
<event>
12    1  0.9321077E-008  0.4073489E+03  0.7818608E-02  0.1041264E+00
         -1   -1    0    0    0  501 -0.00000000000E+00  0.00000000000E+00  0.27751473877E+03  0.27751473877E+03  0.00000000000E+00 0.  1.
          1   -1    0    0  501    0  0.00000000000E+00 -0.00000000000E+00 -0.10540459223E+04  0.10540459223E+04  0.00000000000E+00 0. -1.
         23    2    1    2    0    0 -0.13828487601E+03 -0.20802702286E+03  0.59027884493E+02  0.27304742412E+03  0.93127093257E+02 0.  0.
    5000000    2    1    2    0    0  0.13828487601E+03  0.20802702286E+03 -0.83555906798E+03  0.10585132369E+04  0.59991113295E+03 0.  0.
         23    2    4    4    0    0 -0.30881035928E+02 -0.13716454496E+03 -0.53928055994E+03  0.56474991496E+03  0.91384863841E+02 0.  0.
         23    2    4    4    0    0  0.16916591193E+03  0.34519156782E+03 -0.29627850803E+03  0.49376332194E+03  0.90812661652E+02 0.  0.
          2    1    3    3  502    0 -0.76470066725E+02 -0.41901633311E+02  0.33756083087E+01  0.87262894236E+02  0.00000000000E+00 0. -1.
         -2    1    3    3    0  502 -0.61814809281E+02 -0.16612538955E+03  0.55652276184E+02  0.18578452988E+03  0.00000000000E+00 0.  1.
         15    1    5    5    0    0 -0.30085048967E+02 -0.14992446899E+03 -0.51534727225E+03  0.53755783440E+03  0.17770000000E+01 0. -1.
        -15    1    5    5    0    0 -0.79598696131E+00  0.12759924034E+02 -0.23933287689E+02  0.27192080561E+02  0.17770000000E+01 0.  1.
          1    1    6    6  503    0  0.79466494417E+02  0.16335821833E+03 -0.83765092080E+02  0.20004354997E+03  0.00000000000E+00 0. -1.
         -1    1    6    6    0  503  0.89699417517E+02  0.18183334949E+03 -0.21251341595E+03  0.29371977198E+03  0.00000000000E+00 0.  1.
<mgrwt>
<rscale>  0 0.40734887E+03</rscale>
<asrwt>0</asrwt>
<pdfrwt beam="1">  1        1 0.16216091E+00 0.40734887E+03</pdfrwt>
<pdfrwt beam="2">  1       -1 0.42694576E-01 0.40734887E+03</pdfrwt>
<totfact> 0.78964968E+01</totfact>
</mgrwt>
</event>
<event>
12    1  0.9321077E-008  0.1336925E+04  0.7818608E-02  0.9000785E-01
         -1   -1    0    0    0  501 -0.00000000000E+00  0.00000000000E+00  0.13590832905E+04  0.13590832905E+04  0.00000000000E+00 0.  1.
          1   -1    0    0  501    0  0.00000000000E+00 -0.00000000000E+00 -0.16915202412E+04  0.16915202412E+04  0.00000000000E+00 0. -1.
         23    2    1    2    0    0  0.16384838422E+03  0.12770157512E+04 -0.84258223044E+03  0.15413034769E+04  0.89755619009E+02 0.  0.
    5000000    2    1    2    0    0 -0.16384838422E+03 -0.12770157512E+04  0.51014527974E+03  0.15093000548E+04  0.60010243049E+03 0.  0.
         23    2    4    4    0    0  0.81378480935E+02 -0.10153106216E+04  0.23721820569E+03  0.10495198498E+04  0.87984785721E+02 0.  0.
         23    2    4    4    0    0 -0.24522686515E+03 -0.26170512964E+03  0.27292707405E+03  0.45978020501E+03  0.91010213163E+02 0.  0.
          4    1    3    3  502    0  0.12237487922E+03  0.94678852624E+03 -0.67073869283E+03  0.11667366963E+04  0.00000000000E+00 0. -1.
         -4    1    3    3    0  502  0.41473504996E+02  0.33022722498E+03 -0.17184353760E+03  0.37456678063E+03  0.00000000000E+00 0.  1.
         15    1    5    5    0    0  0.56187077087E+02 -0.40577189449E+03  0.58387474736E+02  0.41378747314E+03  0.17770000000E+01 0.  1.
        -15    1    5    5    0    0  0.25191403848E+02 -0.60953872709E+03  0.17883073095E+03  0.63573237664E+03  0.17770000000E+01 0. -1.
          3    1    6    6  503    0 -0.23082877422E+03 -0.20687810834E+03  0.25155279566E+03  0.39919830125E+03  0.00000000000E+00 0. -1.
         -3    1    6    6    0  503 -0.14398090934E+02 -0.54827021294E+02  0.21374278395E+02  0.60581903762E+02  0.00000000000E+00 0.  1.
<mgrwt>
<rscale>  0 0.13369247E+04</rscale>
<asrwt>0</asrwt>
<pdfrwt beam="1">  1        1 0.26023388E+00 0.13369247E+04</pdfrwt>
<pdfrwt beam="2">  1       -1 0.20908974E+00 0.13369247E+04</pdfrwt>
<totfact> 0.60685947E-01</totfact>
</mgrwt>
</event>
<event>
12    1  0.9321077E-008  0.8116232E+03  0.7818608E-02  0.9543344E-01
          2   -1    0    0  501    0  0.00000000000E+00  0.00000000000E+00  0.26036583603E+04  0.26036583603E+04  0.00000000000E+00 0. -1.
         -2   -1    0    0    0  501 -0.00000000000E+00 -0.00000000000E+00 -0.32551797483E+03  0.32551797483E+03  0.00000000000E+00 0.  1.
         23    2    1    2    0    0 -0.69279061344E+03  0.24846597519E+03  0.15960877198E+04  0.17600514902E+04  0.92687991203E+02 0.  0.
    5000000    2    1    2    0    0  0.69279061344E+03 -0.24846597519E+03  0.68205266561E+03  0.11691248449E+04  0.59996907376E+03 0.  0.
         23    2    4    4    0    0  0.69574899386E+03 -0.33730124775E+03  0.43799444329E+03  0.89314028117E+03  0.89563582420E+02 0.  0.
         23    2    4    4    0    0 -0.29583804153E+01  0.88835272567E+02  0.24405822231E+03  0.27598456376E+03  0.93287758517E+02 0.  0.
          2    1    3    3  502    0 -0.29733819073E+03  0.15197695285E+03  0.67800259381E+03  0.75577411379E+03  0.00000000000E+00 0. -1.
         -2    1    3    3    0  502 -0.39545242272E+03  0.96489022335E+02  0.91808512602E+03  0.10042773764E+04  0.00000000000E+00 0.  1.
         15    1    5    5    0    0  0.28252817549E+03 -0.10873455087E+03  0.21226879629E+03  0.36973851855E+03  0.17770000000E+01 0.  1.
        -15    1    5    5    0    0  0.41322081837E+03 -0.22856669689E+03  0.22572564701E+03  0.52340176262E+03  0.17770000000E+01 0. -1.
          4    1    6    6  503    0 -0.30962221592E+02  0.35811499382E+02  0.36045567176E+02  0.59501307271E+02  0.00000000000E+00 0.  1.
         -4    1    6    6    0  503  0.28003841177E+02  0.53023773185E+02  0.20801265514E+03  0.21648325649E+03  0.00000000000E+00 0. -1.
<mgrwt>
<rscale>  0 0.81162317E+03</rscale>
<asrwt>0</asrwt>
<pdfrwt beam="1">  1        2 0.40056281E+00 0.81162317E+03</pdfrwt>
<pdfrwt beam="2">  1       -2 0.50079690E-01 0.81162317E+03</pdfrwt>
<totfact> 0.11886031E+01</totfact>
</mgrwt>
</event>
<event>
12    1  0.9321077E-008  0.3765220E+03  0.7818608E-02  0.1052227E+00
          1   -1    0    0  501    0  0.00000000000E+00  0.00000000000E+00  0.17182380978E+04  0.17182380978E+04  0.00000000000E+00 0. -1.
         -1   -1    0    0    0  501 -0.00000000000E+00 -0.00000000000E+00 -0.15170538436E+03  0.15170538436E+03  0.00000000000E+00 0.  1.
         23    2    1    2    0    0 -0.11797781033E+03 -0.30239527288E+03  0.47689347902E+03  0.58433028805E+03  0.93020591311E+02 0.  0.
    5000000    2    1    2    0    0  0.11797781033E+03  0.30239527288E+03  0.10896392344E+04  0.12856131941E+04  0.60010495656E+03 0.  0.
         23    2    4    4    0    0 -0.22638537067E+02  0.76294075140E+01  0.88555815880E+03  0.88955311776E+03  0.80751380672E+02 0.  0.
         23    2    4    4    0    0  0.14061634740E+03  0.29476586537E+03  0.20408107559E+03  0.39606007632E+03  0.92491221737E+02 0.  0.
          3    1    3    3  502    0 -0.33465378030E+02 -0.19737375129E+03  0.32020854961E+03  0.37763718629E+03  0.00000000000E+00 0. -1.
         -3    1    3    3    0  502 -0.84512432303E+02 -0.10502152160E+03  0.15668492941E+03  0.20669310177E+03  0.00000000000E+00 0.  1.
         15    1    5    5    0    0 -0.46770754266E+02  0.26186128649E+02  0.54506477000E+03  0.54769697645E+03  0.17770000000E+01 0. -1.
        -15    1    5    5    0    0  0.24132217199E+02 -0.18556721135E+02  0.34049338881E+03  0.34185614132E+03  0.17770000000E+01 0.  1.
          4    1    6    6  503    0  0.27760204879E+02  0.13798101773E+03  0.12163796745E+03  0.18602469018E+03  0.00000000000E+00 0. -1.
         -4    1    6    6    0  503  0.11285614252E+03  0.15678484764E+03  0.82443108134E+02  0.21003538614E+03  0.00000000000E+00 0.  1.
<mgrwt>
<rscale>  0 0.37652199E+03</rscale>
<asrwt>0</asrwt>
<pdfrwt beam="1">  1        1 0.26434431E+00 0.37652199E+03</pdfrwt>
<pdfrwt beam="2">  1       -1 0.23339291E-01 0.37652199E+03</pdfrwt>
<totfact> 0.79036434E+01</totfact>
</mgrwt>
</event>
<event>
12    1  0.9321077E-008  0.1391259E+04  0.7818608E-02  0.8960170E-01
         -1   -1    0    0    0  501 -0.00000000000E+00  0.00000000000E+00  0.13879595402E+04  0.13879595402E+04  0.00000000000E+00 0.  1.
          1   -1    0    0  501    0  0.00000000000E+00 -0.00000000000E+00 -0.15124371173E+04  0.15124371173E+04  0.00000000000E+00 0. -1.
         23    2    1    2    0    0  0.66997018753E+03 -0.12023458248E+04 -0.21595772763E+03  0.13960743710E+04  0.88827780205E+02 0.  0.
    5000000    2    1    2    0    0 -0.66997018753E+03  0.12023458248E+04  0.91480150446E+02  0.15043222865E+04  0.60010114912E+03 0.  0.
         23    2    4    4    0    0 -0.23123030437E+03  0.24848701820E+03 -0.20868542156E+03  0.40839764101E+03  0.89586696209E+02 0.  0.
         23    2    4    4    0    0 -0.43873988316E+03  0.95385880662E+03  0.30016557201E+03  0.10959246455E+04  0.92801670219E+02 0.  0.
          3    1    3    3  502    0  0.17765337709E+03 -0.38663463513E+03 -0.42061874916E+02  0.42757018699E+03  0.00000000000E+00 0. -1.
         -3    1    3    3    0  502  0.49231681044E+03 -0.81571118968E+03 -0.17389585271E+03  0.96850418399E+03  0.00000000000E+00 0.  1.
         15    1    5    5    0    0 -0.15093689877E+03  0.96518591550E+02 -0.10708421463E+03  0.20872942456E+03  0.17770000000E+01 0.  1.
        -15    1    5    5    0    0 -0.80293405598E+02  0.15196842665E+03 -0.10160120693E+03  0.19966821645E+03  0.17770000000E+01 0. -1.
          1    1    6    6  503    0 -0.33818489912E+03  0.80923250994E+03  0.26588463811E+03  0.91647199735E+03  0.00000000000E+00 0. -1.
         -1    1    6    6    0  503 -0.10055498405E+03  0.14462629668E+03  0.34280933892E+02  0.17945264817E+03  0.00000000000E+00 0.  1.
<mgrwt>
<rscale>  0 0.13912585E+04</rscale>
<asrwt>0</asrwt>
<pdfrwt beam="1">  1        1 0.23268263E+00 0.13912585E+04</pdfrwt>
<pdfrwt beam="2">  1       -1 0.21353224E+00 0.13912585E+04</pdfrwt>
<totfact> 0.74739734E-01</totfact>
</mgrwt>
</event>
<event>
12    1  0.9321077E-008  0.1406752E+04  0.7818608E-02  0.8948946E-01
          2   -1    0    0  501    0  0.00000000000E+00  0.00000000000E+00  0.91356355190E+03  0.91356355190E+03  0.00000000000E+00 0. -1.
         -2   -1    0    0    0  501 -0.00000000000E+00 -0.00000000000E+00 -0.26780339136E+04  0.26780339136E+04  0.00000000000E+00 0.  1.
         23    2    1    2    0    0 -0.11402924205E+04 -0.81380924587E+03 -0.14823505334E+04  0.20416977224E+04  0.92812676877E+02 0.  0.
    5000000    2    1    2    0    0  0.11402924205E+04  0.81380924587E+03 -0.28211982827E+03  0.15498997430E+04  0.60003776807E+03 0.  0.
         23    2    4    4    0    0  0.75735035739E+03  0.52567828176E+03 -0.45565530502E+03  0.10321368441E+04  0.88133354666E+02 0.  0.
         23    2    4    4    0    0  0.38294206309E+03  0.28813096411E+03  0.17353547675E+03  0.51776289894E+03  0.91103137516E+02 0.  0.
          1    1    3    3  502    0 -0.60494470785E+03 -0.42558823990E+03 -0.71546479088E+03  0.10290642917E+04  0.00000000000E+00 0. -1.
         -1    1    3    3    0  502 -0.53534771263E+03 -0.38822100597E+03 -0.76688574252E+03  0.10126334307E+04  0.00000000000E+00 0.  1.
         15    1    5    5    0    0  0.37555545808E+03  0.20724554016E+03 -0.21247009758E+03  0.47868498629E+03  0.17770000000E+01 0.  1.
        -15    1    5    5    0    0  0.38179489931E+03  0.31843274160E+03 -0.24318520744E+03  0.55345185781E+03  0.17770000000E+01 0. -1.
          4    1    6    6  503    0  0.12378982440E+03  0.14406116409E+03  0.86773876370E+02  0.20882347867E+03  0.00000000000E+00 0. -1.
         -4    1    6    6    0  503  0.25915223869E+03  0.14406980002E+03  0.86761600385E+02  0.30893942028E+03  0.00000000000E+00 0.  1.
<mgrwt>
<rscale>  0 0.14067517E+04</rscale>
<asrwt>0</asrwt>
<pdfrwt beam="1">  1        2 0.14054824E+00 0.14067517E+04</pdfrwt>
<pdfrwt beam="2">  1       -2 0.41200521E+00 0.14067517E+04</pdfrwt>
<totfact> 0.17090194E-01</totfact>
</mgrwt>
</event>
<event>
12    1  0.9321077E-008  0.7308065E+03  0.7818608E-02  0.9665953E-01
          1   -1    0    0  501    0  0.00000000000E+00  0.00000000000E+00  0.11717316747E+04  0.11717316747E+04  0.00000000000E+00 0. -1.
         -1   -1    0    0    0  501 -0.00000000000E+00 -0.00000000000E+00 -0.59101341259E+03  0.59101341259E+03  0.00000000000E+00 0.  1.
         23    2    1    2    0    0  0.49393513396E+03  0.51058620550E+03  0.38276389946E+03  0.81199200445E+03  0.90291875339E+02 0.  0.
    5000000    2    1    2    0    0 -0.49393513396E+03 -0.51058620550E+03  0.19795436270E+03  0.95075308288E+03  0.60006275097E+03 0.  0.
         23    2    4    4    0    0 -0.35343855846E+03 -0.22720451765E+03  0.38062941146E+03  0.57432937426E+03  0.91841024728E+02 0.  0.
         23    2    4    4    0    0 -0.14049657550E+03 -0.28338168785E+03 -0.18267504876E+03  0.37642370862E+03  0.90995418765E+02 0.  0.
          3    1    3    3  502    0  0.22256860718E+03  0.16959441738E+03  0.16459436398E+03  0.32463880847E+03  0.00000000000E+00 0. -1.
         -3    1    3    3    0  502  0.27136652678E+03  0.34099178812E+03  0.21816953548E+03  0.48735319598E+03  0.00000000000E+00 0.  1.
         15    1    5    5    0    0 -0.60758357623E+02 -0.83930484694E+02  0.10494361790E+03  0.14748635513E+03  0.17770000000E+01 0.  1.
        -15    1    5    5    0    0 -0.29268020084E+03 -0.14327403295E+03  0.27568579356E+03  0.42684301913E+03  0.17770000000E+01 0. -1.
          3    1    6    6  503    0 -0.52208515215E+02 -0.93278851626E+02 -0.14873093206E+02  0.10792535440E+03  0.00000000000E+00 0. -1.
         -3    1    6    6    0  503 -0.88288060281E+02 -0.19010283623E+03 -0.16780195556E+03  0.26849835422E+03  0.00000000000E+00 0.  1.
<mgrwt>
<rscale>  0 0.73080652E+03</rscale>
<asrwt>0</asrwt>
<pdfrwt beam="1">  1        1 0.18026641E+00 0.73080652E+03</pdfrwt>
<pdfrwt beam="2">  1       -1 0.90925141E-01 0.73080652E+03</pdfrwt>
<totfact> 0.13706409E+01</totfact>
</mgrwt>
</event>
<event>
12    1  0.9321077E-008  0.3206941E+03  0.7818608E-02  0.1075330E+00
          1   -1    0    0  501    0  0.00000000000E+00  0.00000000000E+00  0.27121301661E+04  0.27121301661E+04  0.00000000000E+00 0. -1.
         -1   -1    0    0    0  501 -0.00000000000E+00 -0.00000000000E+00 -0.12817853167E+03  0.12817853167E+03  0.00000000000E+00 0.  1.
         23    2    1    2    0    0  0.14775969700E+03  0.22292535881E+03  0.16423306147E+03  0.33298146946E+03  0.11124530042E+03 0.  0.
    5000000    2    1    2    0    0 -0.14775969700E+03 -0.22292535881E+03  0.24197185729E+04  0.25073272283E+04  0.60010266943E+03 0.  0.
         23    2    4    4    0    0 -0.62860126069E+02 -0.95649608755E+01  0.21017710952E+04  0.21046702503E+04  0.90289766194E+02 0.  0.
         23    2    4    4    0    0 -0.84899570935E+02 -0.21336039793E+03  0.31794747772E+03  0.40265697799E+03  0.91167136556E+02 0.  0.
          1    1    3    3  502    0  0.82202053959E+02  0.19848783047E+03  0.96193645385E+02  0.23538864445E+03  0.00000000000E+00 0.  1.
         -1    1    3    3    0  502  0.65557643046E+02  0.24437528330E+02  0.68039416089E+02  0.97592825015E+02  0.00000000000E+00 0. -1.
         15    1    5    5    0    0 -0.49552496295E+02  0.36681980958E+02  0.10703900733E+04  0.10721656049E+04  0.17770000000E+01 0. -1.
        -15    1    5    5    0    0 -0.13307629774E+02 -0.46246941834E+02  0.10313810219E+04  0.10325046453E+04  0.17770000000E+01 0.  1.
          4    1    6    6  503    0 -0.64925311282E+02 -0.49403643193E+02  0.11480112870E+03  0.14083790384E+03  0.00000000000E+00 0. -1.
         -4    1    6    6    0  503 -0.19974259653E+02 -0.16395675474E+03  0.20314634902E+03  0.26181907416E+03  0.00000000000E+00 0.  1.
<mgrwt>
<rscale>  0 0.32069408E+03</rscale>
<asrwt>0</asrwt>
<pdfrwt beam="1">  1        1 0.41725075E+00 0.32069408E+03</pdfrwt>
<pdfrwt beam="2">  1       -1 0.19719776E-01 0.32069408E+03</pdfrwt>
<totfact> 0.23296985E+01</totfact>
</mgrwt>
</event>
<event>
12    1  0.9321077E-008  0.4440286E+03  0.7818608E-02  0.1029518E+00
          1   -1    0    0  501    0  0.00000000000E+00  0.00000000000E+00  0.10443708816E+04  0.10443708816E+04  0.00000000000E+00 0.  1.
         -1   -1    0    0    0  501 -0.00000000000E+00 -0.00000000000E+00 -0.35109699081E+03  0.35109699081E+03  0.00000000000E+00 0. -1.
         23    2    1    2    0    0  0.40773450743E+03 -0.26427523390E+02  0.48535273269E+03  0.64046818898E+03  0.87672021857E+02 0.  0.
    5000000    2    1    2    0    0 -0.40773450743E+03  0.26427523390E+02  0.20792115807E+03  0.75499968340E+03  0.59987287939E+03 0.  0.
         23    2    4    4    0    0 -0.21057849962E+03  0.12411153996E+03  0.37945068892E+03  0.46041107559E+03  0.90821552234E+02 0.  0.
         23    2    4    4    0    0 -0.19715600781E+03 -0.97684016570E+02 -0.17152953085E+03  0.29458860781E+03  0.94590746859E+02 0.  0.
          2    1    3    3  502    0  0.16194377733E+03 -0.24284912771E+02  0.25838476160E+03  0.30590558842E+03  0.00000000000E+00 0. -1.
         -2    1    3    3    0  502  0.24579073010E+03 -0.21426106194E+01  0.22696797109E+03  0.33456260055E+03  0.00000000000E+00 0.  1.
         15    1    5    5    0    0  0.60061000567E+01  0.52895463269E+01  0.71954266737E+00  0.82297028431E+01  0.17770000000E+01 0. -1.
        -15    1    5    5    0    0 -0.21658459967E+03  0.11882199363E+03  0.37873114625E+03  0.45218137274E+03  0.17770000000E+01 0.  1.
          1    1    6    6  503    0 -0.50615477601E+02 -0.74346299821E+01  0.62516727441E+00  0.51162399571E+02  0.00000000000E+00 0. -1.
         -1    1    6    6    0  503 -0.14654053021E+03 -0.90249386588E+02 -0.17215469812E+03  0.24342620824E+03  0.00000000000E+00 0.  1.
<mgrwt>
<rscale>  0 0.44402863E+03</rscale>
<asrwt>0</asrwt>
<pdfrwt beam="1">  1        1 0.16067244E+00 0.44402863E+03</pdfrwt>
<pdfrwt beam="2">  1       -1 0.54014922E-01 0.44402863E+03</pdfrwt>
<totfact> 0.51531943E+01</totfact>
</mgrwt>
</event>
<event>
12    1  0.9321077E-008  0.5744372E+03  0.7818608E-02  0.9959908E-01
         -2   -1    0    0    0  501 -0.00000000000E+00  0.00000000000E+00  0.27511037102E+03  0.27511037102E+03  0.00000000000E+00 0.  1.
          2   -1    0    0  501    0  0.00000000000E+00 -0.00000000000E+00 -0.14562697962E+04  0.14562697962E+04  0.00000000000E+00 0. -1.
         23    2    1    2    0    0 -0.32010115817E+03 -0.33007564042E+03 -0.67436169541E+03  0.82131611339E+03  0.91552072745E+02 0.  0.
    5000000    2    1    2    0    0  0.32010115817E+03  0.33007564042E+03 -0.50679772982E+03  0.91006405388E+03  0.59996496844E+03 0.  0.
         23    2    4    4    0    0 -0.70949629845E+02  0.25787996779E+03 -0.39997878343E+03  0.48988424191E+03  0.92019647439E+02 0.  0.
         23    2    4    4    0    0  0.39105078802E+03  0.72195672625E+02 -0.10681894639E+03  0.42017981197E+03  0.83712920890E+02 0.  0.
          2    1    3    3  502    0 -0.87861002163E+02 -0.14755333037E+03 -0.21474872415E+03  0.27497009933E+03  0.00000000000E+00 0. -1.
         -2    1    3    3    0  502 -0.23224015601E+03 -0.18252231005E+03 -0.45961297126E+03  0.54634601406E+03  0.00000000000E+00 0.  1.
         15    1    5    5    0    0 -0.81995960850E+02  0.17389749624E+03 -0.22858992434E+03  0.29869748581E+03  0.17770000000E+01 0.  1.
        -15    1    5    5    0    0  0.11046331004E+02  0.83982471553E+02 -0.17138885909E+03  0.19118675610E+03  0.17770000000E+01 0. -1.
          1    1    6    6  503    0  0.91168795507E+02 -0.15167703504E+02 -0.40303816855E+02  0.10082760612E+03  0.00000000000E+00 0. -1.
         -1    1    6    6    0  503  0.29988199251E+03  0.87363376129E+02 -0.66515129533E+02  0.31935220584E+03  0.00000000000E+00 0.  1.
<mgrwt>
<rscale>  0 0.57443719E+03</rscale>
<asrwt>0</asrwt>
<pdfrwt beam="1">  1        2 0.22404151E+00 0.57443719E+03</pdfrwt>
<pdfrwt beam="2">  1       -2 0.42324672E-01 0.57443719E+03</pdfrwt>
<totfact> 0.73895635E+01</totfact>
</mgrwt>
</event>
<event>
12    1  0.9321077E-008  0.1070924E+04  0.7818608E-02  0.9234004E-01
          2   -1    0    0  501    0  0.00000000000E+00  0.00000000000E+00  0.14869900393E+04  0.14869900393E+04  0.00000000000E+00 0. -1.
         -2   -1    0    0    0  501 -0.00000000000E+00 -0.00000000000E+00 -0.89783859621E+03  0.89783859621E+03  0.00000000000E+00 0.  1.
         23    2    1    2    0    0  0.41819060040E+03 -0.97508216533E+03  0.45697023551E+03  0.11588464743E+04  0.91840880835E+02 0.  0.
    5000000    2    1    2    0    0 -0.41819060040E+03  0.97508216533E+03  0.13218120757E+03  0.12259821612E+04  0.59990981039E+03 0.  0.
         23    2    4    4    0    0 -0.19284474684E+03  0.63160102473E+03  0.34902265772E+03  0.75263359989E+03  0.92366494289E+02 0.  0.
         23    2    4    4    0    0 -0.22534585355E+03  0.34348114060E+03 -0.21684145015E+03  0.47334856133E+03  0.90986803157E+02 0.  0.
          4    1    3    3  502    0  0.29427549870E+03 -0.76981268662E+03  0.37503389089E+03  0.90546124209E+03  0.00000000000E+00 0. -1.
         -4    1    3    3    0  502  0.12391510170E+03 -0.20526947871E+03  0.81936344622E+02  0.25338523218E+03  0.00000000000E+00 0.  1.
         15    1    5    5    0    0 -0.15307137849E+03  0.50226926612E+03  0.23328760649E+03  0.57457073339E+03  0.17770000000E+01 0. -1.
        -15    1    5    5    0    0 -0.39773368350E+02  0.12933175861E+03  0.11573505123E+03  0.17806286650E+03  0.17770000000E+01 0.  1.
          2    1    6    6  503    0 -0.12816491010E+03  0.12791564586E+03 -0.65268059416E+02  0.19248006707E+03  0.00000000000E+00 0. -1.
         -2    1    6    6    0  503 -0.97180943451E+02  0.21556549474E+03 -0.15157339073E+03  0.28086849426E+03  0.00000000000E+00 0.  1.
<mgrwt>
<rscale>  0 0.10709245E+04</rscale>
<asrwt>0</asrwt>
<pdfrwt beam="1">  1        2 0.22876770E+00 0.10709245E+04</pdfrwt>
<pdfrwt beam="2">  1       -2 0.13812902E+00 0.10709245E+04</pdfrwt>
<totfact> 0.47318298E+00</totfact>
</mgrwt>
</event>
<event>
12    1  0.9321077E-008  0.1073744E+04  0.7818608E-02  0.9231167E-01
          1   -1    0    0  501    0  0.00000000000E+00  0.00000000000E+00  0.16980051298E+04  0.16980051298E+04  0.00000000000E+00 0. -1.
         -1   -1    0    0    0  501 -0.00000000000E+00 -0.00000000000E+00 -0.11902534108E+04  0.11902534108E+04  0.00000000000E+00 0.  1.
         23    2    1    2    0    0  0.36952553883E+03 -0.92623310417E+03 -0.69147157591E+03  0.12170644149E+04  0.93037425708E+02 0.  0.
    5000000    2    1    2    0    0 -0.36952553883E+03  0.92623310417E+03  0.11992232950E+04  0.16711941257E+04  0.60024695537E+03 0.  0.
         23    2    4    4    0    0 -0.32437379559E+03  0.14404474679E+03  0.28344560929E+03  0.46281748274E+03  0.88833330219E+02 0.  0.
         23    2    4    4    0    0 -0.45151743242E+02  0.78218835738E+03  0.91577768567E+03  0.12083766429E+04  0.87567318725E+02 0.  0.
          3    1    3    3  502    0  0.10345595661E+03 -0.37237340884E+03 -0.24618186448E+03  0.45822549140E+03  0.00000000000E+00 0. -1.
         -3    1    3    3    0  502  0.26606958222E+03 -0.55385969533E+03 -0.44528971144E+03  0.75883892349E+03  0.00000000000E+00 0.  1.
         15    1    5    5    0    0 -0.19369634700E+03  0.12585185797E+03  0.20786830646E+03  0.31075610301E+03  0.17770000000E+01 0.  1.
        -15    1    5    5    0    0 -0.13067744858E+03  0.18192888815E+02  0.75577302830E+02  0.15206137973E+03  0.17770000000E+01 0. -1.
          1    1    6    6  503    0 -0.40256691922E+02  0.59687412087E+03  0.63975250275E+03  0.87587817771E+03  0.00000000000E+00 0. -1.
         -1    1    6    6    0  503 -0.48950513200E+01  0.18531423651E+03  0.27602518292E+03  0.33249846524E+03  0.00000000000E+00 0.  1.
<mgrwt>
<rscale>  0 0.10737443E+04</rscale>
<asrwt>0</asrwt>
<pdfrwt beam="1">  1        1 0.26123156E+00 0.10737443E+04</pdfrwt>
<pdfrwt beam="2">  1       -1 0.18311591E+00 0.10737443E+04</pdfrwt>
<totfact> 0.94255374E-01</totfact>
</mgrwt>
</event>
<event>
12    1  0.9321077E-008  0.2283834E+04  0.7818608E-02  0.8484322E-01
          1   -1    0    0  501    0  0.00000000000E+00  0.00000000000E+00  0.14957810036E+04  0.14957810036E+04  0.00000000000E+00 0. -1.
         -1   -1    0    0    0  501 -0.00000000000E+00 -0.00000000000E+00 -0.39802260898E+04  0.39802260898E+04  0.00000000000E+00 0.  1.
         23    2    1    2    0    0  0.22352169496E+04  0.37624614577E+03 -0.21174107725E+04  0.31027653708E+04  0.77256667825E+02 0.  0.
    5000000    2    1    2    0    0 -0.22352169496E+04 -0.37624614577E+03 -0.36703431359E+03  0.23732417226E+04  0.59983840542E+03 0.  0.
         23    2    4    4    0    0 -0.60205425465E+03  0.54916081133E+02 -0.29794656863E+03  0.68018060887E+03  0.91588216613E+02 0.  0.
         23    2    4    4    0    0 -0.16331626949E+04 -0.43116222690E+03 -0.69087744965E+02  0.16930611137E+04  0.92528721350E+02 0.  0.
          3    1    3    3  502    0  0.11818640449E+04  0.23144043650E+03 -0.11538519295E+04  0.16678553809E+04  0.00000000000E+00 0. -1.
         -3    1    3    3    0  502  0.10533529047E+04  0.14480570927E+03 -0.96355884305E+03  0.14349099899E+04  0.00000000000E+00 0.  1.
         15    1    5    5    0    0 -0.27066689633E+03  0.66793102843E+02 -0.11623381708E+03  0.30205189177E+03  0.17770000000E+01 0. -1.
        -15    1    5    5    0    0 -0.33138735831E+03 -0.11877021710E+02 -0.18171275155E+03  0.37812871711E+03  0.17770000000E+01 0.  1.
          3    1    6    6  503    0 -0.94502435073E+03 -0.22682841153E+03  0.45766862339E+00  0.97186540283E+03  0.00000000000E+00 0. -1.
         -3    1    6    6    0  503 -0.68813834418E+03 -0.20433381537E+03 -0.69545413588E+02  0.72119571088E+03  0.00000000000E+00 0.  1.
<mgrwt>
<rscale>  0 0.22838343E+04</rscale>
<asrwt>0</asrwt>
<pdfrwt beam="1">  1        1 0.23012016E+00 0.22838343E+04</pdfrwt>
<pdfrwt beam="2">  1       -1 0.61234247E+00 0.22838343E+04</pdfrwt>
<totfact> 0.21967609E-03</totfact>
</mgrwt>
</event>
<event>
12    1  0.9321077E-008  0.1769450E+04  0.7818608E-02  0.8722716E-01
         -2   -1    0    0    0  501 -0.00000000000E+00  0.00000000000E+00  0.18283095071E+04  0.18283095071E+04  0.00000000000E+00 0.  1.
          2   -1    0    0  501    0  0.00000000000E+00 -0.00000000000E+00 -0.18591736009E+04  0.18591736009E+04  0.00000000000E+00 0. -1.
         23    2    1    2    0    0 -0.12891546011E+04 -0.11416772743E+04 -0.51706676030E+03  0.18002333871E+04  0.90197722635E+02 0.  0.
    5000000    2    1    2    0    0  0.12891546011E+04  0.11416772743E+04  0.48620266645E+03  0.18872497209E+04  0.59997657625E+03 0.  0.
         23    2    4    4    0    0  0.70253236357E+03  0.97842586180E+03  0.31887590689E+03  0.12493684099E+04  0.91491479538E+02 0.  0.
         23    2    4    4    0    0  0.58662223756E+03  0.16325141248E+03  0.16732675956E+03  0.63788131100E+03  0.90097997635E+02 0.  0.
          4    1    3    3  502    0 -0.67987764340E+03 -0.55956062902E+03 -0.23088656145E+03  0.91030231891E+03  0.00000000000E+00 0. -1.
         -4    1    3    3    0  502 -0.60927695773E+03 -0.58211664526E+03 -0.28618019886E+03  0.88993106819E+03  0.00000000000E+00 0.  1.
         15    1    5    5    0    0  0.16321829287E+03  0.27124753964E+03  0.51898254486E+02  0.32079904214E+03  0.17770000000E+01 0.  1.
        -15    1    5    5    0    0  0.53931407070E+03  0.70717832216E+03  0.26697765240E+03  0.92856936779E+03  0.17770000000E+01 0. -1.
          4    1    6    6  503    0  0.15973659678E+03  0.29651082179E+02  0.83951563364E+02  0.18287381446E+03  0.00000000000E+00 0. -1.
         -4    1    6    6    0  503  0.42688564079E+03  0.13360033030E+03  0.83375196197E+02  0.45500749654E+03  0.00000000000E+00 0.  1.
<mgrwt>
<rscale>  0 0.17694499E+04</rscale>
<asrwt>0</asrwt>
<pdfrwt beam="1">  1        2 0.28602671E+00 0.17694499E+04</pdfrwt>
<pdfrwt beam="2">  1       -2 0.28127839E+00 0.17694499E+04</pdfrwt>
<totfact> 0.30193016E-01</totfact>
</mgrwt>
</event>
<event>
12    1  0.9321077E-008  0.8605616E+03  0.7818608E-02  0.9476270E-01
          2   -1    0    0  501    0  0.00000000000E+00  0.00000000000E+00  0.59698773207E+03  0.59698773207E+03  0.00000000000E+00 0. -1.
         -2   -1    0    0    0  501 -0.00000000000E+00 -0.00000000000E+00 -0.15965506714E+04  0.15965506714E+04  0.00000000000E+00 0.  1.
         23    2    1    2    0    0 -0.76159307267E+03  0.11469406887E+03  0.29429227459E+02  0.77505411679E+03  0.81633735374E+02 0.  0.
    5000000    2    1    2    0    0  0.76159307267E+03 -0.11469406887E+03 -0.10289921668E+04  0.14184842867E+04  0.60007837359E+03 0.  0.
         23    2    4    4    0    0  0.24696382421E+03  0.20786176576E+03 -0.21125382059E+03  0.39588358141E+03  0.88870631735E+02 0.  0.
         23    2    4    4    0    0  0.51462924846E+03 -0.32255583463E+03 -0.81773834619E+03  0.10226007053E+04  0.90170226408E+02 0.  0.
          4    1    3    3  502    0 -0.58402538312E+03  0.53709162342E+02  0.30845802246E+02  0.58730042207E+03  0.00000000000E+00 0. -1.
         -4    1    3    3    0  502 -0.17756768955E+03  0.60984906532E+02 -0.14165747879E+01  0.18775369472E+03  0.00000000000E+00 0.  1.
         15    1    5    5    0    0  0.38815990214E+02  0.82418425327E+02 -0.46759697121E+02  0.10241633138E+03  0.17770000000E+01 0.  1.
        -15    1    5    5    0    0  0.20814783400E+03  0.12544334043E+03 -0.16449412346E+03  0.29346725003E+03  0.17770000000E+01 0. -1.
          4    1    6    6  503    0  0.43974908291E+03 -0.23886940823E+03 -0.69238310777E+03  0.85430218192E+03  0.00000000000E+00 0. -1.
         -4    1    6    6    0  503  0.74880165548E+02 -0.83686426403E+02 -0.12535523842E+03  0.16829852333E+03  0.00000000000E+00 0.  1.
<mgrwt>
<rscale>  0 0.86056163E+03</rscale>
<asrwt>0</asrwt>
<pdfrwt beam="1">  1        2 0.91844268E-01 0.86056163E+03</pdfrwt>
<pdfrwt beam="2">  1       -2 0.24562318E+00 0.86056163E+03</pdfrwt>
<totfact> 0.34605636E+00</totfact>
</mgrwt>
</event>
<event>
12    1  0.9321077E-008  0.1557694E+04  0.7818608E-02  0.8846968E-01
          2   -1    0    0  501    0  0.00000000000E+00  0.00000000000E+00  0.32239422862E+04  0.32239422862E+04  0.00000000000E+00 0. -1.
         -2   -1    0    0    0  501 -0.00000000000E+00 -0.00000000000E+00 -0.81093904825E+03  0.81093904825E+03  0.00000000000E+00 0.  1.
         23    2    1    2    0    0  0.14295451480E+04  0.60488019276E+03  0.13584946060E+04  0.20647252790E+04  0.90019470713E+02 0.  0.
    5000000    2    1    2    0    0 -0.14295451480E+04 -0.60488019276E+03  0.10545086319E+04  0.19701560555E+04  0.60003920733E+03 0.  0.
         23    2    4    4    0    0 -0.80364851996E+03 -0.34267072968E+03  0.91995031724E+03  0.12724691880E+04  0.97954457330E+02 0.  0.
         23    2    4    4    0    0 -0.62589662807E+03 -0.26220946308E+03  0.13455831465E+03  0.69768686743E+03  0.90336224106E+02 0.  0.
          1    1    3    3  502    0  0.39785801217E+03  0.19925213956E+03  0.42822361889E+03  0.61754990141E+03  0.00000000000E+00 0. -1.
         -1    1    3    3    0  502  0.10316871359E+04  0.40562805320E+03  0.93027098714E+03  0.14471753775E+04  0.00000000000E+00 0.  1.
         15    1    5    5    0    0 -0.29623750925E+03 -0.17820017238E+03  0.36556825422E+03  0.50314537615E+03  0.17770000000E+01 0. -1.
        -15    1    5    5    0    0 -0.50741101071E+03 -0.16447055730E+03  0.55438206302E+03  0.76932381188E+03  0.17770000000E+01 0.  1.
          1    1    6    6  503    0 -0.50715874745E+03 -0.17926700406E+03  0.84876685160E+02  0.54456469362E+03  0.00000000000E+00 0. -1.
         -1    1    6    6    0  503 -0.11873788062E+03 -0.82942459019E+02  0.49681629488E+02  0.15312217381E+03  0.00000000000E+00 0.  1.
<mgrwt>
<rscale>  0 0.15576939E+04</rscale>
<asrwt>0</asrwt>
<pdfrwt beam="1">  1        2 0.49599111E+00 0.15576939E+04</pdfrwt>
<pdfrwt beam="2">  1       -2 0.12475986E+00 0.15576939E+04</pdfrwt>
<totfact> 0.57113993E-01</totfact>
</mgrwt>
</event>
<event>
12    1  0.9321077E-008  0.7083815E+03  0.7818608E-02  0.9703005E-01
         -1   -1    0    0    0  501 -0.00000000000E+00  0.00000000000E+00  0.66344732679E+03  0.66344732679E+03  0.00000000000E+00 0.  1.
          1   -1    0    0  501    0  0.00000000000E+00 -0.00000000000E+00 -0.14409188964E+04  0.14409188964E+04  0.00000000000E+00 0. -1.
         23    2    1    2    0    0 -0.19393111748E+03  0.55383092060E+03 -0.10623830898E+04  0.12180419964E+04  0.10310435793E+03 0.  0.
    5000000    2    1    2    0    0  0.19393111748E+03 -0.55383092060E+03  0.28491152013E+03  0.88632422683E+03  0.60004840958E+03 0.  0.
         23    2    4    4    0    0  0.36774502466E+03 -0.19648154562E+03  0.10914852820E+03  0.44155070060E+03  0.95980305592E+02 0.  0.
         23    2    4    4    0    0 -0.17381390719E+03 -0.35734937498E+03  0.17576299193E+03  0.44477352623E+03  0.94978998600E+02 0.  0.
          3    1    3    3  502    0 -0.11962241199E+03  0.30275452799E+03 -0.68861678695E+03  0.76168425541E+03  0.00000000000E+00 0. -1.
         -3    1    3    3    0  502 -0.74308705482E+02  0.25107639261E+03 -0.37376630281E+03  0.45635774098E+03  0.00000000000E+00 0.  1.
         15    1    5    5    0    0  0.22430461942E+03 -0.86876903233E+02  0.23380171243E+02  0.24168150269E+03  0.17770000000E+01 0.  1.
        -15    1    5    5    0    0  0.14344040524E+03 -0.10960464238E+03  0.85768356953E+02  0.19986919791E+03  0.17770000000E+01 0. -1.
          2    1    6    6  503    0 -0.84949820459E+02 -0.27254171848E+03  0.11556903729E+03  0.30797997125E+03  0.00000000000E+00 0. -1.
         -2    1    6    6    0  503 -0.88864086727E+02 -0.84807656499E+02  0.60193954638E+02  0.13679355499E+03  0.00000000000E+00 0.  1.
<mgrwt>
<rscale>  0 0.70838151E+03</rscale>
<asrwt>0</asrwt>
<pdfrwt beam="1">  1        1 0.22167983E+00 0.70838151E+03</pdfrwt>
<pdfrwt beam="2">  1       -1 0.10206882E+00 0.70838151E+03</pdfrwt>
<totfact> 0.68435653E+00</totfact>
</mgrwt>
</event>
<event>
12    1  0.9321077E-008  0.6506964E+03  0.7818608E-02  0.9805473E-01
          1   -1    0    0  501    0  0.00000000000E+00  0.00000000000E+00  0.96356857623E+03  0.96356857623E+03  0.00000000000E+00 0.  1.
         -1   -1    0    0    0  501 -0.00000000000E+00 -0.00000000000E+00 -0.54845278860E+03  0.54845278860E+03  0.00000000000E+00 0. -1.
         23    2    1    2    0    0 -0.57617803827E+03 -0.39157456334E+02  0.10342375638E+02  0.58603113878E+03  0.99050960161E+02 0.  0.
    5000000    2    1    2    0    0  0.57617803827E+03  0.39157456334E+02  0.40477341199E+03  0.92599022604E+03  0.60008494857E+03 0.  0.
         23    2    4    4    0    0  0.38551739064E+03  0.21968836306E+03  0.22716042189E+02  0.45318409924E+03  0.89292630622E+02 0.  0.
         23    2    4    4    0    0  0.19066064764E+03 -0.18053090672E+03  0.38205736980E+03  0.47280612681E+03  0.92924210428E+02 0.  0.
          3    1    3    3  502    0 -0.53986779875E+03 -0.29667187444E+02  0.33859855161E+02  0.54174151764E+03  0.00000000000E+00 0. -1.
         -3    1    3    3    0  502 -0.36310239520E+02 -0.94902688903E+01 -0.23517479523E+02  0.44289621140E+02  0.00000000000E+00 0.  1.
         15    1    5    5    0    0  0.12715056809E+03  0.12235525313E+03  0.56639265981E+01  0.17655965770E+03  0.17770000000E+01 0.  1.
        -15    1    5    5    0    0  0.25836682255E+03  0.97333109933E+02  0.17052115591E+02  0.27662444154E+03  0.17770000000E+01 0. -1.
          3    1    6    6  503    0  0.16321613325E+03 -0.11527011769E+03  0.22741297895E+03  0.30272655843E+03  0.00000000000E+00 0. -1.
         -3    1    6    6    0  503  0.27444514386E+02 -0.65260789037E+02  0.15464439085E+03  0.17007956837E+03  0.00000000000E+00 0.  1.
<mgrwt>
<rscale>  0 0.65069641E+03</rscale>
<asrwt>0</asrwt>
<pdfrwt beam="1">  1        1 0.14824132E+00 0.65069641E+03</pdfrwt>
<pdfrwt beam="2">  1       -1 0.84377352E-01 0.65069641E+03</pdfrwt>
<totfact> 0.23410062E+01</totfact>
</mgrwt>
</event>
<event>
12    1  0.9321077E-008  0.3537735E+03  0.7818608E-02  0.1061077E+00
          1   -1    0    0  501    0  0.00000000000E+00  0.00000000000E+00  0.51930993401E+03  0.51930993401E+03  0.00000000000E+00 0. -1.
         -1   -1    0    0    0  501 -0.00000000000E+00 -0.00000000000E+00 -0.29316959751E+03  0.29316959751E+03  0.00000000000E+00 0.  1.
         23    2    1    2    0    0 -0.90049367958E+02 -0.54411409785E+02 -0.49525705361E+02  0.14386447304E+03  0.84703606337E+02 0.  0.
    5000000    2    1    2    0    0  0.90049367958E+02  0.54411409785E+02  0.27566604187E+03  0.66861505849E+03  0.59998736621E+03 0.  0.
         23    2    4    4    0    0  0.32940872483E+03 -0.14467243718E+02  0.13164734768E+03  0.36661859457E+03  0.91426257686E+02 0.  0.
         23    2    4    4    0    0 -0.23935935687E+03  0.68878653503E+02  0.14401869418E+03  0.30199646392E+03  0.91778588553E+02 0.  0.
          4    1    3    3  502    0 -0.76760623661E+02 -0.50027062420E+01 -0.68308174254E+01  0.77226164486E+02  0.00000000000E+00 0. -1.
         -4    1    3    3    0  502 -0.13288744297E+02 -0.49408703543E+02 -0.42694887935E+02  0.66638308552E+02  0.00000000000E+00 0.  1.
         15    1    5    5    0    0  0.16099521639E+03  0.24614553061E+01  0.11214488762E+03  0.19622729681E+03  0.17770000000E+01 0.  1.
        -15    1    5    5    0    0  0.16841350844E+03 -0.16928699024E+02  0.19502460063E+02  0.17039129776E+03  0.17770000000E+01 0. -1.
          3    1    6    6  503    0 -0.21190177502E+03  0.63189539868E+02  0.85445821767E+02  0.23705752185E+03  0.00000000000E+00 0. -1.
         -3    1    6    6    0  503 -0.27457581851E+02  0.56891136345E+01  0.58572872415E+02  0.64938942077E+02  0.00000000000E+00 0.  1.
<mgrwt>
<rscale>  0 0.35377346E+03</rscale>
<asrwt>0</asrwt>
<pdfrwt beam="1">  1        1 0.79893835E-01 0.35377346E+03</pdfrwt>
<pdfrwt beam="2">  1       -1 0.45103015E-01 0.35377346E+03</pdfrwt>
<totfact> 0.21335577E+02</totfact>
</mgrwt>
</event>
<event>
12    1  0.9321077E-008  0.7816772E+03  0.7818608E-02  0.9586924E-01
         -3   -1    0    0    0  501 -0.00000000000E+00  0.00000000000E+00  0.18716859031E+04  0.18716859031E+04  0.00000000000E+00 0.  1.
          3   -1    0    0  501    0  0.00000000000E+00 -0.00000000000E+00 -0.53321746658E+03  0.53321746658E+03  0.00000000000E+00 0. -1.
         23    2    1    2    0    0  0.22407924207E+02 -0.69268420061E+03  0.13135567455E+04  0.14879016589E+04  0.90036137632E+02 0.  0.
    5000000    2    1    2    0    0 -0.22407924207E+02  0.69268420061E+03  0.24911690940E+02  0.91700171070E+03  0.59996502251E+03 0.  0.
         23    2    4    4    0    0  0.15481063539E+02 -0.83777281976E+02 -0.43063368656E+02  0.13124840063E+03  0.90074372856E+02 0.  0.
         23    2    4    4    0    0 -0.37888987747E+02  0.77646148259E+03  0.67975059597E+02  0.78575331006E+03  0.91976335088E+02 0.  0.
          1    1    3    3  502    0  0.44539944542E+02 -0.27070017050E+03  0.57237644326E+03  0.63472606829E+03  0.00000000000E+00 0. -1.
         -1    1    3    3    0  502 -0.22132020335E+02 -0.42198403011E+03  0.74118030229E+03  0.85317559066E+03  0.00000000000E+00 0.  1.
         15    1    5    5    0    0  0.57502148262E+01 -0.93405246587E+01 -0.54207681778E+02  0.55334806986E+02  0.17770000000E+01 0. -1.
        -15    1    5    5    0    0  0.97308487133E+01 -0.74436757318E+02  0.11144313122E+02  0.75913593648E+02  0.17770000000E+01 0.  1.
          3    1    6    6  503    0 -0.56505411415E+02  0.50569805279E+03  0.14012787142E+02  0.50903805390E+03  0.00000000000E+00 0. -1.
         -3    1    6    6    0  503  0.18616423668E+02  0.27076342980E+03  0.53962272455E+02  0.27671525617E+03  0.00000000000E+00 0.  1.
<mgrwt>
<rscale>  0 0.78167725E+03</rscale>
<asrwt>0</asrwt>
<pdfrwt beam="1">  1        3 0.82033457E-01 0.78167725E+03</pdfrwt>
<pdfrwt beam="2">  1       -3 0.28795167E+00 0.78167725E+03</pdfrwt>
<totfact> 0.16051992E-01</totfact>
</mgrwt>
</event>
<event>
12    1  0.9321077E-008  0.5399719E+03  0.7818608E-02  0.1003842E+00
         -2   -1    0    0    0  501 -0.00000000000E+00  0.00000000000E+00  0.34239747455E+03  0.34239747455E+03  0.00000000000E+00 0.  1.
          2   -1    0    0  501    0  0.00000000000E+00 -0.00000000000E+00 -0.13259970482E+04  0.13259970482E+04  0.00000000000E+00 0. -1.
         23    2    1    2    0    0  0.50826343435E+03 -0.11280805113E+03 -0.24069748587E+03  0.58061360256E+03  0.90108271947E+02 0.  0.
    5000000    2    1    2    0    0 -0.50826343435E+03  0.11280805113E+03 -0.74290208779E+03  0.10877809202E+04  0.60025531504E+03 0.  0.
         23    2    4    4    0    0 -0.32866174713E+03  0.22726764691E+02 -0.31971053032E+02  0.34319410014E+03  0.90691743164E+02 0.  0.
         23    2    4    4    0    0 -0.17960168722E+03  0.90081286435E+02 -0.71093103476E+03  0.74458682007E+03  0.92818059793E+02 0.  0.
          4    1    3    3  502    0  0.43319794198E+03 -0.12177378437E+03 -0.22617915316E+03  0.50363312125E+03  0.00000000000E+00 0. -1.
         -4    1    3    3    0  502  0.75065492366E+02  0.89657332482E+01 -0.14518332709E+02  0.76980481302E+02  0.00000000000E+00 0.  1.
         15    1    5    5    0    0 -0.29254280917E+02 -0.13192001934E+02  0.19030951601E+02  0.37352064399E+02  0.17770000000E+01 0.  1.
        -15    1    5    5    0    0 -0.29940746621E+03  0.35918766625E+02 -0.51002004633E+02  0.30584203574E+03  0.17770000000E+01 0. -1.
          3    1    6    6  503    0 -0.93247374312E+02  0.96339622563E+02 -0.45983334239E+03  0.47898131328E+03  0.00000000000E+00 0. -1.
         -3    1    6    6    0  503 -0.86354312905E+02 -0.62583361282E+01 -0.25109769237E+03  0.26560550680E+03  0.00000000000E+00 0.  1.
<mgrwt>
<rscale>  0 0.53997193E+03</rscale>
<asrwt>0</asrwt>
<pdfrwt beam="1">  1        2 0.20399954E+00 0.53997193E+03</pdfrwt>
<pdfrwt beam="2">  1       -2 0.52676535E-01 0.53997193E+03</pdfrwt>
<totfact> 0.56646054E+01</totfact>
</mgrwt>
</event>
<event>
12    1  0.9321077E-008  0.4743582E+03  0.7818608E-02  0.1020697E+00
         -2   -1    0    0    0  501 -0.00000000000E+00  0.00000000000E+00  0.67158426838E+03  0.67158426838E+03  0.00000000000E+00 0.  1.
          2   -1    0    0  501    0  0.00000000000E+00 -0.00000000000E+00 -0.36454386080E+03  0.36454386080E+03  0.00000000000E+00 0. -1.
         23    2    1    2    0    0  0.27788232847E+03 -0.97719909377E+02  0.17477241339E+03  0.35465905090E+03  0.92031933276E+02 0.  0.
    5000000    2    1    2    0    0 -0.27788232847E+03  0.97719909377E+02  0.13226799419E+03  0.68146907828E+03  0.60011458339E+03 0.  0.
         23    2    4    4    0    0 -0.10373454431E+03 -0.23780949741E+03  0.96304550328E+02  0.29120352995E+03  0.90613005140E+02 0.  0.
         23    2    4    4    0    0 -0.17414778416E+03  0.33552940678E+03  0.35963443863E+02  0.39026554833E+03  0.90035522861E+02 0.  0.
          3    1    3    3  502    0  0.89525534517E+02 -0.76409538390E+02  0.83226815591E+02  0.14415249468E+03  0.00000000000E+00 0. -1.
         -3    1    3    3    0  502  0.18835679395E+03 -0.21310370986E+02  0.91545597799E+02  0.21050655623E+03  0.00000000000E+00 0.  1.
         15    1    5    5    0    0 -0.85795388910E+02 -0.20363144274E+03  0.11406369528E+03  0.24867709492E+03  0.17770000000E+01 0. -1.
        -15    1    5    5    0    0 -0.17939155403E+02 -0.34178054668E+02 -0.17759144953E+02  0.42526435024E+02  0.17770000000E+01 0.  1.
          1    1    6    6  503    0 -0.84669568020E+02  0.21988781447E+03  0.57318973009E+02  0.24249752859E+03  0.00000000000E+00 0. -1.
         -1    1    6    6    0  503 -0.89478216135E+02  0.11564159231E+03 -0.21355529146E+02  0.14776801974E+03  0.00000000000E+00 0.  1.
<mgrwt>
<rscale>  0 0.47435815E+03</rscale>
<asrwt>0</asrwt>
<pdfrwt beam="1">  1        2 0.56083671E-01 0.47435815E+03</pdfrwt>
<pdfrwt beam="2">  1       -2 0.10332066E+00 0.47435815E+03</pdfrwt>
<totfact> 0.69440791E+01</totfact>
</mgrwt>
</event>
<event>
12    1  0.9321077E-008  0.6153977E+03  0.7818608E-02  0.9873966E-01
         -2   -1    0    0    0  501 -0.00000000000E+00  0.00000000000E+00  0.84234904922E+03  0.84234904922E+03  0.00000000000E+00 0.  1.
          2   -1    0    0  501    0  0.00000000000E+00 -0.00000000000E+00 -0.12470759175E+04  0.12470759175E+04  0.00000000000E+00 0. -1.
         23    2    1    2    0    0 -0.39591019479E+03 -0.32015600465E+03 -0.98440910986E+03  0.11120362885E+04  0.91206698229E+02 0.  0.
    5000000    2    1    2    0    0  0.39591019479E+03  0.32015600465E+03  0.57968224156E+03  0.97738867820E+03  0.60001031444E+03 0.  0.
         23    2    4    4    0    0 -0.11405436075E+03  0.49745862654E+02  0.28172280719E+03  0.32131620561E+03  0.91615041556E+02 0.  0.
         23    2    4    4    0    0  0.50996455554E+03  0.27041014199E+03  0.29795943437E+03  0.65607247258E+03  0.92009629700E+02 0.  0.
          2    1    3    3  502    0 -0.19577999990E+03 -0.16969574550E+03 -0.59652842891E+03  0.65036345292E+03  0.00000000000E+00 0. -1.
         -2    1    3    3    0  502 -0.20013019490E+03 -0.15046025915E+03 -0.38788068095E+03  0.46167283561E+03  0.00000000000E+00 0.  1.
         15    1    5    5    0    0 -0.10080581634E+03  0.63820626481E+02  0.27660097304E+03  0.30124100151E+03  0.17770000000E+01 0. -1.
        -15    1    5    5    0    0 -0.13248544409E+02 -0.14074763827E+02  0.51218341494E+01  0.20075204103E+02  0.17770000000E+01 0.  1.
          1    1    6    6  503    0  0.17046574592E+03  0.13353294517E+03  0.85338817307E+02  0.23274950422E+03  0.00000000000E+00 0. -1.
         -1    1    6    6    0  503  0.33949880962E+03  0.13687719682E+03  0.21262061706E+03  0.42332296836E+03  0.00000000000E+00 0.  1.
<mgrwt>
<rscale>  0 0.61539772E+03</rscale>
<asrwt>0</asrwt>
<pdfrwt beam="1">  1        2 0.19185783E+00 0.61539772E+03</pdfrwt>
<pdfrwt beam="2">  1       -2 0.12959216E+00 0.61539772E+03</pdfrwt>
<totfact> 0.80947748E+00</totfact>
</mgrwt>
</event>
<event>
12    1  0.9321077E-008  0.8590094E+03  0.7818608E-02  0.9478324E-01
          1   -1    0    0  501    0  0.00000000000E+00  0.00000000000E+00  0.15515505513E+04  0.15515505513E+04  0.00000000000E+00 0. -1.
         -1   -1    0    0    0  501 -0.00000000000E+00 -0.00000000000E+00 -0.71567968779E+03  0.71567968779E+03  0.00000000000E+00 0.  1.
         23    2    1    2    0    0  0.63951463723E+03 -0.42908647105E+03  0.10123774638E+04  0.12752329576E+04  0.90646545639E+02 0.  0.
    5000000    2    1    2    0    0 -0.63951463723E+03  0.42908647105E+03 -0.17650660030E+03  0.99199728141E+03  0.59984152532E+03 0.  0.
         23    2    4    4    0    0 -0.71650947804E+03  0.32736441589E+03 -0.23251472301E+03  0.82661798374E+03  0.93171356680E+02 0.  0.
         23    2    4    4    0    0  0.76994840808E+02  0.10172205516E+03  0.56008122715E+02  0.16537929767E+03  0.89094445794E+02 0.  0.
          2    1    3    3  502    0  0.52693784006E+02 -0.69449249696E+02  0.11570417904E+03  0.14486990786E+03  0.00000000000E+00 0. -1.
         -2    1    3    3    0  502  0.58682085322E+03 -0.35963722135E+03  0.89667328474E+03  0.11303630498E+04  0.00000000000E+00 0.  1.
         15    1    5    5    0    0 -0.50405719627E+03  0.27400749752E+03 -0.15556933170E+03  0.59443985440E+03  0.17770000000E+01 0.  1.
        -15    1    5    5    0    0 -0.21245228177E+03  0.53356918374E+02 -0.76945391315E+02  0.23217812933E+03  0.17770000000E+01 0. -1.
          2    1    6    6  503    0  0.25239437455E+02 -0.96293717822E+01  0.29038409026E+02  0.39660852269E+02  0.00000000000E+00 0. -1.
         -2    1    6    6    0  503  0.51755403354E+02  0.11135142694E+03  0.26969713689E+02  0.12571844540E+03  0.00000000000E+00 0.  1.
<mgrwt>
<rscale>  0 0.85900937E+03</rscale>
<asrwt>0</asrwt>
<pdfrwt beam="1">  1        1 0.23870008E+00 0.85900937E+03</pdfrwt>
<pdfrwt beam="2">  1       -1 0.11010457E+00 0.85900937E+03</pdfrwt>
<totfact> 0.47040889E+00</totfact>
</mgrwt>
</event>
<event>
12    1  0.9321077E-008  0.1474988E+04  0.7818608E-02  0.8901258E-01
         -2   -1    0    0    0  501 -0.00000000000E+00  0.00000000000E+00  0.53958959258E+03  0.53958959258E+03  0.00000000000E+00 0.  1.
          2   -1    0    0  501    0  0.00000000000E+00 -0.00000000000E+00 -0.49019518165E+04  0.49019518165E+04  0.00000000000E+00 0. -1.
         23    2    1    2    0    0 -0.65548369750E+03 -0.13097582069E+04 -0.30536189533E+04  0.33878281367E+04  0.87551891062E+02 0.  0.
    5000000    2    1    2    0    0  0.65548369750E+03  0.13097582069E+04 -0.13087432706E+04  0.20537132723E+04  0.59983649308E+03 0.  0.
         23    2    4    4    0    0  0.38293708532E+03  0.95067541720E+03 -0.54859655637E+03  0.11660642300E+04  0.91230732653E+02 0.  0.
         23    2    4    4    0    0  0.27254661218E+03  0.35908278969E+03 -0.76014671418E+03  0.88764904233E+03  0.82919778170E+02 0.  0.
          2    1    3    3  502    0 -0.24682264858E+03 -0.56554261279E+03 -0.13517134088E+04  0.14858967011E+04  0.00000000000E+00 0. -1.
         -2    1    3    3    0  502 -0.40866104892E+03 -0.74421559410E+03 -0.17019055445E+04  0.19019314357E+04  0.00000000000E+00 0.  1.
         15    1    5    5    0    0  0.20224769711E+03  0.54895446500E+03 -0.26556499609E+03  0.64248195345E+03  0.17770000000E+01 0.  1.
        -15    1    5    5    0    0  0.18068938822E+03  0.40172095221E+03 -0.28303156027E+03  0.52358227653E+03  0.17770000000E+01 0. -1.
          4    1    6    6  503    0  0.76215893342E+02  0.16760701630E+03 -0.30534632931E+03  0.35656325544E+03  0.00000000000E+00 0. -1.
         -4    1    6    6    0  503  0.19633071883E+03  0.19147577339E+03 -0.45480038488E+03  0.53108578689E+03  0.00000000000E+00 0.  1.
<mgrwt>
<rscale>  0 0.14749877E+04</rscale>
<asrwt>0</asrwt>
<pdfrwt beam="1">  1        2 0.75414641E+00 0.14749877E+04</pdfrwt>
<pdfrwt beam="2">  1       -2 0.83013786E-01 0.14749877E+04</pdfrwt>
<totfact> 0.57582647E-02</totfact>
</mgrwt>
</event>
<event>
12    1  0.9321077E-008  0.6142471E+03  0.7818608E-02  0.9876281E-01
          1   -1    0    0  501    0  0.00000000000E+00  0.00000000000E+00  0.77371447939E+03  0.77371447939E+03  0.00000000000E+00 0. -1.
         -1   -1    0    0    0  501 -0.00000000000E+00 -0.00000000000E+00 -0.59874488996E+03  0.59874488996E+03  0.00000000000E+00 0.  1.
         23    2    1    2    0    0  0.43129339931E+03 -0.27711275300E+03  0.25393908617E+03  0.57927348073E+03  0.90924319206E+02 0.  0.
    5000000    2    1    2    0    0 -0.43129339931E+03  0.27711275300E+03 -0.78969496741E+02  0.79318588862E+03  0.60008515923E+03 0.  0.
         23    2    4    4    0    0 -0.51493032484E+03  0.27448031817E+03 -0.19682340880E+03  0.62205477792E+03  0.87863575959E+02 0.  0.
         23    2    4    4    0    0  0.83636925527E+02  0.26324348262E+01  0.11785391206E+03  0.17113111070E+03  0.91620125714E+02 0.  0.
          2    1    3    3  502    0  0.57796374221E+02 -0.58017797218E+02  0.73946937137E+02  0.11033872928E+03  0.00000000000E+00 0. -1.
         -2    1    3    3    0  502  0.37349702509E+03 -0.21909495578E+03  0.17999214903E+03  0.46893475145E+03  0.00000000000E+00 0.  1.
         15    1    5    5    0    0 -0.13832214750E+03  0.11896812292E+03 -0.53709693361E+02  0.19019547746E+03  0.17770000000E+01 0. -1.
        -15    1    5    5    0    0 -0.37660817735E+03  0.15551219526E+03 -0.14311371544E+03  0.43185930046E+03  0.17770000000E+01 0.  1.
          2    1    6    6  503    0  0.67973196251E+02 -0.39574732607E+02  0.68178013087E+02  0.10409013564E+03  0.00000000000E+00 0.  1.
         -2    1    6    6    0  503  0.15663729276E+02  0.42207167433E+02  0.49675898973E+02  0.67040975055E+02  0.00000000000E+00 0. -1.
<mgrwt>
<rscale>  0 0.61424712E+03</rscale>
<asrwt>0</asrwt>
<pdfrwt beam="1">  1        1 0.11903300E+00 0.61424712E+03</pdfrwt>
<pdfrwt beam="2">  1       -1 0.92114597E-01 0.61424712E+03</pdfrwt>
<totfact> 0.27890170E+01</totfact>
</mgrwt>
</event>
<event>
12    1  0.9321077E-008  0.8930944E+03  0.7818608E-02  0.9434255E-01
          1   -1    0    0  501    0  0.00000000000E+00  0.00000000000E+00  0.74651947205E+03  0.74651947205E+03  0.00000000000E+00 0. -1.
         -1   -1    0    0    0  501 -0.00000000000E+00 -0.00000000000E+00 -0.13185669968E+04  0.13185669968E+04  0.00000000000E+00 0.  1.
         23    2    1    2    0    0  0.52935214602E+03  0.60385300472E+03  0.15988063165E+03  0.82395696013E+03  0.92147218921E+02 0.  0.
    5000000    2    1    2    0    0 -0.52935214602E+03 -0.60385300472E+03 -0.73192815640E+03  0.12411295087E+04  0.59985955480E+03 0.  0.
         23    2    4    4    0    0 -0.60727068568E+03 -0.61626916069E+03 -0.57423727259E+03  0.10425659725E+04  0.92897781026E+02 0.  0.
         23    2    4    4    0    0  0.77918539665E+02  0.12416155971E+02 -0.15769088381E+03  0.19856353620E+03  0.91299525290E+02 0.  0.
          3    1    3    3  502    0  0.74675389856E+02  0.10521123499E+03  0.58149292912E+02  0.14151734199E+03  0.00000000000E+00 0. -1.
         -3    1    3    3    0  502  0.45467675616E+03  0.49864176973E+03  0.10173133874E+03  0.68243961813E+03  0.00000000000E+00 0.  1.
         15    1    5    5    0    0 -0.26160088903E+03 -0.24220821000E+03 -0.28807565944E+03  0.45835639564E+03  0.17770000000E+01 0.  1.
        -15    1    5    5    0    0 -0.34566979665E+03 -0.37406095070E+03 -0.28616161315E+03  0.58420957688E+03  0.17770000000E+01 0. -1.
          4    1    6    6  503    0  0.73539655585E+02  0.43288100450E+02 -0.89932394741E+02  0.12397490152E+03  0.00000000000E+00 0. -1.
         -4    1    6    6    0  503  0.43788840804E+01 -0.30871944478E+02 -0.67758489070E+02  0.74588634675E+02  0.00000000000E+00 0.  1.
<mgrwt>
<rscale>  0 0.89309443E+03</rscale>
<asrwt>0</asrwt>
<pdfrwt beam="1">  1        1 0.11484915E+00 0.89309443E+03</pdfrwt>
<pdfrwt beam="2">  1       -1 0.20285646E+00 0.89309443E+03</pdfrwt>
<totfact> 0.36108688E+00</totfact>
</mgrwt>
</event>
<event>
12    1  0.9321077E-008  0.8986996E+03  0.7818608E-02  0.9427208E-01
          2   -1    0    0  501    0  0.00000000000E+00  0.00000000000E+00  0.11450879779E+04  0.11450879779E+04  0.00000000000E+00 0. -1.
         -2   -1    0    0    0  501 -0.00000000000E+00 -0.00000000000E+00 -0.79302778795E+03  0.79302778795E+03  0.00000000000E+00 0.  1.
         23    2    1    2    0    0  0.83963810837E+03 -0.99372461210E+02  0.29443966936E+03  0.89985836288E+03  0.90461678572E+02 0.  0.
    5000000    2    1    2    0    0 -0.83963810837E+03  0.99372461210E+02  0.57620520592E+02  0.10382574030E+04  0.59982603424E+03 0.  0.
         23    2    4    4    0    0 -0.25362425268E+03 -0.15479622456E+03  0.20900661773E+03  0.37548405535E+03  0.94959869844E+02 0.  0.
         23    2    4    4    0    0 -0.58601385569E+03  0.25416868577E+03 -0.15138609714E+03  0.66277334762E+03  0.91306078762E+02 0.  0.
          1    1    3    3  502    0  0.33976759553E+03 -0.10896168221E+02  0.15366857459E+03  0.37306135724E+03  0.00000000000E+00 0. -1.
         -1    1    3    3    0  502  0.49987051284E+03 -0.88476292989E+02  0.14077109477E+03  0.52679700564E+03  0.00000000000E+00 0.  1.
         15    1    5    5    0    0 -0.14887194669E+02 -0.45958749778E+02  0.21045420726E+02  0.52724782681E+02  0.17770000000E+01 0. -1.
        -15    1    5    5    0    0 -0.23873705801E+03 -0.10883747479E+03  0.18796119701E+03  0.32275927267E+03  0.17770000000E+01 0.  1.
          3    1    6    6  503    0 -0.20020417367E+03  0.76222073467E+02 -0.94396530295E+02  0.23409874107E+03  0.00000000000E+00 0. -1.
         -3    1    6    6    0  503 -0.38580968202E+03  0.17794661231E+03 -0.56989566846E+02  0.42867460655E+03  0.00000000000E+00 0.  1.
<mgrwt>
<rscale>  0 0.89869958E+03</rscale>
<asrwt>0</asrwt>
<pdfrwt beam="1">  1        2 0.17616738E+00 0.89869958E+03</pdfrwt>
<pdfrwt beam="2">  1       -2 0.12200427E+00 0.89869958E+03</pdfrwt>
<totfact> 0.10438976E+01</totfact>
</mgrwt>
</event>
<event>
12    1  0.9467482E-008  0.9527591E+03  0.7818608E-02  0.9361931E-01
          2   -1    0    0  501    0  0.00000000000E+00  0.00000000000E+00  0.98096450936E+03  0.98096450936E+03  0.00000000000E+00 0. -1.
         -2   -1    0    0    0  501 -0.00000000000E+00 -0.00000000000E+00 -0.10248305572E+04  0.10248305572E+04  0.00000000000E+00 0.  1.
         23    2    1    2    0    0 -0.88334539330E+03 -0.21114483281E+03  0.48891594720E+02  0.91329499827E+03  0.82680962347E+02 0.  0.
    5000000    2    1    2    0    0  0.88334539330E+03  0.21114483281E+03 -0.92757642556E+02  0.10925000683E+04  0.60005932597E+03 0.  0.
         23    2    4    4    0    0  0.23896234741E+03  0.24811604781E+03 -0.23197011766E+03  0.42564689791E+03  0.93276843619E+02 0.  0.
         23    2    4    4    0    0  0.64438304590E+03 -0.36971215006E+02  0.13921247510E+03  0.66685317038E+03  0.93363038975E+02 0.  0.
          3    1    3    3  502    0 -0.43482659917E+03 -0.61671150185E+02  0.19425553967E+02  0.43960761397E+03  0.00000000000E+00 0. -1.
         -3    1    3    3    0  502 -0.44851879413E+03 -0.14947368262E+03  0.29466040753E+02  0.47368738430E+03  0.00000000000E+00 0.  1.
         15    1    5    5    0    0  0.11021645976E+03  0.11080710687E+03 -0.50685487211E+02  0.16431086172E+03  0.17770000000E+01 0.  1.
        -15    1    5    5    0    0  0.12874588764E+03  0.13730894094E+03 -0.18128463045E+03  0.26133603619E+03  0.17770000000E+01 0. -1.
          2    1    6    6  503    0  0.26231978359E+03  0.18484265027E+02  0.24524359086E+02  0.26411130438E+03  0.00000000000E+00 0. -1.
         -2    1    6    6    0  503  0.38206326231E+03 -0.55455480033E+02  0.11468811602E+03  0.40274186600E+03  0.00000000000E+00 0.  1.
<mgrwt>
<rscale>  0 0.95275912E+03</rscale>
<asrwt>0</asrwt>
<pdfrwt beam="1">  1        2 0.15091762E+00 0.95275912E+03</pdfrwt>
<pdfrwt beam="2">  1       -2 0.15766624E+00 0.95275912E+03</pdfrwt>
<totfact> 0.67644883E+00</totfact>
</mgrwt>
</event>
<event>
12    1  0.9321077E-008  0.5226129E+03  0.7818608E-02  0.1008040E+00
          2   -1    0    0  501    0  0.00000000000E+00  0.00000000000E+00  0.94185177997E+03  0.94185177997E+03  0.00000000000E+00 0. -1.
         -2   -1    0    0    0  501 -0.00000000000E+00 -0.00000000000E+00 -0.80124520909E+03  0.80124520909E+03  0.00000000000E+00 0.  1.
         23    2    1    2    0    0  0.40753181599E+03  0.13431349575E+03 -0.56973310257E+03  0.71913316215E+03  0.91838992587E+02 0.  0.
    5000000    2    1    2    0    0 -0.40753181599E+03 -0.13431349575E+03  0.71033967345E+03  0.10239638269E+04  0.59983095198E+03 0.  0.
         23    2    4    4    0    0 -0.38721486959E+03 -0.24928980737E+03  0.73741656747E+03  0.87322406710E+03  0.81586237064E+02 0.  0.
         23    2    4    4    0    0 -0.20316946394E+02  0.11497631162E+03 -0.27076894021E+02  0.15073975981E+03  0.91416554591E+02 0.  0.
          1    1    3    3  502    0  0.30699963949E+03  0.14125054403E+03 -0.43214289207E+03  0.54858725286E+03  0.00000000000E+00 0. -1.
         -1    1    3    3    0  502  0.10053217650E+03 -0.69370482790E+01 -0.13759021049E+03  0.17054590928E+03  0.00000000000E+00 0.  1.
         15    1    5    5    0    0 -0.37525587460E+03 -0.24996822956E+03  0.73250687389E+03  0.86015729098E+03  0.17770000000E+01 0. -1.
        -15    1    5    5    0    0 -0.11958994991E+02  0.67842218538E+00  0.49096935859E+01  0.13066776112E+02  0.17770000000E+01 0.  1.
          2    1    6    6  503    0 -0.35525338687E+02  0.12178011343E+03 -0.35965790041E+02  0.13185592049E+03  0.00000000000E+00 0.  1.
         -2    1    6    6    0  503  0.15208392293E+02 -0.68038018036E+01  0.88888960200E+01  0.18883839323E+02  0.00000000000E+00 0. -1.
<mgrwt>
<rscale>  0 0.52261292E+03</rscale>
<asrwt>0</asrwt>
<pdfrwt beam="1">  1        2 0.14490027E+00 0.52261292E+03</pdfrwt>
<pdfrwt beam="2">  1       -2 0.12326849E+00 0.52261292E+03</pdfrwt>
<totfact> 0.14294510E+01</totfact>
</mgrwt>
</event>
<event>
12    1  0.9321077E-008  0.7054733E+03  0.7818608E-02  0.9707918E-01
          2   -1    0    0  501    0  0.00000000000E+00  0.00000000000E+00  0.24777737350E+04  0.24777737350E+04  0.00000000000E+00 0. -1.
         -2   -1    0    0    0  501 -0.00000000000E+00 -0.00000000000E+00 -0.21835739960E+03  0.21835739960E+03  0.00000000000E+00 0.  1.
         23    2    1    2    0    0 -0.23561932454E+03 -0.55672409395E+03  0.80706638303E+03  0.10124588586E+04  0.90876899807E+02 0.  0.
    5000000    2    1    2    0    0  0.23561932454E+03  0.55672409395E+03  0.14523499524E+04  0.16836722760E+04  0.59997813780E+03 0.  0.
         23    2    4    4    0    0 -0.96703640403E+02 -0.52420730746E+02  0.15841487288E+03  0.21252591749E+03  0.89288669922E+02 0.  0.
         23    2    4    4    0    0  0.33232296494E+03  0.60914482470E+03  0.12939350795E+04  0.14711463585E+04  0.92236910466E+02 0.  0.
          1    1    3    3  502    0 -0.14963168639E+03 -0.39466597985E+03  0.62353289579E+03  0.75295693725E+03  0.00000000000E+00 0. -1.
         -1    1    3    3    0  502 -0.85987638151E+02 -0.16205811410E+03  0.18353348725E+03  0.25950192139E+03  0.00000000000E+00 0.  1.
         15    1    5    5    0    0 -0.34018862514E+02 -0.26796587362E+02  0.13347857418E+03  0.14033897390E+03  0.17770000000E+01 0. -1.
        -15    1    5    5    0    0 -0.62684777889E+02 -0.25624143384E+02  0.24936298699E+02  0.72186943590E+02  0.17770000000E+01 0.  1.
          3    1    6    6  503    0  0.18672850625E+03  0.36720682533E+03  0.85764696013E+03  0.95145504141E+03  0.00000000000E+00 0. -1.
         -3    1    6    6    0  503  0.14559445869E+03  0.24193799937E+03  0.43628811940E+03  0.51969131709E+03  0.00000000000E+00 0.  1.
<mgrwt>
<rscale>  0 0.70547327E+03</rscale>
<asrwt>0</asrwt>
<pdfrwt beam="1">  1        2 0.38119594E+00 0.70547327E+03</pdfrwt>
<pdfrwt beam="2">  1       -2 0.33593448E-01 0.70547327E+03</pdfrwt>
<totfact> 0.31179154E+01</totfact>
</mgrwt>
</event>
<event>
12    1  0.9321077E-008  0.6754506E+03  0.7818608E-02  0.9760161E-01
          2   -1    0    0  501    0  0.00000000000E+00  0.00000000000E+00  0.13983667353E+04  0.13983667353E+04  0.00000000000E+00 0. -1.
         -2   -1    0    0    0  501 -0.00000000000E+00 -0.00000000000E+00 -0.36589710803E+03  0.36589710803E+03  0.00000000000E+00 0.  1.
         23    2    1    2    0    0 -0.57549399900E+03  0.98592555378E+02  0.37634706875E+03  0.70068709814E+03  0.91714003726E+02 0.  0.
    5000000    2    1    2    0    0  0.57549399900E+03 -0.98592555378E+02  0.65612255857E+03  0.10635767452E+04  0.59982067844E+03 0.  0.
         23    2    4    4    0    0  0.95627726026E+02 -0.23050780363E+03  0.45577354644E+02  0.27076091522E+03  0.94634393512E+02 0.  0.
         23    2    4    4    0    0  0.47986627298E+03  0.13191524826E+03  0.61054520392E+03  0.79281583001E+03  0.90101174342E+02 0.  0.
          1    1    3    3  502    0 -0.40678350538E+03  0.50829547223E+02  0.21739759775E+03  0.46402389877E+03  0.00000000000E+00 0. -1.
         -1    1    3    3    0  502 -0.16871049362E+03  0.47763008155E+02  0.15894947100E+03  0.23666319937E+03  0.00000000000E+00 0.  1.
         15    1    5    5    0    0  0.73325542604E+02 -0.60782143464E+02  0.88284475338E+01  0.95667148892E+02  0.17770000000E+01 0. -1.
        -15    1    5    5    0    0  0.22302183422E+02 -0.16972566017E+03  0.36748907110E+02  0.17509376633E+03  0.17770000000E+01 0.  1.
          3    1    6    6  503    0  0.40566258367E+03  0.96722546618E+02  0.45695911517E+03  0.61865096440E+03  0.00000000000E+00 0. -1.
         -3    1    6    6    0  503  0.74203689311E+02  0.35192701639E+02  0.15358608875E+03  0.17416486561E+03  0.00000000000E+00 0.  1.
<mgrwt>
<rscale>  0 0.67545057E+03</rscale>
<asrwt>0</asrwt>
<pdfrwt beam="1">  1        2 0.21513334E+00 0.67545057E+03</pdfrwt>
<pdfrwt beam="2">  1       -2 0.56291864E-01 0.67545057E+03</pdfrwt>
<totfact> 0.44202091E+01</totfact>
</mgrwt>
</event>
<event>
12    1  0.9321077E-008  0.5133586E+03  0.7818608E-02  0.1010350E+00
         -1   -1    0    0    0  501 -0.00000000000E+00  0.00000000000E+00  0.81427270379E+03  0.81427270379E+03  0.00000000000E+00 0.  1.
          1   -1    0    0  501    0  0.00000000000E+00 -0.00000000000E+00 -0.79051192357E+03  0.79051192357E+03  0.00000000000E+00 0. -1.
         23    2    1    2    0    0 -0.17180556366E+03  0.40128437723E+03  0.54078015016E+03  0.70047118539E+03  0.87580863417E+02 0.  0.
    5000000    2    1    2    0    0  0.17180556366E+03 -0.40128437723E+03 -0.51701936994E+03  0.90431344198E+03  0.59993955474E+03 0.  0.
         23    2    4    4    0    0 -0.10107503420E+03 -0.14580074913E+03 -0.47760149663E+03  0.51748176422E+03  0.90609964887E+02 0.  0.
         23    2    4    4    0    0  0.27288059786E+03 -0.25548362810E+03 -0.39417873317E+02  0.38683167776E+03  0.91374357817E+02 0.  0.
          3    1    3    3  502    0 -0.42917780764E+02  0.21143977005E+03  0.26119942825E+03  0.33878290037E+03  0.00000000000E+00 0. -1.
         -3    1    3    3    0  502 -0.12888778290E+03  0.18984460718E+03  0.27958072191E+03  0.36168828502E+03  0.00000000000E+00 0.  1.
         15    1    5    5    0    0 -0.94584481620E+02 -0.57892554858E+02 -0.27547200260E+03  0.29696086277E+03  0.17770000000E+01 0. -1.
        -15    1    5    5    0    0 -0.64905525780E+01 -0.87908194270E+02 -0.20212949403E+03  0.22052090145E+03  0.17770000000E+01 0.  1.
          4    1    6    6  503    0  0.18438193162E+03 -0.11794837060E+03 -0.43824291998E+02  0.22322428946E+03  0.00000000000E+00 0. -1.
         -4    1    6    6    0  503  0.88498666241E+02 -0.13753525750E+03  0.44064186809E+01  0.16360738830E+03  0.00000000000E+00 0.  1.
<mgrwt>
<rscale>  0 0.51335856E+03</rscale>
<asrwt>0</asrwt>
<pdfrwt beam="1">  1        1 0.12161722E+00 0.51335856E+03</pdfrwt>
<pdfrwt beam="2">  1       -1 0.12527272E+00 0.51335856E+03</pdfrwt>
<totfact> 0.13391819E+01</totfact>
</mgrwt>
</event>
<event>
12    1  0.9321077E-008  0.4560866E+03  0.7818608E-02  0.1025922E+00
          1   -1    0    0  501    0  0.00000000000E+00  0.00000000000E+00  0.12075461786E+04  0.12075461786E+04  0.00000000000E+00 0. -1.
         -1   -1    0    0    0  501 -0.00000000000E+00 -0.00000000000E+00 -0.28991895463E+03  0.28991895463E+03  0.00000000000E+00 0.  1.
         23    2    1    2    0    0 -0.39885864091E+03  0.13929415041E+03  0.21832566688E+03  0.48406276876E+03  0.90330457272E+02 0.  0.
    5000000    2    1    2    0    0  0.39885864091E+03 -0.13929415041E+03  0.69930155713E+03  0.10134023645E+04  0.59955867839E+03 0.  0.
         23    2    4    4    0    0  0.12810669842E+03 -0.14050386991E+03 -0.45433129430E+02  0.21581257076E+03  0.91423371224E+02 0.  0.
         23    2    4    4    0    0  0.27075194249E+03  0.12097195008E+01  0.74473468656E+03  0.79758979376E+03  0.90618143647E+02 0.  0.
          1    1    3    3  502    0 -0.64462608173E+02  0.12418926690E+02  0.72541112726E+02  0.97835937304E+02  0.00000000000E+00 0. -1.
         -1    1    3    3    0  502 -0.33439603274E+03  0.12687522372E+03  0.14578455416E+03  0.38622683146E+03  0.00000000000E+00 0.  1.
         15    1    5    5    0    0  0.79794800602E+02 -0.34262659527E+02  0.84192896573E+01  0.87265011364E+02  0.17770000000E+01 0. -1.
        -15    1    5    5    0    0  0.48311897818E+02 -0.10624121039E+03 -0.53852419088E+02  0.12854755939E+03  0.17770000000E+01 0.  1.
          3    1    6    6  503    0  0.23897031928E+03 -0.29876293910E+02  0.61667597376E+03  0.66203373256E+03  0.00000000000E+00 0. -1.
         -3    1    6    6    0  503  0.31781623214E+02  0.31086013411E+02  0.12805871280E+03  0.13555606120E+03  0.00000000000E+00 0.  1.
<mgrwt>
<rscale>  0 0.45608664E+03</rscale>
<asrwt>0</asrwt>
<pdfrwt beam="1">  1        1 0.18577633E+00 0.45608664E+03</pdfrwt>
<pdfrwt beam="2">  1       -1 0.44602917E-01 0.45608664E+03</pdfrwt>
<totfact> 0.55927831E+01</totfact>
</mgrwt>
</event>
<event>
12    1  0.9321077E-008  0.9509563E+03  0.7818608E-02  0.9364033E-01
         -1   -1    0    0    0  501 -0.00000000000E+00  0.00000000000E+00  0.15949802933E+04  0.15949802933E+04  0.00000000000E+00 0.  1.
          1   -1    0    0  501    0  0.00000000000E+00 -0.00000000000E+00 -0.60355391449E+03  0.60355391449E+03  0.00000000000E+00 0. -1.
         23    2    1    2    0    0  0.41422119078E+03 -0.78327162463E+03  0.40563418457E+03  0.97869711017E+03  0.90638341374E+02 0.  0.
    5000000    2    1    2    0    0 -0.41422119078E+03  0.78327162463E+03  0.58579219419E+03  0.12198370976E+04  0.59979697984E+03 0.  0.
         23    2    4    4    0    0  0.86572470929E+02  0.82186848672E+02 -0.31610110365E+02  0.15566822097E+03  0.94783569911E+02 0.  0.
         23    2    4    4    0    0 -0.50079366171E+03  0.70108477595E+03  0.61740230456E+03  0.10641688766E+04  0.94634230565E+02 0.  0.
          1    1    3    3  502    0  0.19861581681E+03 -0.45359706104E+03  0.19683145095E+03  0.53286129204E+03  0.00000000000E+00 0. -1.
         -1    1    3    3    0  502  0.21560537397E+03 -0.32967456359E+03  0.20880273362E+03  0.44583581813E+03  0.00000000000E+00 0.  1.
         15    1    5    5    0    0  0.46796088500E+01 -0.18383529482E+02 -0.16274668109E+02  0.25057442931E+02  0.17770000000E+01 0. -1.
        -15    1    5    5    0    0  0.81892862079E+02  0.10057037815E+03 -0.15335442256E+02  0.13061077804E+03  0.17770000000E+01 0.  1.
          3    1    6    6  503    0 -0.18996595121E+03  0.32173140437E+03  0.22565926006E+03  0.43648626649E+03  0.00000000000E+00 0. -1.
         -3    1    6    6    0  503 -0.31082771050E+03  0.37935337158E+03  0.39174304450E+03  0.62768261013E+03  0.00000000000E+00 0.  1.
<mgrwt>
<rscale>  0 0.95095631E+03</rscale>
<asrwt>0</asrwt>
<pdfrwt beam="1">  1        1 0.92854449E-01 0.95095631E+03</pdfrwt>
<pdfrwt beam="2">  1       -1 0.24538158E+00 0.95095631E+03</pdfrwt>
<totfact> 0.25734081E+00</totfact>
</mgrwt>
</event>
<event>
12    1  0.9321077E-008  0.3488661E+03  0.7818608E-02  0.1063081E+00
         -2   -1    0    0    0  501 -0.00000000000E+00  0.00000000000E+00  0.25077988523E+03  0.25077988523E+03  0.00000000000E+00 0.  1.
          2   -1    0    0  501    0  0.00000000000E+00 -0.00000000000E+00 -0.10288371779E+04  0.10288371779E+04  0.00000000000E+00 0. -1.
         23    2    1    2    0    0  0.85575123051E+02 -0.29228786480E+03 -0.38828930678E+03  0.50203121611E+03  0.92257566579E+02 0.  0.
    5000000    2    1    2    0    0 -0.85575123051E+02  0.29228786480E+03 -0.38976798588E+03  0.77758584701E+03  0.59997114019E+03 0.  0.
         23    2    4    4    0    0 -0.12759284292E+03  0.26938853928E+03 -0.52303664339E+03  0.60880812308E+03  0.90718695677E+02 0.  0.
         23    2    4    4    0    0  0.42017719864E+02  0.22899325515E+02  0.13326865750E+03  0.16877772393E+03  0.91845071340E+02 0.  0.
          3    1    3    3  502    0  0.54576431157E+02 -0.10758564606E+03 -0.92851574451E+02  0.15223229931E+03  0.00000000000E+00 0. -1.
         -3    1    3    3    0  502  0.30998691894E+02 -0.18470221874E+03 -0.29543773233E+03  0.34979891680E+03  0.00000000000E+00 0.  1.
         15    1    5    5    0    0 -0.61800951826E+02  0.10344818193E+03 -0.29880910120E+03  0.32219702152E+03  0.17770000000E+01 0. -1.
        -15    1    5    5    0    0 -0.65791891089E+02  0.16594035735E+03 -0.22422754219E+03  0.28661110156E+03  0.17770000000E+01 0.  1.
          2    1    6    6  503    0  0.60380318167E+02 -0.13079561625E+01  0.44685061001E+02  0.75128212064E+02  0.00000000000E+00 0. -1.
         -2    1    6    6    0  503 -0.18362598303E+02  0.24207281678E+02  0.88583596504E+02  0.93649511864E+02  0.00000000000E+00 0.  1.
<mgrwt>
<rscale>  0 0.34886614E+03</rscale>
<asrwt>0</asrwt>
<pdfrwt beam="1">  1        2 0.15828264E+00 0.34886614E+03</pdfrwt>
<pdfrwt beam="2">  1       -2 0.38581521E-01 0.34886614E+03</pdfrwt>
<totfact> 0.16082180E+02</totfact>
</mgrwt>
</event>
<event>
12    1  0.9321077E-008  0.6041440E+03  0.7818608E-02  0.9896846E-01
         -2   -1    0    0    0  501 -0.00000000000E+00  0.00000000000E+00  0.12593477409E+03  0.12593477409E+03  0.00000000000E+00 0.  1.
          2   -1    0    0  501    0  0.00000000000E+00 -0.00000000000E+00 -0.41651112192E+04  0.41651112192E+04  0.00000000000E+00 0. -1.
         23    2    1    2    0    0 -0.29110848278E+03 -0.42253875769E+03 -0.78293012665E+03  0.94046837359E+03  0.90653339778E+02 0.  0.
    5000000    2    1    2    0    0  0.29110848278E+03  0.42253875769E+03 -0.32562463184E+04  0.33505776197E+04  0.59995595563E+03 0.  0.
         23    2    4    4    0    0  0.22809660862E+02 -0.86362398299E+02 -0.18729737763E+03  0.22690083229E+03  0.91787447721E+02 0.  0.
         23    2    4    4    0    0  0.26829882192E+03  0.50890115599E+03 -0.30689489408E+04  0.31236767874E+04  0.89131511848E+02 0.  0.
          4    1    3    3  502    0 -0.29690406094E+03 -0.40261871016E+03 -0.75441836735E+03  0.90520766687E+03  0.00000000000E+00 0. -1.
         -4    1    3    3    0  502  0.57955781612E+01 -0.19920047525E+02 -0.28511759305E+02  0.35260706718E+02  0.00000000000E+00 0.  1.
         15    1    5    5    0    0  0.48764467479E+01 -0.90887337541E+02 -0.18737627379E+03  0.20832021881E+03  0.17770000000E+01 0. -1.
        -15    1    5    5    0    0  0.17933214115E+02  0.45249392420E+01  0.78896160206E-01  0.18580613478E+02  0.17770000000E+01 0.  1.
          3    1    6    6  503    0  0.12990650469E+03  0.30198645712E+03 -0.19349306431E+04  0.19626584302E+04  0.00000000000E+00 0. -1.
         -3    1    6    6    0  503  0.13839231723E+03  0.20691469887E+03 -0.11340182977E+04  0.11610183572E+04  0.00000000000E+00 0.  1.
<mgrwt>
<rscale>  0 0.60414397E+03</rscale>
<asrwt>0</asrwt>
<pdfrwt beam="1">  1        2 0.64078632E+00 0.60414397E+03</pdfrwt>
<pdfrwt beam="2">  1       -2 0.19374581E-01 0.60414397E+03</pdfrwt>
<totfact> 0.64743437E+00</totfact>
</mgrwt>
</event>
<event>
12    1  0.9321077E-008  0.1378872E+04  0.7818608E-02  0.8969255E-01
          2   -1    0    0  501    0  0.00000000000E+00  0.00000000000E+00  0.17924567949E+04  0.17924567949E+04  0.00000000000E+00 0. -1.
         -2   -1    0    0    0  501 -0.00000000000E+00 -0.00000000000E+00 -0.11673329406E+04  0.11673329406E+04  0.00000000000E+00 0.  1.
         23    2    1    2    0    0  0.13318167521E+04 -0.33562755802E+03  0.46263535270E+03  0.14521535572E+04  0.91305887266E+02 0.  0.
    5000000    2    1    2    0    0 -0.13318167521E+04  0.33562755802E+03  0.16248850154E+03  0.15076361783E+04  0.60015215918E+03 0.  0.
         23    2    4    4    0    0 -0.95871623031E+03  0.26245749708E+03  0.36999083223E+03  0.10647055000E+04  0.93187112043E+02 0.  0.
         23    2    4    4    0    0 -0.37310052181E+03  0.73170060942E+02 -0.20750233069E+03  0.44293067830E+03  0.92587857414E+02 0.  0.
          3    1    3    3  502    0  0.56300219683E+03 -0.13678252413E+03  0.24259654864E+03  0.62811942969E+03  0.00000000000E+00 0. -1.
         -3    1    3    3    0  502  0.76881455529E+03 -0.19884503389E+03  0.22003880406E+03  0.82403412746E+03  0.00000000000E+00 0.  1.
         15    1    5    5    0    0 -0.65458780387E+03  0.17196312890E+03  0.29704193694E+03  0.73911675715E+03  0.17770000000E+01 0. -1.
        -15    1    5    5    0    0 -0.30412842645E+03  0.90494368178E+02  0.72948895285E+02  0.32558874289E+03  0.17770000000E+01 0.  1.
          2    1    6    6  503    0 -0.34140782861E+03  0.39151261958E+02 -0.19347687417E+03  0.39436712286E+03  0.00000000000E+00 0. -1.
         -2    1    6    6    0  503 -0.31692693201E+02  0.34018798984E+02 -0.14025456518E+02  0.48563555442E+02  0.00000000000E+00 0.  1.
<mgrwt>
<rscale>  0 0.13788722E+04</rscale>
<asrwt>0</asrwt>
<pdfrwt beam="1">  1        2 0.27576258E+00 0.13788722E+04</pdfrwt>
<pdfrwt beam="2">  1       -2 0.17958968E+00 0.13788722E+04</pdfrwt>
<totfact> 0.15149016E+00</totfact>
</mgrwt>
</event>
<event>
12    1  0.9321077E-008  0.6768623E+03  0.7818608E-02  0.9757640E-01
          2   -1    0    0  501    0  0.00000000000E+00  0.00000000000E+00  0.33230371632E+03  0.33230371632E+03  0.00000000000E+00 0. -1.
         -2   -1    0    0    0  501 -0.00000000000E+00 -0.00000000000E+00 -0.15860598656E+04  0.15860598656E+04  0.00000000000E+00 0.  1.
         23    2    1    2    0    0  0.54964939121E+03  0.11333720769E+03 -0.25010942151E+03  0.62132329644E+03  0.92347929417E+02 0.  0.
    5000000    2    1    2    0    0 -0.54964939121E+03 -0.11333720769E+03 -0.10036467277E+04  0.12970402854E+04  0.60003914210E+03 0.  0.
         23    2    4    4    0    0 -0.64361497927E+03 -0.14742325710E+03 -0.92108870877E+03  0.11368509526E+04  0.89731938632E+02 0.  0.
         23    2    4    4    0    0  0.93965588060E+02  0.34086049401E+02 -0.82558018976E+02  0.16018933281E+03  0.94092536079E+02 0.  0.
          4    1    3    3  502    0  0.53585626766E+02  0.35857201590E+02 -0.46671463625E+02  0.79595124340E+02  0.00000000000E+00 0.  1.
         -4    1    3    3    0  502  0.49606376445E+03  0.77480006105E+02 -0.20343795788E+03  0.54172817210E+03  0.00000000000E+00 0. -1.
         15    1    5    5    0    0 -0.91801560980E+02  0.91253318788E+01 -0.14317814576E+03  0.17033478046E+03  0.17770000000E+01 0. -1.
        -15    1    5    5    0    0 -0.55181341829E+03 -0.15654858897E+03 -0.77791056301E+03  0.96651617218E+03  0.17770000000E+01 0.  1.
          4    1    6    6  503    0  0.18128719350E+02  0.41323585774E+02 -0.69548180426E+02  0.82904997479E+02  0.00000000000E+00 0. -1.
         -4    1    6    6    0  503  0.75836868710E+02 -0.72375363730E+01 -0.13009838551E+02  0.77284335332E+02  0.00000000000E+00 0.  1.
<mgrwt>
<rscale>  0 0.67686235E+03</rscale>
<asrwt>0</asrwt>
<pdfrwt beam="1">  1        2 0.51123649E-01 0.67686235E+03</pdfrwt>
<pdfrwt beam="2">  1       -2 0.24400921E+00 0.67686235E+03</pdfrwt>
<totfact> 0.70948487E+00</totfact>
</mgrwt>
</event>
<event>
12    1  0.9321077E-008  0.9841950E+03  0.7818608E-02  0.9326051E-01
          1   -1    0    0  501    0  0.00000000000E+00  0.00000000000E+00  0.17546063251E+04  0.17546063251E+04  0.00000000000E+00 0. -1.
         -1   -1    0    0    0  501 -0.00000000000E+00 -0.00000000000E+00 -0.62708338100E+03  0.62708338100E+03  0.00000000000E+00 0.  1.
         23    2    1    2    0    0  0.49961423520E+03 -0.74522570300E+03  0.90878614453E+03  0.12802947064E+04  0.91030469456E+02 0.  0.
    5000000    2    1    2    0    0 -0.49961423520E+03  0.74522570300E+03  0.21873679952E+03  0.11013949996E+04  0.60020781847E+03 0.  0.
         23    2    4    4    0    0  0.10153167218E+02 -0.66228595426E+02  0.58288054129E+02  0.12582968495E+03  0.89142014239E+02 0.  0.
         23    2    4    4    0    0 -0.50976740242E+03  0.81145429842E+03  0.16044874539E+03  0.97556531470E+03  0.87538564897E+02 0.  0.
          3    1    3    3  502    0  0.14072384670E+03 -0.27944261699E+03  0.34349664161E+03  0.46463030467E+03  0.00000000000E+00 0. -1.
         -3    1    3    3    0  502  0.35889038850E+03 -0.46578308600E+03  0.56528950293E+03  0.81566440175E+03  0.00000000000E+00 0.  1.
         15    1    5    5    0    0  0.30017691558E+02 -0.77158130597E+02  0.61103584792E+02  0.10291377326E+03  0.17770000000E+01 0.  1.
        -15    1    5    5    0    0 -0.19864524340E+02  0.10929535171E+02 -0.28155306635E+01  0.22915911682E+02  0.17770000000E+01 0. -1.
          1    1    6    6  503    0 -0.12795646958E+03  0.14102487979E+03  0.41973921951E+02  0.19499406388E+03  0.00000000000E+00 0. -1.
         -1    1    6    6    0  503 -0.38181093284E+03  0.67042941863E+03  0.11847482344E+03  0.78057125081E+03  0.00000000000E+00 0.  1.
<mgrwt>
<rscale>  0 0.98419498E+03</rscale>
<asrwt>0</asrwt>
<pdfrwt beam="1">  1        1 0.26993943E+00 0.98419498E+03</pdfrwt>
<pdfrwt beam="2">  1       -1 0.96474367E-01 0.98419498E+03</pdfrwt>
<totfact> 0.45704472E+00</totfact>
</mgrwt>
</event>
<event>
12    1  0.9321077E-008  0.1487895E+04  0.7818608E-02  0.8892542E-01
         -1   -1    0    0    0  501 -0.00000000000E+00  0.00000000000E+00  0.17029589968E+04  0.17029589968E+04  0.00000000000E+00 0.  1.
          1   -1    0    0  501    0  0.00000000000E+00 -0.00000000000E+00 -0.13530030941E+04  0.13530030941E+04  0.00000000000E+00 0. -1.
         23    2    1    2    0    0 -0.13997164284E+04  0.30574818946E+03 -0.99473677124E+02  0.14389866524E+04  0.89997432861E+02 0.  0.
    5000000    2    1    2    0    0  0.13997164284E+04 -0.30574818946E+03  0.44942957985E+03  0.16169754385E+04  0.59994548607E+03 0.  0.
         23    2    4    4    0    0  0.75122252500E+03 -0.45058872476E+03  0.21599559361E+03  0.90690541340E+03  0.91966577841E+02 0.  0.
         23    2    4    4    0    0  0.64849390342E+03  0.14484053530E+03  0.23343398624E+03  0.71007002515E+03  0.90470388757E+02 0.  0.
          1    1    3    3  502    0 -0.58502646399E+03  0.11191829561E+03 -0.83030145639E+02  0.60139477346E+03  0.00000000000E+00 0. -1.
         -1    1    3    3    0  502 -0.81468996443E+03  0.19382989385E+03 -0.16443531485E+02  0.83759187892E+03  0.00000000000E+00 0.  1.
         15    1    5    5    0    0  0.52194756721E+03 -0.33066681157E+03  0.19211630797E+03  0.64705613103E+03  0.17770000000E+01 0. -1.
        -15    1    5    5    0    0  0.22927495779E+03 -0.11992191319E+03  0.23879285638E+02  0.25984928236E+03  0.17770000000E+01 0.  1.
          1    1    6    6  503    0  0.95670728213E+02  0.38567157421E+02  0.73205889774E+01  0.10341133831E+03  0.00000000000E+00 0. -1.
         -1    1    6    6    0  503  0.55282317520E+03  0.10627337788E+03  0.22611339726E+03  0.60665868683E+03  0.00000000000E+00 0.  1.
<mgrwt>
<rscale>  0 0.14878954E+04</rscale>
<asrwt>0</asrwt>
<pdfrwt beam="1">  1        1 0.20815432E+00 0.14878954E+04</pdfrwt>
<pdfrwt beam="2">  1       -1 0.26199369E+00 0.14878954E+04</pdfrwt>
<totfact> 0.45790852E-01</totfact>
</mgrwt>
</event>
<event>
12    1  0.9321077E-008  0.5618802E+03  0.7818608E-02  0.9987809E-01
          1   -1    0    0  501    0  0.00000000000E+00  0.00000000000E+00  0.12218366293E+04  0.12218366293E+04  0.00000000000E+00 0. -1.
         -1   -1    0    0    0  501 -0.00000000000E+00 -0.00000000000E+00 -0.46090459029E+03  0.46090459029E+03  0.00000000000E+00 0.  1.
         23    2    1    2    0    0 -0.58849625474E+02 -0.40607695680E+03 -0.21089342277E+03  0.46911815927E+03  0.85053150026E+02 0.  0.
    5000000    2    1    2    0    0  0.58849625474E+02  0.40607695680E+03  0.97182546181E+03  0.12136230603E+04  0.60006202270E+03 0.  0.
         23    2    4    4    0    0 -0.78745131280E+02  0.51454433408E+03  0.72713969353E+03  0.89934776519E+03  0.95590801905E+02 0.  0.
         23    2    4    4    0    0  0.13759475675E+03 -0.10846737728E+03  0.24468576828E+03  0.31427529515E+03  0.90555766904E+02 0.  0.
          2    1    3    3  502    0 -0.54241930328E+02 -0.38951153782E+03 -0.17731919571E+03  0.43139717462E+03  0.00000000000E+00 0. -1.
         -2    1    3    3    0  502 -0.46076951463E+01 -0.16565418980E+02 -0.33574227064E+02  0.37720984657E+02  0.00000000000E+00 0.  1.
         15    1    5    5    0    0 -0.41396773051E+01  0.12012408885E+02  0.65663749326E+00  0.12846158850E+02  0.17770000000E+01 0. -1.
        -15    1    5    5    0    0 -0.74605453975E+02  0.50253192520E+03  0.72648305604E+03  0.88650160634E+03  0.17770000000E+01 0.  1.
          4    1    6    6  503    0  0.27190005620E+01  0.11559436030E+02  0.23985271321E+01  0.12114720707E+02  0.00000000000E+00 0. -1.
         -4    1    6    6    0  503  0.13487575619E+03 -0.12002681331E+03  0.24228724115E+03  0.30216057444E+03  0.00000000000E+00 0.  1.
<mgrwt>
<rscale>  0 0.56188021E+03</rscale>
<asrwt>0</asrwt>
<pdfrwt beam="1">  1        1 0.18797486E+00 0.56188021E+03</pdfrwt>
<pdfrwt beam="2">  1       -1 0.70908399E-01 0.56188021E+03</pdfrwt>
<totfact> 0.21923598E+01</totfact>
</mgrwt>
</event>
<event>
12    1  0.9321077E-008  0.1015302E+04  0.7818608E-02  0.9291919E-01
          2   -1    0    0  501    0  0.00000000000E+00  0.00000000000E+00  0.97499745768E+03  0.97499745768E+03  0.00000000000E+00 0. -1.
         -2   -1    0    0    0  501 -0.00000000000E+00 -0.00000000000E+00 -0.11489546917E+04  0.11489546917E+04  0.00000000000E+00 0.  1.
         23    2    1    2    0    0  0.87937106330E+03 -0.35549989951E+03 -0.28922772227E+03  0.99566591645E+03  0.89578436759E+02 0.  0.
    5000000    2    1    2    0    0 -0.87937106330E+03  0.35549989951E+03  0.11527048824E+03  0.11282862329E+04  0.60005740764E+03 0.  0.
         23    2    4    4    0    0 -0.93172995540E+03  0.26514460214E+03  0.15561755641E+03  0.98528501329E+03  0.90262748255E+02 0.  0.
         23    2    4    4    0    0  0.52358892103E+02  0.90355297364E+02 -0.40347068169E+02  0.14300121965E+03  0.88971509859E+02 0.  0.
          4    1    3    3  502    0  0.52378596889E+03 -0.22620260133E+03 -0.13001407182E+03  0.58516922076E+03  0.00000000000E+00 0. -1.
         -4    1    3    3    0  502  0.35558509441E+03 -0.12929729818E+03 -0.15921365045E+03  0.41049669569E+03  0.00000000000E+00 0.  1.
         15    1    5    5    0    0 -0.86535097485E+03  0.22198230973E+03  0.13567220303E+03  0.90361416540E+03  0.17770000000E+01 0. -1.
        -15    1    5    5    0    0 -0.66378980553E+02  0.43162292415E+02  0.19945353381E+02  0.81670847898E+02  0.17770000000E+01 0.  1.
          2    1    6    6  503    0  0.10980290849E+02  0.14615680842E+01 -0.43509846533E+02  0.44897769585E+02  0.00000000000E+00 0. -1.
         -2    1    6    6    0  503  0.41378601254E+02  0.88893729280E+02  0.31627783641E+01  0.98103450062E+02  0.00000000000E+00 0.  1.
<mgrwt>
<rscale>  0 0.10153022E+04</rscale>
<asrwt>0</asrwt>
<pdfrwt beam="1">  1        2 0.14999961E+00 0.10153022E+04</pdfrwt>
<pdfrwt beam="2">  1       -2 0.17676226E+00 0.10153022E+04</pdfrwt>
<totfact> 0.49419846E+00</totfact>
</mgrwt>
</event>
<event>
12    1  0.9321077E-008  0.5613771E+03  0.7818608E-02  0.9988944E-01
         -1   -1    0    0    0  501 -0.00000000000E+00  0.00000000000E+00  0.55128542597E+03  0.55128542597E+03  0.00000000000E+00 0.  1.
          1   -1    0    0  501    0  0.00000000000E+00 -0.00000000000E+00 -0.10633212711E+04  0.10633212711E+04  0.00000000000E+00 0. -1.
         23    2    1    2    0    0  0.20932522548E+03 -0.50673308912E+03 -0.57353978931E+03  0.79943891016E+03  0.97771199921E+02 0.  0.
    5000000    2    1    2    0    0 -0.20932522548E+03  0.50673308912E+03  0.61503944167E+02  0.81516778691E+03  0.60010025166E+03 0.  0.
         23    2    4    4    0    0 -0.86542882312E+02  0.19231792219E+03 -0.25511252976E+03  0.34349468177E+03  0.91816882408E+02 0.  0.
         23    2    4    4    0    0 -0.12278234317E+03  0.31441516693E+03  0.31661647392E+03  0.47167310514E+03  0.91088558902E+02 0.  0.
          2    1    3    3  502    0  0.64777688401E+02 -0.19694280170E+03 -0.28289801726E+03  0.35073338054E+03  0.00000000000E+00 0.  1.
         -2    1    3    3    0  502  0.14454753708E+03 -0.30979028742E+03 -0.29064177205E+03  0.44870552962E+03  0.00000000000E+00 0. -1.
         15    1    5    5    0    0 -0.95600185906E+02  0.10438454404E+03 -0.16009577812E+03  0.21370387100E+03  0.17770000000E+01 0.  1.
        -15    1    5    5    0    0  0.90573035948E+01  0.87933378146E+02 -0.95016751640E+02  0.12979081078E+03  0.17770000000E+01 0. -1.
          4    1    6    6  503    0 -0.83178430529E+01  0.10175642079E+03  0.13619602400E+03  0.17021431385E+03  0.00000000000E+00 0. -1.
         -4    1    6    6    0  503 -0.11446450012E+03  0.21265874614E+03  0.18042044992E+03  0.30145879129E+03  0.00000000000E+00 0.  1.
<mgrwt>
<rscale>  0 0.56137706E+03</rscale>
<asrwt>0</asrwt>
<pdfrwt beam="1">  1        1 0.16358789E+00 0.56137706E+03</pdfrwt>
<pdfrwt beam="2">  1       -1 0.84813142E-01 0.56137706E+03</pdfrwt>
<totfact> 0.19676871E+01</totfact>
</mgrwt>
</event>
<event>
12    1  0.9321077E-008  0.1207333E+04  0.7818608E-02  0.9106462E-01
          2   -1    0    0  501    0  0.00000000000E+00  0.00000000000E+00  0.13246494334E+04  0.13246494334E+04  0.00000000000E+00 0. -1.
         -2   -1    0    0    0  501 -0.00000000000E+00 -0.00000000000E+00 -0.11675306906E+04  0.11675306906E+04  0.00000000000E+00 0.  1.
         23    2    1    2    0    0 -0.95325137793E+03  0.64913202049E+03 -0.11925345916E+03  0.11630186897E+04  0.91271658095E+02 0.  0.
    5000000    2    1    2    0    0  0.95325137793E+03 -0.64913202049E+03  0.27637220192E+03  0.13291614342E+04  0.60018993220E+03 0.  0.
         23    2    4    4    0    0  0.63089184103E+03 -0.13057040767E+03 -0.75280983917E+01  0.65066062212E+03  0.90716186417E+02 0.  0.
         23    2    4    4    0    0  0.32235953691E+03 -0.51856161282E+03  0.28390030031E+03  0.67850081212E+03  0.83319590763E+02 0.  0.
          3    1    3    3  502    0 -0.52758104294E+03  0.38465967618E+03 -0.10771956442E+03  0.66174642266E+03  0.00000000000E+00 0. -1.
         -3    1    3    3    0  502 -0.42567033500E+03  0.26447234431E+03 -0.11533894744E+02  0.50127226707E+03  0.00000000000E+00 0.  1.
         15    1    5    5    0    0  0.49313707603E+03 -0.94672940160E+02  0.31220531614E+02  0.50311531549E+03  0.17770000000E+01 0. -1.
        -15    1    5    5    0    0  0.13775476499E+03 -0.35897467511E+02 -0.38748630006E+02  0.14754530663E+03  0.17770000000E+01 0.  1.
          4    1    6    6  503    0 -0.50142203073E+01 -0.51436643630E+01  0.50304265505E+01  0.87695427275E+01  0.00000000000E+00 0. -1.
         -4    1    6    6    0  503  0.32737375721E+03 -0.51341794846E+03  0.27886987376E+03  0.66973126939E+03  0.00000000000E+00 0.  1.
<mgrwt>
<rscale>  0 0.12073326E+04</rscale>
<asrwt>0</asrwt>
<pdfrwt beam="1">  1        2 0.20379222E+00 0.12073326E+04</pdfrwt>
<pdfrwt beam="2">  1       -2 0.17962011E+00 0.12073326E+04</pdfrwt>
<totfact> 0.28305886E+00</totfact>
</mgrwt>
</event>
<event>
12    1  0.9321077E-008  0.1350189E+04  0.7818608E-02  0.8990685E-01
         -2   -1    0    0    0  501 -0.00000000000E+00  0.00000000000E+00  0.12488433160E+04  0.12488433160E+04  0.00000000000E+00 0.  1.
          2   -1    0    0  501    0  0.00000000000E+00 -0.00000000000E+00 -0.18667116309E+04  0.18667116309E+04  0.00000000000E+00 0. -1.
         23    2    1    2    0    0  0.88280106444E+03 -0.95763156959E+03 -0.98491290405E+03  0.16353337803E+04  0.88697248555E+02 0.  0.
    5000000    2    1    2    0    0 -0.88280106444E+03  0.95763156959E+03  0.36704458920E+03  0.14802211666E+04  0.59994752202E+03 0.  0.
         23    2    4    4    0    0 -0.39710589479E+03  0.78594094134E+03  0.36415800548E+03  0.95756097050E+03  0.94423007354E+02 0.  0.
         23    2    4    4    0    0 -0.48569516965E+03  0.17169062825E+03  0.28865837272E+01  0.52266019612E+03  0.88248957992E+02 0.  0.
          1    1    3    3  502    0  0.43178984976E+03 -0.48451654094E+03 -0.43686790724E+03  0.78233772833E+03  0.00000000000E+00 0. -1.
         -1    1    3    3    0  502  0.45101121469E+03 -0.47311502865E+03 -0.54804499681E+03  0.85299605195E+03  0.00000000000E+00 0.  1.
         15    1    5    5    0    0 -0.30603854307E+02  0.54278266107E+02  0.53852966144E+02  0.82377337669E+02  0.17770000000E+01 0.  1.
        -15    1    5    5    0    0 -0.36650204048E+03  0.73166267523E+03  0.31030503933E+03  0.87518363283E+03  0.17770000000E+01 0. -1.
          2    1    6    6  503    0 -0.19483075167E+03  0.45842808456E+02  0.38241375467E+02  0.20377190111E+03  0.00000000000E+00 0.  1.
         -2    1    6    6    0  503 -0.29086441798E+03  0.12584781979E+03 -0.35354791740E+02  0.31888829501E+03  0.00000000000E+00 0. -1.
<mgrwt>
<rscale>  0 0.13501888E+04</rscale>
<asrwt>0</asrwt>
<pdfrwt beam="1">  1        2 0.28718640E+00 0.13501888E+04</pdfrwt>
<pdfrwt beam="2">  1       -2 0.19212974E+00 0.13501888E+04</pdfrwt>
<totfact> 0.11344844E+00</totfact>
</mgrwt>
</event>
<event>
12    1  0.9321077E-008  0.1519027E+04  0.7818608E-02  0.8871898E-01
          1   -1    0    0  501    0  0.00000000000E+00  0.00000000000E+00  0.26615780287E+04  0.26615780287E+04  0.00000000000E+00 0. -1.
         -1   -1    0    0    0  501 -0.00000000000E+00 -0.00000000000E+00 -0.10518450179E+04  0.10518450179E+04  0.00000000000E+00 0.  1.
         23    2    1    2    0    0 -0.10478534084E+04 -0.10242424763E+04  0.17718818095E+02  0.14680797262E+04  0.88739563801E+02 0.  0.
    5000000    2    1    2    0    0  0.10478534084E+04  0.10242424763E+04  0.15920141927E+04  0.22453433203E+04  0.59999001694E+03 0.  0.
         23    2    4    4    0    0  0.53525373698E+03  0.88905453542E+03  0.11220622927E+04  0.15310799996E+04  0.90926600426E+02 0.  0.
         23    2    4    4    0    0  0.51259967147E+03  0.13518794091E+03  0.46995189997E+03  0.71426332067E+03  0.91011540000E+02 0.  0.
          4    1    3    3  502    0 -0.36512706928E+03 -0.40216239078E+03 -0.21516746615E+02  0.54361322249E+03  0.00000000000E+00 0. -1.
         -4    1    3    3    0  502 -0.68272633916E+03 -0.62208008555E+03  0.39235564710E+02  0.92446650375E+03  0.00000000000E+00 0.  1.
         15    1    5    5    0    0  0.26307573468E+03  0.36209288431E+03  0.51662447963E+03  0.68353793584E+03  0.17770000000E+01 0.  1.
        -15    1    5    5    0    0  0.27217800230E+03  0.52696165110E+03  0.60543781308E+03  0.84754206379E+03  0.17770000000E+01 0. -1.
          3    1    6    6  503    0  0.45657833733E+02  0.58571489720E+01  0.80057260797E+02  0.92347761107E+02  0.00000000000E+00 0. -1.
         -3    1    6    6    0  503  0.46694183773E+03  0.12933079194E+03  0.38989463918E+03  0.62191555956E+03  0.00000000000E+00 0.  1.
<mgrwt>
<rscale>  0 0.15190267E+04</rscale>
<asrwt>0</asrwt>
<pdfrwt beam="1">  1        1 0.40947354E+00 0.15190267E+04</pdfrwt>
<pdfrwt beam="2">  1       -1 0.16182231E+00 0.15190267E+04</pdfrwt>
<totfact> 0.28004034E-01</totfact>
</mgrwt>
</event>
<event>
12    1  0.9321077E-008  0.1168521E+04  0.7818608E-02  0.9140865E-01
         -2   -1    0    0    0  501 -0.00000000000E+00  0.00000000000E+00  0.80160965986E+03  0.80160965986E+03  0.00000000000E+00 0.  1.
          2   -1    0    0  501    0  0.00000000000E+00 -0.00000000000E+00 -0.19187280198E+04  0.19187280198E+04  0.00000000000E+00 0. -1.
         23    2    1    2    0    0  0.11584610992E+04 -0.74840666198E+02 -0.64280882413E+03  0.13299753830E+04  0.89432048471E+02 0.  0.
    5000000    2    1    2    0    0 -0.11584610992E+04  0.74840666198E+02 -0.47430953582E+03  0.13903622967E+04  0.60042030006E+03 0.  0.
         23    2    4    4    0    0 -0.46172934637E+03 -0.35026340328E+02  0.92098364797E+02  0.48122170253E+03  0.93120268290E+02 0.  0.
         23    2    4    4    0    0 -0.69673175280E+03  0.10986700653E+03 -0.56640790061E+03  0.90914059418E+03  0.90624586203E+02 0.  0.
          2    1    3    3  502    0  0.35583656369E+03  0.58285156640E+01 -0.16342521510E+03  0.39161388201E+03  0.00000000000E+00 0.  1.
         -2    1    3    3    0  502  0.80262453548E+03 -0.80669181862E+02 -0.47938360903E+03  0.93836150095E+03  0.00000000000E+00 0. -1.
         15    1    5    5    0    0 -0.26625545071E+03 -0.31991818035E+02  0.77273847129E+01  0.26828774041E+03  0.17770000000E+01 0.  1.
        -15    1    5    5    0    0 -0.19547389566E+03 -0.30345222927E+01  0.84370980084E+02  0.21293396211E+03  0.17770000000E+01 0. -1.
          2    1    6    6  503    0 -0.52295048772E+03  0.43395344955E+02 -0.40582846486E+03  0.66336800606E+03  0.00000000000E+00 0. -1.
         -2    1    6    6    0  503 -0.17378126508E+03  0.66471661571E+02 -0.16057943576E+03  0.24577258812E+03  0.00000000000E+00 0.  1.
<mgrwt>
<rscale>  0 0.11685213E+04</rscale>
<asrwt>0</asrwt>
<pdfrwt beam="1">  1        2 0.29518892E+00 0.11685213E+04</pdfrwt>
<pdfrwt beam="2">  1       -2 0.12332456E+00 0.11685213E+04</pdfrwt>
<totfact> 0.35988667E+00</totfact>
</mgrwt>
</event>
<event>
12    1  0.9321077E-008  0.7144581E+03  0.7818608E-02  0.9692821E-01
         -1   -1    0    0    0  501 -0.00000000000E+00  0.00000000000E+00  0.23802689013E+03  0.23802689013E+03  0.00000000000E+00 0.  1.
          1   -1    0    0  501    0  0.00000000000E+00 -0.00000000000E+00 -0.24160453959E+04  0.24160453959E+04  0.00000000000E+00 0. -1.
         23    2    1    2    0    0  0.45571580679E+03  0.37945500521E+03 -0.52259150063E+03  0.79613581325E+03  0.95222681507E+02 0.  0.
    5000000    2    1    2    0    0 -0.45571580679E+03 -0.37945500521E+03 -0.16554270052E+04  0.18579364728E+04  0.59985529086E+03 0.  0.
         23    2    4    4    0    0 -0.32068877208E+03 -0.52491409565E+03 -0.12994229632E+04  0.14405133765E+04  0.90568505595E+02 0.  0.
         23    2    4    4    0    0 -0.13502703471E+03  0.14545909044E+03 -0.35600404200E+03  0.41742309633E+03  0.90069508381E+02 0.  0.
          3    1    3    3  502    0  0.27268784261E+03  0.24263255784E+03 -0.26060194246E+03  0.44848923070E+03  0.00000000000E+00 0. -1.
         -3    1    3    3    0  502  0.18302796418E+03  0.13682244737E+03 -0.26198955817E+03  0.34764658256E+03  0.00000000000E+00 0.  1.
         15    1    5    5    0    0 -0.28682259513E+03 -0.43200310685E+03 -0.10228371533E+04  0.11467749933E+04  0.17770000000E+01 0. -1.
        -15    1    5    5    0    0 -0.33866176958E+02 -0.92910988806E+02 -0.27658580990E+03  0.29373838317E+03  0.17770000000E+01 0.  1.
          3    1    6    6  503    0  0.13484532757E+02  0.15946185856E+02 -0.35690023417E+02  0.41350831171E+02  0.00000000000E+00 0. -1.
         -3    1    6    6    0  503 -0.14851156746E+03  0.12951290459E+03 -0.32031401858E+03  0.37607226516E+03  0.00000000000E+00 0.  1.
<mgrwt>
<rscale>  0 0.71445809E+03</rscale>
<asrwt>0</asrwt>
<pdfrwt beam="1">  1        1 0.37169931E+00 0.71445809E+03</pdfrwt>
<pdfrwt beam="2">  1       -1 0.36619520E-01 0.71445809E+03</pdfrwt>
<totfact> 0.11709098E+01</totfact>
</mgrwt>
</event>
<event>
12    1  0.9321077E-008  0.1209094E+04  0.7818608E-02  0.9104934E-01
          2   -1    0    0  501    0  0.00000000000E+00  0.00000000000E+00  0.23935841344E+04  0.23935841344E+04  0.00000000000E+00 0. -1.
         -2   -1    0    0    0  501 -0.00000000000E+00 -0.00000000000E+00 -0.62639178698E+03  0.62639178698E+03  0.00000000000E+00 0.  1.
         23    2    1    2    0    0  0.89121559594E+03  0.71679769244E+03  0.96885144583E+03  0.15016115620E+04  0.89999937254E+02 0.  0.
    5000000    2    1    2    0    0 -0.89121559594E+03 -0.71679769244E+03  0.79834090163E+03  0.15183643594E+04  0.60001496854E+03 0.  0.
         23    2    4    4    0    0 -0.64796683024E+03 -0.77168218654E+03  0.71825972395E+03  0.12412237174E+04  0.96875566349E+02 0.  0.
         23    2    4    4    0    0 -0.24324876569E+03  0.54884494099E+02  0.80081177680E+02  0.27714064209E+03  0.90618269528E+02 0.  0.
          1    1    3    3  502    0  0.58855113372E+03  0.49099187634E+03  0.70057882141E+03  0.10384007630E+04  0.00000000000E+00 0. -1.
         -1    1    3    3    0  502  0.30266446222E+03  0.22580581610E+03  0.26827262442E+03  0.46321079898E+03  0.00000000000E+00 0.  1.
         15    1    5    5    0    0 -0.50187387306E+03 -0.54338708588E+03  0.55560589502E+03  0.92512052072E+03  0.17770000000E+01 0.  1.
        -15    1    5    5    0    0 -0.14609295719E+03 -0.22829510065E+03  0.16265382893E+03  0.31610319663E+03  0.17770000000E+01 0. -1.
          2    1    6    6  503    0 -0.11038317576E+03  0.68335684533E+02  0.22715145924E+02  0.13179601331E+03  0.00000000000E+00 0. -1.
         -2    1    6    6    0  503 -0.13286558994E+03 -0.13451190434E+02  0.57366031756E+02  0.14534462877E+03  0.00000000000E+00 0.  1.
<mgrwt>
<rscale>  0 0.12090939E+04</rscale>
<asrwt>0</asrwt>
<pdfrwt beam="1">  1        2 0.36824371E+00 0.12090939E+04</pdfrwt>
<pdfrwt beam="2">  1       -2 0.96367968E-01 0.12090939E+04</pdfrwt>
<totfact> 0.35474866E+00</totfact>
</mgrwt>
</event>
<event>
12    1  0.9321077E-008  0.4235750E+03  0.7818608E-02  0.1035909E+00
         -1   -1    0    0    0  501 -0.00000000000E+00  0.00000000000E+00  0.38188173647E+03  0.38188173647E+03  0.00000000000E+00 0.  1.
          1   -1    0    0  501    0  0.00000000000E+00 -0.00000000000E+00 -0.88905335498E+03  0.88905335498E+03  0.00000000000E+00 0. -1.
         23    2    1    2    0    0  0.41673969646E+03  0.42536024680E+02 -0.13010368262E+03  0.44783069303E+03  0.90244519978E+02 0.  0.
    5000000    2    1    2    0    0 -0.41673969646E+03 -0.42536024680E+02 -0.37706793588E+03  0.82310439842E+03  0.59986609708E+03 0.  0.
         23    2    4    4    0    0 -0.21071767613E+03 -0.43879959746E+02 -0.51018517143E+03  0.56120214312E+03  0.91277304936E+02 0.  0.
         23    2    4    4    0    0 -0.20602202033E+03  0.13439350657E+01  0.13311723554E+03  0.26190225530E+03  0.91791687584E+02 0.  0.
          2    1    3    3  502    0  0.37486330026E+03  0.36003418959E+02 -0.14407028267E+03  0.40320588588E+03  0.00000000000E+00 0. -1.
         -2    1    3    3    0  502  0.41876396200E+02  0.65326057217E+01  0.13966600050E+02  0.44624807150E+02  0.00000000000E+00 0.  1.
         15    1    5    5    0    0 -0.13379629715E+03 -0.11923195733E+02 -0.20694163822E+03  0.24672172804E+03  0.17770000000E+01 0. -1.
        -15    1    5    5    0    0 -0.76921378986E+02 -0.31956764013E+02 -0.30324353320E+03  0.31448041508E+03  0.17770000000E+01 0.  1.
          1    1    6    6  503    0 -0.40838157369E+02  0.17751358005E+02 -0.64945755614E+01  0.45000503553E+02  0.00000000000E+00 0. -1.
         -1    1    6    6    0  503 -0.16518386296E+03 -0.16407422940E+02  0.13961181111E+03  0.21690175174E+03  0.00000000000E+00 0.  1.
<mgrwt>
<rscale>  0 0.42357497E+03</rscale>
<asrwt>0</asrwt>
<pdfrwt beam="1">  1        1 0.13677744E+00 0.42357497E+03</pdfrwt>
<pdfrwt beam="2">  1       -1 0.58751037E-01 0.42357497E+03</pdfrwt>
<totfact> 0.58048578E+01</totfact>
</mgrwt>
</event>
<event>
12    1  0.9321077E-008  0.1520336E+04  0.7818608E-02  0.8871041E-01
         -2   -1    0    0    0  501 -0.00000000000E+00  0.00000000000E+00  0.21845601895E+04  0.21845601895E+04  0.00000000000E+00 0.  1.
          2   -1    0    0  501    0  0.00000000000E+00 -0.00000000000E+00 -0.12368837020E+04  0.12368837020E+04  0.00000000000E+00 0. -1.
         23    2    1    2    0    0 -0.41641083283E+03 -0.14291404641E+04 -0.11572672654E+03  0.14959622002E+04  0.93111660812E+02 0.  0.
    5000000    2    1    2    0    0  0.41641083283E+03  0.14291404641E+04  0.10634032140E+04  0.19254816914E+04  0.60067703488E+03 0.  0.
         23    2    4    4    0    0  0.47645553618E+02  0.89091681374E+03  0.37343132092E+03  0.97162379065E+03  0.92730638537E+02 0.  0.
         23    2    4    4    0    0  0.36876527922E+03  0.53822365037E+03  0.68997189312E+03  0.95385790070E+03  0.90061936811E+02 0.  0.
          2    1    3    3  502    0 -0.28299584864E+03 -0.82155142396E+03 -0.48562541744E+02  0.87028254781E+03  0.00000000000E+00 0.  1.
         -2    1    3    3    0  502 -0.13341498420E+03 -0.60758904015E+03 -0.67164184792E+02  0.62567965241E+03  0.00000000000E+00 0. -1.
         15    1    5    5    0    0  0.26073507509E+02  0.83665232527E+03  0.33451564464E+03  0.90142709933E+03  0.17770000000E+01 0. -1.
        -15    1    5    5    0    0  0.21572046109E+02  0.54264488474E+02  0.38915676282E+02  0.70196691319E+02  0.17770000000E+01 0.  1.
          4    1    6    6  503    0  0.26626724055E+03  0.34873974829E+03  0.51310320620E+03  0.67512410388E+03  0.00000000000E+00 0. -1.
         -4    1    6    6    0  503  0.10249803867E+03  0.18948390208E+03  0.17686868692E+03  0.27873379682E+03  0.00000000000E+00 0.  1.
<mgrwt>
<rscale>  0 0.15203358E+04</rscale>
<asrwt>0</asrwt>
<pdfrwt beam="1">  1        2 0.19028980E+00 0.15203358E+04</pdfrwt>
<pdfrwt beam="2">  1       -2 0.33608618E+00 0.15203358E+04</pdfrwt>
<totfact> 0.32297522E-01</totfact>
</mgrwt>
</event>
<event>
12    1  0.1080938E-007  0.2230537E+04  0.7818608E-02  0.8505824E-01
          1   -1    0    0  501    0  0.00000000000E+00  0.00000000000E+00  0.24724515053E+04  0.24724515053E+04  0.00000000000E+00 0. -1.
         -1   -1    0    0    0  501 -0.00000000000E+00 -0.00000000000E+00 -0.20495864428E+04  0.20495864428E+04  0.00000000000E+00 0.  1.
         23    2    1    2    0    0  0.55008105639E+03  0.21377177010E+04  0.32089733859E+03  0.22322706607E+04  0.87355955287E+02 0.  0.
    5000000    2    1    2    0    0 -0.55008105639E+03 -0.21377177010E+04  0.10196772395E+03  0.22897672874E+04  0.60017553752E+03 0.  0.
         23    2    4    4    0    0 -0.37640017289E+03 -0.63575186762E+03  0.20213266496E+03  0.77176094642E+03  0.94338840592E+02 0.  0.
         23    2    4    4    0    0 -0.17368088350E+03 -0.15019658334E+04 -0.10016494101E+03  0.15180063410E+04  0.90795494523E+02 0.  0.
          3    1    3    3  502    0  0.23693679234E+03  0.98177823825E+03  0.18803659119E+03  0.10273194792E+04  0.00000000000E+00 0.  1.
         -3    1    3    3    0  502  0.31314426405E+03  0.11559394628E+04  0.13286074740E+03  0.12049511815E+04  0.00000000000E+00 0. -1.
         15    1    5    5    0    0 -0.30322835442E+03 -0.50744627593E+03  0.12160841158E+03  0.60352375378E+03  0.17770000000E+01 0. -1.
        -15    1    5    5    0    0 -0.73171818467E+02 -0.12830559169E+03  0.80524253379E+02  0.16823719264E+03  0.17770000000E+01 0.  1.
          1    1    6    6  503    0 -0.17144510794E+03 -0.11532484189E+04 -0.82343687010E+02  0.11688266867E+04  0.00000000000E+00 0. -1.
         -1    1    6    6    0  503 -0.22357755561E+01 -0.34871741452E+03 -0.17821254005E+02  0.34917965430E+03  0.00000000000E+00 0.  1.
<mgrwt>
<rscale>  0 0.22305374E+04</rscale>
<asrwt>0</asrwt>
<pdfrwt beam="1">  1        1 0.38037715E+00 0.22305374E+04</pdfrwt>
<pdfrwt beam="2">  1       -1 0.31532099E+00 0.22305374E+04</pdfrwt>
<totfact> 0.32227372E-02</totfact>
</mgrwt>
</event>
<event>
12    1  0.9321077E-008  0.4077645E+03  0.7818608E-02  0.1041124E+00
         -2   -1    0    0    0  501 -0.00000000000E+00  0.00000000000E+00  0.12824239595E+03  0.12824239595E+03  0.00000000000E+00 0.  1.
          2   -1    0    0  501    0  0.00000000000E+00 -0.00000000000E+00 -0.15078302376E+04  0.15078302376E+04  0.00000000000E+00 0. -1.
         23    2    1    2    0    0 -0.17222072201E+03  0.14020695789E+03 -0.41519500191E+03  0.47896882736E+03  0.87785419262E+02 0.  0.
    5000000    2    1    2    0    0  0.17222072201E+03 -0.14020695789E+03 -0.96439283977E+03  0.11571038062E+04  0.59959794935E+03 0.  0.
         23    2    4    4    0    0  0.33320603651E+03 -0.19183183880E+03 -0.40702810752E+03  0.56732138157E+03  0.91410899438E+02 0.  0.
         23    2    4    4    0    0 -0.16098531449E+03  0.51624880917E+02 -0.55736473225E+03  0.58978242466E+03  0.92771029248E+02 0.  0.
          3    1    3    3  502    0 -0.10905847734E+03  0.34079200850E+02 -0.17731900391E+03  0.21094352931E+03  0.00000000000E+00 0. -1.
         -3    1    3    3    0  502 -0.63162244668E+02  0.10612775704E+03 -0.23787599801E+03  0.26802529805E+03  0.00000000000E+00 0.  1.
         15    1    5    5    0    0  0.12226206988E+03 -0.11865562850E+03 -0.20110937087E+03  0.26358169262E+03  0.17770000000E+01 0. -1.
        -15    1    5    5    0    0  0.21094396663E+03 -0.73176210307E+02 -0.20591873665E+03  0.30373968895E+03  0.17770000000E+01 0.  1.
          2    1    6    6  503    0 -0.69270468270E+02 -0.14833173936E+02 -0.13454037454E+03  0.15205108748E+03  0.00000000000E+00 0. -1.
         -2    1    6    6    0  503 -0.91714846224E+02  0.66458054853E+02 -0.42282435771E+03  0.43773133718E+03  0.00000000000E+00 0.  1.
<mgrwt>
<rscale>  0 0.40776454E+03</rscale>
<asrwt>0</asrwt>
<pdfrwt beam="1">  1        2 0.23197390E+00 0.40776454E+03</pdfrwt>
<pdfrwt beam="2">  1       -2 0.19729598E-01 0.40776454E+03</pdfrwt>
<totfact> 0.28702247E+02</totfact>
</mgrwt>
</event>
<event>
12    1  0.9321077E-008  0.1141936E+04  0.7818608E-02  0.9165255E-01
          1   -1    0    0  501    0  0.00000000000E+00  0.00000000000E+00  0.16609800954E+04  0.16609800954E+04  0.00000000000E+00 0. -1.
         -1   -1    0    0    0  501 -0.00000000000E+00 -0.00000000000E+00 -0.97605627571E+03  0.97605627571E+03  0.00000000000E+00 0.  1.
         23    2    1    2    0    0 -0.93637462543E+03  0.62263682906E+03  0.76010752568E+03  0.13604294353E+04  0.92361993600E+02 0.  0.
    5000000    2    1    2    0    0  0.93637462543E+03 -0.62263682906E+03 -0.75183705989E+02  0.12766069358E+04  0.59966542238E+03 0.  0.
         23    2    4    4    0    0  0.15654560707E+03 -0.48267845647E+02 -0.22412604638E+03  0.29239824112E+03  0.91803783862E+02 0.  0.
         23    2    4    4    0    0  0.77982901836E+03 -0.57436898341E+03  0.14894234039E+03  0.98420869466E+03  0.91923375148E+02 0.  0.
          3    1    3    3  502    0 -0.51309961151E+03  0.39492044223E+03  0.42523734853E+03  0.77463550758E+03  0.00000000000E+00 0. -1.
         -3    1    3    3    0  502 -0.42327501392E+03  0.22771638683E+03  0.33487017715E+03  0.58579392775E+03  0.00000000000E+00 0.  1.
         15    1    5    5    0    0  0.12682917021E+03  0.40995917579E+01 -0.16300699794E+03  0.20658384297E+03  0.17770000000E+01 0.  1.
        -15    1    5    5    0    0  0.29716436856E+02 -0.52367437405E+02 -0.61119048444E+02  0.85814398159E+02  0.17770000000E+01 0. -1.
          1    1    6    6  503    0  0.43140025669E+03 -0.32550619160E+03  0.12877722983E+03  0.55555741122E+03  0.00000000000E+00 0. -1.
         -1    1    6    6    0  503  0.34842876167E+03 -0.24886279182E+03  0.20165110563E+02  0.42865128344E+03  0.00000000000E+00 0.  1.
<mgrwt>
<rscale>  0 0.11419362E+04</rscale>
<asrwt>0</asrwt>
<pdfrwt beam="1">  1        1 0.25553540E+00 0.11419362E+04</pdfrwt>
<pdfrwt beam="2">  1       -1 0.15016250E+00 0.11419362E+04</pdfrwt>
<totfact> 0.17423351E+00</totfact>
</mgrwt>
</event>
<event>
12    1  0.9321077E-008  0.3827926E+03  0.7818608E-02  0.1049906E+00
          2   -1    0    0  501    0  0.00000000000E+00  0.00000000000E+00  0.61974821060E+03  0.61974821060E+03  0.00000000000E+00 0.  1.
         -2   -1    0    0    0  501 -0.00000000000E+00 -0.00000000000E+00 -0.38329576109E+03  0.38329576109E+03  0.00000000000E+00 0. -1.
         23    2    1    2    0    0 -0.27393012525E+03  0.48097433651E+02  0.16941489387E+03  0.33828236137E+03  0.91555846922E+02 0.  0.
    5000000    2    1    2    0    0  0.27393012525E+03 -0.48097433651E+02  0.67037555643E+02  0.66476161031E+03  0.60005240440E+03 0.  0.
         23    2    4    4    0    0 -0.10864927301E+01  0.13464822649E+03 -0.17962043944E+03  0.24224422911E+03  0.91035371751E+02 0.  0.
         23    2    4    4    0    0  0.27501661798E+03 -0.18274566014E+03  0.24665799508E+03  0.42251738120E+03  0.93008894260E+02 0.  0.
          2    1    3    3  502    0 -0.12247248565E+03  0.63405492192E+02  0.57876877571E+02  0.14956436453E+03  0.00000000000E+00 0. -1.
         -2    1    3    3    0  502 -0.15145763961E+03 -0.15308058541E+02  0.11153801630E+03  0.18871799684E+03  0.00000000000E+00 0.  1.
         15    1    5    5    0    0 -0.22057035971E+02  0.10513776046E+03 -0.17548416793E+03  0.20576275765E+03  0.17770000000E+01 0. -1.
        -15    1    5    5    0    0  0.20970543240E+02  0.29510466031E+02 -0.41362715053E+01  0.36481471463E+02  0.17770000000E+01 0.  1.
          3    1    6    6  503    0  0.20961449500E+03 -0.12221167987E+03  0.12863654344E+03  0.27462937119E+03  0.00000000000E+00 0. -1.
         -3    1    6    6    0  503  0.65402122983E+02 -0.60533980272E+02  0.11802145164E+03  0.14788801001E+03  0.00000000000E+00 0.  1.
<mgrwt>
<rscale>  0 0.38279260E+03</rscale>
<asrwt>0</asrwt>
<pdfrwt beam="1">  1        2 0.95345879E-01 0.38279260E+03</pdfrwt>
<pdfrwt beam="2">  1       -2 0.58968578E-01 0.38279260E+03</pdfrwt>
<totfact> 0.13293448E+02</totfact>
</mgrwt>
</event>
<event>
12    1  0.9321077E-008  0.1390004E+04  0.7818608E-02  0.8961086E-01
          2   -1    0    0  501    0  0.00000000000E+00  0.00000000000E+00  0.10597147302E+04  0.10597147302E+04  0.00000000000E+00 0. -1.
         -2   -1    0    0    0  501 -0.00000000000E+00 -0.00000000000E+00 -0.19528377757E+04  0.19528377757E+04  0.00000000000E+00 0.  1.
         23    2    1    2    0    0 -0.78051990358E+03 -0.10832972515E+04 -0.77003227467E+03  0.15436686065E+04  0.84963566888E+02 0.  0.
    5000000    2    1    2    0    0  0.78051990358E+03  0.10832972515E+04 -0.12309077077E+03  0.14688838993E+04  0.59977021997E+03 0.  0.
         23    2    4    4    0    0  0.80968459969E+03  0.73765784522E+03 -0.15004911054E+03  0.11093153332E+04  0.91310050991E+02 0.  0.
         23    2    4    4    0    0 -0.29164696108E+02  0.34563940632E+03  0.26958339771E+02  0.35956856608E+03  0.90805412442E+02 0.  0.
          2    1    3    3  502    0 -0.31448894661E+03 -0.48842944908E+03 -0.36844649341E+03  0.68790947281E+03  0.00000000000E+00 0. -1.
         -2    1    3    3    0  502 -0.46603095697E+03 -0.59486780247E+03 -0.40158578126E+03  0.85575913374E+03  0.00000000000E+00 0.  1.
         15    1    5    5    0    0  0.54793497517E+03  0.46744739626E+03 -0.13520135061E+03  0.73281810036E+03  0.17770000000E+01 0.  1.
        -15    1    5    5    0    0  0.26174962452E+03  0.27021044897E+03 -0.14847759927E+02  0.37649723289E+03  0.17770000000E+01 0. -1.
          3    1    6    6  503    0 -0.13251935404E+02  0.20528125594E+03 -0.28780079748E+02  0.20771206230E+03  0.00000000000E+00 0. -1.
         -3    1    6    6    0  503 -0.15912760704E+02  0.14035815038E+03  0.55738419519E+02  0.15185650378E+03  0.00000000000E+00 0.  1.
<mgrwt>
<rscale>  0 0.13900037E+04</rscale>
<asrwt>0</asrwt>
<pdfrwt beam="1">  1        2 0.16303304E+00 0.13900037E+04</pdfrwt>
<pdfrwt beam="2">  1       -2 0.30043658E+00 0.13900037E+04</pdfrwt>
<totfact> 0.69794969E-01</totfact>
</mgrwt>
</event>
<event>
12    1  0.9321077E-008  0.2009829E+04  0.7818608E-02  0.8602039E-01
         -2   -1    0    0    0  501 -0.00000000000E+00  0.00000000000E+00  0.20288914924E+04  0.20288914924E+04  0.00000000000E+00 0.  1.
          2   -1    0    0  501    0  0.00000000000E+00 -0.00000000000E+00 -0.21543077616E+04  0.21543077616E+04  0.00000000000E+00 0. -1.
         23    2    1    2    0    0  0.12128999915E+04  0.15541826132E+04 -0.61112047584E+03  0.20659236708E+04  0.89232242746E+02 0.  0.
    5000000    2    1    2    0    0 -0.12128999915E+04 -0.15541826132E+04  0.48570420662E+03  0.21172755832E+04  0.60028104611E+03 0.  0.
         23    2    4    4    0    0 -0.96990771876E+03 -0.82899572180E+03  0.19501786706E+03  0.12939460389E+04  0.91156423525E+02 0.  0.
         23    2    4    4    0    0 -0.24299227275E+03 -0.72518689140E+03  0.29068633956E+03  0.82332954426E+03  0.91824388746E+02 0.  0.
          3    1    3    3  502    0  0.41726409617E+03  0.60026703243E+03 -0.21061504928E+03  0.76078152919E+03  0.00000000000E+00 0. -1.
         -3    1    3    3    0  502  0.79563589535E+03  0.95391558077E+03 -0.40050542656E+03  0.13051421416E+04  0.00000000000E+00 0.  1.
         15    1    5    5    0    0 -0.72238504752E+03 -0.65682582167E+03  0.12416991649E+03  0.98421625814E+03  0.17770000000E+01 0.  1.
        -15    1    5    5    0    0 -0.24752267124E+03 -0.17216990013E+03  0.70847950566E+02  0.30972978080E+03  0.17770000000E+01 0. -1.
          1    1    6    6  503    0 -0.93301672956E+02 -0.39761157481E+03  0.18201589807E+03  0.44713527456E+03  0.00000000000E+00 0. -1.
         -1    1    6    6    0  503 -0.14969059980E+03 -0.32757531659E+03  0.10867044149E+03  0.37619426970E+03  0.00000000000E+00 0.  1.
<mgrwt>
<rscale>  0 0.20098289E+04</rscale>
<asrwt>0</asrwt>
<pdfrwt beam="1">  1        2 0.33143196E+00 0.20098289E+04</pdfrwt>
<pdfrwt beam="2">  1       -2 0.31213715E+00 0.20098289E+04</pdfrwt>
<totfact> 0.13022758E-01</totfact>
</mgrwt>
</event>
<event>
12    1  0.9321077E-008  0.4732461E+03  0.7818608E-02  0.1021008E+00
          2   -1    0    0  501    0  0.00000000000E+00  0.00000000000E+00  0.36323664235E+03  0.36323664235E+03  0.00000000000E+00 0. -1.
         -2   -1    0    0    0  501 -0.00000000000E+00 -0.00000000000E+00 -0.12729321884E+04  0.12729321884E+04  0.00000000000E+00 0.  1.
         23    2    1    2    0    0 -0.12478622533E+03 -0.43145375536E+03 -0.73563057506E+03  0.86665306235E+03  0.90615906290E+02 0.  0.
    5000000    2    1    2    0    0  0.12478622533E+03  0.43145375536E+03 -0.17406497098E+03  0.76951576839E+03  0.60010995545E+03 0.  0.
         23    2    4    4    0    0  0.12940909944E+03  0.32006082708E+03  0.17106234525E+03  0.39641772283E+03  0.93268627974E+02 0.  0.
         23    2    4    4    0    0 -0.46228741092E+01  0.11139292827E+03 -0.34512731624E+03  0.37309804555E+03  0.87518750844E+02 0.  0.
          2    1    3    3  502    0 -0.98591634500E+02 -0.32865099371E+03 -0.48131416544E+03  0.59109653350E+03  0.00000000000E+00 0. -1.
         -2    1    3    3    0  502 -0.26194590833E+02 -0.10280276165E+03 -0.25431640962E+03  0.27555652885E+03  0.00000000000E+00 0.  1.
         15    1    5    5    0    0 -0.62205935909E+00  0.10209574164E+03  0.66826477363E+02  0.12203631928E+03  0.17770000000E+01 0.  1.
        -15    1    5    5    0    0  0.13003115880E+03  0.21796508544E+03  0.10423586789E+03  0.27438140355E+03  0.17770000000E+01 0. -1.
          4    1    6    6  503    0  0.10270667242E+02  0.12240640178E+03 -0.29002356274E+03  0.31496425313E+03  0.00000000000E+00 0.  1.
         -4    1    6    6    0  503 -0.14893541352E+02 -0.11013473508E+02 -0.55103753495E+02  0.58133792427E+02  0.00000000000E+00 0. -1.
<mgrwt>
<rscale>  0 0.47324610E+03</rscale>
<asrwt>0</asrwt>
<pdfrwt beam="1">  1        2 0.55882559E-01 0.47324610E+03</pdfrwt>
<pdfrwt beam="2">  1       -2 0.19583573E+00 0.47324610E+03</pdfrwt>
<totfact> 0.13208893E+01</totfact>
</mgrwt>
</event>
<event>
12    1  0.9321077E-008  0.2722633E+03  0.7818608E-02  0.1099991E+00
          1   -1    0    0  501    0  0.00000000000E+00  0.00000000000E+00  0.22728233671E+03  0.22728233671E+03  0.00000000000E+00 0. -1.
         -1   -1    0    0    0  501 -0.00000000000E+00 -0.00000000000E+00 -0.10278074443E+04  0.10278074443E+04  0.00000000000E+00 0.  1.
         23    2    1    2    0    0  0.11383704185E+03 -0.23696149736E+03 -0.98316644792E+02  0.29485277482E+03  0.90345851299E+02 0.  0.
    5000000    2    1    2    0    0 -0.11383704185E+03  0.23696149736E+03 -0.70220846284E+03  0.96023700623E+03  0.59987395304E+03 0.  0.
         23    2    4    4    0    0 -0.54705256603E+02  0.15162993150E+03 -0.78092352971E+03  0.80150122764E+03  0.81107073810E+02 0.  0.
         23    2    4    4    0    0 -0.59131785249E+02  0.85331565856E+02  0.78715066877E+02  0.15873577859E+03  0.90680436112E+02 0.  0.
          3    1    3    3  502    0  0.37677807018E+02 -0.17718780320E+03 -0.65483081440E+02  0.19262182820E+03  0.00000000000E+00 0. -1.
         -3    1    3    3    0  502  0.76159234834E+02 -0.59773694157E+02 -0.32833563352E+02  0.10223094662E+03  0.00000000000E+00 0.  1.
         15    1    5    5    0    0 -0.56336214840E+02  0.14797140768E+03 -0.60053186702E+03  0.62105634819E+03  0.17770000000E+01 0.  1.
        -15    1    5    5    0    0  0.16309582369E+01  0.36585238244E+01 -0.18039166270E+03  0.18044487945E+03  0.17770000000E+01 0. -1.
          3    1    6    6  503    0 -0.86867561530E+01  0.11306740511E+02  0.66874627396E+02  0.68377758832E+02  0.00000000000E+00 0. -1.
         -3    1    6    6    0  503 -0.50445029096E+02  0.74024825345E+02  0.11840439481E+02  0.90358019760E+02  0.00000000000E+00 0.  1.
<mgrwt>
<rscale>  0 0.27226330E+03</rscale>
<asrwt>0</asrwt>
<pdfrwt beam="1">  1        1 0.34966514E-01 0.27226330E+03</pdfrwt>
<pdfrwt beam="2">  1       -1 0.15812422E+00 0.27226330E+03</pdfrwt>
<totfact> 0.41321016E+01</totfact>
</mgrwt>
</event>
<event>
12    1  0.9321077E-008  0.9168115E+03  0.7818608E-02  0.9404807E-01
         -1   -1    0    0    0  501 -0.00000000000E+00  0.00000000000E+00  0.44571034377E+03  0.44571034377E+03  0.00000000000E+00 0.  1.
          1   -1    0    0  501    0  0.00000000000E+00 -0.00000000000E+00 -0.21658708932E+04  0.21658708932E+04  0.00000000000E+00 0. -1.
         23    2    1    2    0    0  0.44299627151E+03  0.76939227766E+03 -0.73796363853E+03  0.11580002058E+04  0.90354696807E+02 0.  0.
    5000000    2    1    2    0    0 -0.44299627151E+03 -0.76939227766E+03 -0.98219691091E+03  0.14535810312E+04  0.59998072389E+03 0.  0.
         23    2    4    4    0    0 -0.48824491872E+02 -0.36944379125E+03 -0.86807805536E+02  0.39301877958E+03  0.89753106387E+02 0.  0.
         23    2    4    4    0    0 -0.39417177963E+03 -0.39994848642E+03 -0.89538910538E+03  0.10605622516E+04  0.87979860971E+02 0.  0.
          3    1    3    3  502    0  0.32290456848E+03  0.49263615107E+03 -0.45396412010E+03  0.74366737190E+03  0.00000000000E+00 0. -1.
         -3    1    3    3    0  502  0.12009170303E+03  0.27675612659E+03 -0.28399951843E+03  0.41433283386E+03  0.00000000000E+00 0.  1.
         15    1    5    5    0    0 -0.55220261045E+02 -0.12373728789E+03 -0.11759468786E+02  0.13602072078E+03  0.17770000000E+01 0. -1.
        -15    1    5    5    0    0  0.63957691729E+01 -0.24570650335E+03 -0.75048336750E+02  0.25699805881E+03  0.17770000000E+01 0.  1.
          1    1    6    6  503    0 -0.11444123250E+03 -0.12113881894E+03 -0.19514515755E+03  0.25661847491E+03  0.00000000000E+00 0. -1.
         -1    1    6    6    0  503 -0.27973054713E+03 -0.27880966748E+03 -0.70024394783E+03  0.80394377674E+03  0.00000000000E+00 0.  1.
<mgrwt>
<rscale>  0 0.91681149E+03</rscale>
<asrwt>0</asrwt>
<pdfrwt beam="1">  1        1 0.33321090E+00 0.91681149E+03</pdfrwt>
<pdfrwt beam="2">  1       -1 0.68570823E-01 0.91681149E+03</pdfrwt>
<totfact> 0.50719209E+00</totfact>
</mgrwt>
</event>
<event>
12    1  0.9321077E-008  0.7233921E+03  0.7818608E-02  0.9678044E-01
         -2   -1    0    0    0  501 -0.00000000000E+00  0.00000000000E+00  0.88613738507E+03  0.88613738507E+03  0.00000000000E+00 0.  1.
          2   -1    0    0  501    0  0.00000000000E+00 -0.00000000000E+00 -0.71555090200E+03  0.71555090200E+03  0.00000000000E+00 0. -1.
         23    2    1    2    0    0  0.52336204294E+03 -0.41077964800E+03  0.21642177549E+03  0.70450132683E+03  0.82680030163E+02 0.  0.
    5000000    2    1    2    0    0 -0.52336204294E+03  0.41077964800E+03 -0.45835292422E+02  0.89718696024E+03  0.60016316147E+03 0.  0.
         23    2    4    4    0    0 -0.21689931558E+03  0.40019315819E+03 -0.24088788264E+03  0.52301433123E+03  0.91198364594E+02 0.  0.
         23    2    4    4    0    0 -0.30646272736E+03  0.10586489812E+02  0.19505259022E+03  0.37417262901E+03  0.89040251152E+02 0.  0.
          4    1    3    3  502    0  0.37934100886E+03 -0.34214674589E+03  0.16122213069E+03  0.53568327597E+03  0.00000000000E+00 0. -1.
         -4    1    3    3    0  502  0.14402103408E+03 -0.68632902118E+02  0.55199644798E+02  0.16881805086E+03  0.00000000000E+00 0.  1.
         15    1    5    5    0    0 -0.68222190002E+02  0.56536505569E+02 -0.61115491983E+02  0.10765177546E+03  0.17770000000E+01 0. -1.
        -15    1    5    5    0    0 -0.14867712558E+03  0.34365665262E+03 -0.17977239066E+03  0.41536255577E+03  0.17770000000E+01 0.  1.
          3    1    6    6  503    0 -0.52524362873E+02 -0.22707199467E+02  0.66103490615E+02  0.87430527131E+02  0.00000000000E+00 0. -1.
         -3    1    6    6    0  503 -0.25393836449E+03  0.33293689279E+02  0.12894909960E+03  0.28674210188E+03  0.00000000000E+00 0.  1.
<mgrwt>
<rscale>  0 0.72339213E+03</rscale>
<asrwt>0</asrwt>
<pdfrwt beam="1">  1        2 0.11008475E+00 0.72339213E+03</pdfrwt>
<pdfrwt beam="2">  1       -2 0.13632883E+00 0.72339213E+03</pdfrwt>
<totfact> 0.15593925E+01</totfact>
</mgrwt>
</event>
<event>
12    1  0.9321077E-008  0.6842475E+03  0.7818608E-02  0.9744557E-01
         -2   -1    0    0    0  501 -0.00000000000E+00  0.00000000000E+00  0.38794743424E+03  0.38794743424E+03  0.00000000000E+00 0.  1.
          2   -1    0    0  501    0  0.00000000000E+00 -0.00000000000E+00 -0.38713394429E+04  0.38713394429E+04  0.00000000000E+00 0. -1.
         23    2    1    2    0    0  0.97496299823E+02 -0.55552971228E+03 -0.33816988154E+04  0.34296093234E+04  0.90633564911E+02 0.  0.
    5000000    2    1    2    0    0 -0.97496299823E+02  0.55552971228E+03 -0.10169319327E+03  0.82967755379E+03  0.59992045140E+03 0.  0.
         23    2    4    4    0    0 -0.21724226302E+03  0.61350383495E+03 -0.45119037081E+02  0.65873172443E+03  0.91162497351E+02 0.  0.
         23    2    4    4    0    0  0.11974596320E+03 -0.57974122672E+02 -0.56574156192E+02  0.17094582936E+03  0.91223608920E+02 0.  0.
          3    1    3    3  502    0  0.36845328415E+02 -0.25318482431E+03 -0.12701516925E+04  0.12956640982E+04  0.00000000000E+00 0. -1.
         -3    1    3    3    0  502  0.60650971408E+02 -0.30234488797E+03 -0.21115471229E+04  0.21339452251E+04  0.00000000000E+00 0.  1.
         15    1    5    5    0    0 -0.97414664329E+02  0.18900104462E+03 -0.46378590356E+02  0.21763534425E+03  0.17770000000E+01 0.  1.
        -15    1    5    5    0    0 -0.11982759869E+03  0.42450279033E+03  0.12595532747E+01  0.44109638018E+03  0.17770000000E+01 0. -1.
          1    1    6    6  503    0  0.83404190301E+02 -0.15370166197E+01 -0.61502061163E+02  0.10363939843E+03  0.00000000000E+00 0. -1.
         -1    1    6    6    0  503  0.36341772900E+02 -0.56437106052E+02  0.49279049708E+01  0.67306430929E+02  0.00000000000E+00 0.  1.
<mgrwt>
<rscale>  0 0.68424749E+03</rscale>
<asrwt>0</asrwt>
<pdfrwt beam="1">  1        2 0.59559069E+00 0.68424749E+03</pdfrwt>
<pdfrwt beam="2">  1       -2 0.59684220E-01 0.68424749E+03</pdfrwt>
<totfact> 0.12743766E+00</totfact>
</mgrwt>
</event>
<event>
12    1  0.9321077E-008  0.5101579E+03  0.7818608E-02  0.1011161E+00
         -1   -1    0    0    0  501 -0.00000000000E+00  0.00000000000E+00  0.56032060599E+03  0.56032060599E+03  0.00000000000E+00 0.  1.
          1   -1    0    0  501    0  0.00000000000E+00 -0.00000000000E+00 -0.50335975624E+03  0.50335975624E+03  0.00000000000E+00 0. -1.
         23    2    1    2    0    0  0.15133179556E+03  0.31924309076E+03 -0.65702733857E+01  0.36447481170E+03  0.89337878428E+02 0.  0.
    5000000    2    1    2    0    0 -0.15133179556E+03 -0.31924309076E+03  0.63531123141E+02  0.69920555054E+03  0.60002894509E+03 0.  0.
         23    2    4    4    0    0 -0.19639648208E+03 -0.46590856626E+03  0.14431277756E+02  0.51387788316E+03  0.90663370392E+02 0.  0.
         23    2    4    4    0    0  0.45064686522E+02  0.14666547550E+03  0.49099845385E+02  0.18532766738E+03  0.91618566913E+02 0.  0.
          2    1    3    3  502    0  0.10266607264E+03  0.25657534937E+03  0.28313870342E+02  0.27780012173E+03  0.00000000000E+00 0. -1.
         -2    1    3    3    0  502  0.48665722916E+02  0.62667741392E+02 -0.34884143727E+02  0.86674689972E+02  0.00000000000E+00 0.  1.
         15    1    5    5    0    0 -0.10012233700E+03 -0.16862808274E+03  0.40668412638E+02  0.20029226188E+03  0.17770000000E+01 0.  1.
        -15    1    5    5    0    0 -0.96274145082E+02 -0.29728048353E+03 -0.26237134882E+02  0.31358562128E+03  0.17770000000E+01 0. -1.
          3    1    6    6  503    0  0.40210744745E+02  0.83687658100E+02  0.72674400105E+02  0.11790715221E+03  0.00000000000E+00 0. -1.
         -3    1    6    6    0  503  0.48539417773E+01  0.62977817400E+02 -0.23574554720E+02  0.67420515168E+02  0.00000000000E+00 0.  1.
<mgrwt>
<rscale>  0 0.51015789E+03</rscale>
<asrwt>0</asrwt>
<pdfrwt beam="1">  1        1 0.77439962E-01 0.51015789E+03</pdfrwt>
<pdfrwt beam="2">  1       -1 0.86203170E-01 0.51015789E+03</pdfrwt>
<totfact> 0.60890976E+01</totfact>
</mgrwt>
</event>
<event>
12    1  0.9321077E-008  0.9226390E+03  0.7818608E-02  0.9397716E-01
          1   -1    0    0  501    0  0.00000000000E+00  0.00000000000E+00  0.30386510111E+04  0.30386510111E+04  0.00000000000E+00 0. -1.
         -1   -1    0    0    0  501 -0.00000000000E+00 -0.00000000000E+00 -0.32188978087E+03  0.32188978087E+03  0.00000000000E+00 0.  1.
         23    2    1    2    0    0 -0.83541472235E+03  0.55700671542E+01  0.17830306521E+04  0.19713458537E+04  0.95170292180E+02 0.  0.
    5000000    2    1    2    0    0  0.83541472235E+03 -0.55700671542E+01  0.93373057812E+03  0.13891949383E+04  0.60005083124E+03 0.  0.
         23    2    4    4    0    0 -0.56194473332E+02  0.66882051468E+02  0.15304526705E+03  0.19835595740E+03  0.91056051037E+02 0.  0.
         23    2    4    4    0    0  0.89160919569E+03 -0.72452118622E+02  0.78068531108E+03  0.11908389809E+04  0.91715081345E+02 0.  0.
          1    1    3    3  502    0 -0.68598926521E+03  0.19838374262E+02  0.13789302145E+04  0.15402673046E+04  0.00000000000E+00 0. -1.
         -1    1    3    3    0  502 -0.14942545714E+03 -0.14268307108E+02  0.40410043759E+03  0.43107854909E+03  0.00000000000E+00 0.  1.
         15    1    5    5    0    0 -0.53782768086E+02  0.76429455510E+01  0.30780144399E+02  0.62462595030E+02  0.17770000000E+01 0.  1.
        -15    1    5    5    0    0 -0.24117052462E+01  0.59239105917E+02  0.12226512265E+03  0.13589336237E+03  0.17770000000E+01 0. -1.
          2    1    6    6  503    0  0.28587324094E+03 -0.39607999770E+02  0.20038795136E+03  0.35135115566E+03  0.00000000000E+00 0.  1.
         -2    1    6    6    0  503  0.60573595474E+03 -0.32844118853E+02  0.58029735972E+03  0.83948782523E+03  0.00000000000E+00 0. -1.
<mgrwt>
<rscale>  0 0.92263898E+03</rscale>
<asrwt>0</asrwt>
<pdfrwt beam="1">  1        1 0.46748475E+00 0.92263898E+03</pdfrwt>
<pdfrwt beam="2">  1       -1 0.49521507E-01 0.92263898E+03</pdfrwt>
<totfact> 0.23834758E+00</totfact>
</mgrwt>
</event>
<event>
12    1  0.9321077E-008  0.7976653E+03  0.7818608E-02  0.9563403E-01
         -2   -1    0    0    0  501 -0.00000000000E+00  0.00000000000E+00  0.19897372033E+04  0.19897372033E+04  0.00000000000E+00 0.  1.
          2   -1    0    0  501    0  0.00000000000E+00 -0.00000000000E+00 -0.51712944929E+03  0.51712944929E+03  0.00000000000E+00 0. -1.
         23    2    1    2    0    0  0.77235336667E+03 -0.38254307907E+01  0.12981297356E+04  0.15132510186E+04  0.90793599219E+02 0.  0.
    5000000    2    1    2    0    0 -0.77235336667E+03  0.38254307907E+01  0.17447801832E+03  0.99361563399E+03  0.60023752990E+03 0.  0.
         23    2    4    4    0    0 -0.72859895969E+03  0.42586386206E+02 -0.58375999347E+02  0.73735811737E+03  0.87287980792E+02 0.  0.
         23    2    4    4    0    0 -0.43754406979E+02 -0.38760955415E+02  0.23285401767E+03  0.25625751662E+03  0.89610610346E+02 0.  0.
          2    1    3    3  502    0  0.22975100158E+03  0.60318658830E+01  0.31002177494E+03  0.38592150377E+03  0.00000000000E+00 0. -1.
         -2    1    3    3    0  502  0.54260236509E+03 -0.98572966736E+01  0.98810796070E+03  0.11273295148E+04  0.00000000000E+00 0.  1.
         15    1    5    5    0    0 -0.36742119718E+03 -0.20537570020E+02 -0.41217551481E+02  0.37030011099E+03  0.17770000000E+01 0. -1.
        -15    1    5    5    0    0 -0.36117776251E+03  0.63123956226E+02 -0.17158447866E+02  0.36705800638E+03  0.17770000000E+01 0.  1.
          2    1    6    6  503    0 -0.29610790150E+02 -0.57499256532E+02  0.86356204050E+02  0.10789048787E+03  0.00000000000E+00 0. -1.
         -2    1    6    6    0  503 -0.14143616829E+02  0.18738301118E+02  0.14649781362E+03  0.14836702875E+03  0.00000000000E+00 0.  1.
<mgrwt>
<rscale>  0 0.79766530E+03</rscale>
<asrwt>0</asrwt>
<pdfrwt beam="1">  1        2 0.79558378E-01 0.79766530E+03</pdfrwt>
<pdfrwt beam="2">  1       -2 0.30611341E+00 0.79766530E+03</pdfrwt>
<totfact> 0.17873705E+00</totfact>
</mgrwt>
</event>
<event>
12    1  0.9321077E-008  0.1170037E+04  0.7818608E-02  0.9139495E-01
          2   -1    0    0  501    0  0.00000000000E+00  0.00000000000E+00  0.12754139355E+04  0.12754139355E+04  0.00000000000E+00 0. -1.
         -2   -1    0    0    0  501 -0.00000000000E+00 -0.00000000000E+00 -0.11993921041E+04  0.11993921041E+04  0.00000000000E+00 0.  1.
         23    2    1    2    0    0 -0.38658102625E+03  0.10543729970E+04 -0.26419905774E+03  0.11569074467E+04  0.86523935842E+02 0.  0.
    5000000    2    1    2    0    0  0.38658102625E+03 -0.10543729970E+04  0.34022088912E+03  0.13178985929E+04  0.59996594992E+03 0.  0.
         23    2    4    4    0    0  0.37941122988E+03 -0.10639645848E+04  0.40691150655E+03  0.12042948005E+04  0.93677496985E+02 0.  0.
         23    2    4    4    0    0  0.71697963727E+01  0.95915877201E+01 -0.66690617430E+02  0.11360379238E+03  0.91185408128E+02 0.  0.
          3    1    3    3  502    0 -0.92374769168E+02  0.33797379744E+03 -0.54706359085E+02  0.35461552625E+03  0.00000000000E+00 0. -1.
         -3    1    3    3    0  502 -0.29420625708E+03  0.71639919960E+03 -0.20949269866E+03  0.80229192049E+03  0.00000000000E+00 0.  1.
         15    1    5    5    0    0  0.34935892160E+03 -0.10319476688E+04  0.38920970351E+03  0.11569161587E+04  0.17770000000E+01 0. -1.
        -15    1    5    5    0    0  0.30052308280E+02 -0.32016915928E+02  0.17701803043E+02  0.47378641796E+02  0.17770000000E+01 0.  1.
          3    1    6    6  503    0 -0.29951934832E+02  0.27445834252E+02 -0.59103014836E+02  0.71718606935E+02  0.00000000000E+00 0. -1.
         -3    1    6    6    0  503  0.37121731205E+02 -0.17854246532E+02 -0.75876025937E+01  0.41885185447E+02  0.00000000000E+00 0.  1.
<mgrwt>
<rscale>  0 0.11700375E+04</rscale>
<asrwt>0</asrwt>
<pdfrwt beam="1">  1        2 0.19621753E+00 0.11700375E+04</pdfrwt>
<pdfrwt beam="2">  1       -2 0.18452186E+00 0.11700375E+04</pdfrwt>
<totfact> 0.28090874E+00</totfact>
</mgrwt>
</event>
<event>
12    1  0.9321077E-008  0.5078769E+03  0.7818608E-02  0.1011743E+00
         -2   -1    0    0    0  501 -0.00000000000E+00  0.00000000000E+00  0.24909141497E+03  0.24909141497E+03  0.00000000000E+00 0.  1.
          2   -1    0    0  501    0  0.00000000000E+00 -0.00000000000E+00 -0.12423791779E+04  0.12423791779E+04  0.00000000000E+00 0. -1.
         23    2    1    2    0    0 -0.31608504555E+03  0.16650442109E+03 -0.15427873472E+03  0.39989475033E+03  0.92089114983E+02 0.  0.
    5000000    2    1    2    0    0  0.31608504555E+03 -0.16650442109E+03 -0.83900902819E+03  0.10915758425E+04  0.59997349301E+03 0.  0.
         23    2    4    4    0    0 -0.94009077926E+02  0.12010126004E+03 -0.13743672945E+03  0.22510962614E+03  0.92322639614E+02 0.  0.
         23    2    4    4    0    0  0.41009412347E+03 -0.28660568113E+03 -0.70157229874E+03  0.86646621637E+03  0.90774485304E+02 0.  0.
          1    1    3    3  502    0 -0.17271986944E+03  0.60034525677E+02 -0.37896438079E+02  0.18674163325E+03  0.00000000000E+00 0. -1.
         -1    1    3    3    0  502 -0.14336517611E+03  0.10646989541E+03 -0.11638229664E+03  0.21315311708E+03  0.00000000000E+00 0.  1.
         15    1    5    5    0    0 -0.80968715895E+02  0.10156124534E+03 -0.15056462590E+03  0.19885543445E+03  0.17770000000E+01 0. -1.
        -15    1    5    5    0    0 -0.13040362032E+02  0.18540014709E+02  0.13127896455E+02  0.26254191697E+02  0.17770000000E+01 0.  1.
          1    1    6    6  503    0  0.25821438982E+03 -0.15838350121E+03 -0.49080129576E+03  0.57675464149E+03  0.00000000000E+00 0. -1.
         -1    1    6    6    0  503  0.15187973365E+03 -0.12822217992E+03 -0.21077100299E+03  0.28971157488E+03  0.00000000000E+00 0.  1.
<mgrwt>
<rscale>  0 0.50787687E+03</rscale>
<asrwt>0</asrwt>
<pdfrwt beam="1">  1        2 0.19113526E+00 0.50787687E+03</pdfrwt>
<pdfrwt beam="2">  1       -2 0.38321756E-01 0.50787687E+03</pdfrwt>
<totfact> 0.11932443E+02</totfact>
</mgrwt>
</event>
<event>
12    1  0.9321077E-008  0.4989944E+03  0.7818608E-02  0.1014042E+00
         -1   -1    0    0    0  501 -0.00000000000E+00  0.00000000000E+00  0.46604204029E+03  0.46604204029E+03  0.00000000000E+00 0.  1.
          1   -1    0    0  501    0  0.00000000000E+00 -0.00000000000E+00 -0.17526783424E+04  0.17526783424E+04  0.00000000000E+00 0. -1.
         23    2    1    2    0    0  0.32634729823E+03 -0.55215223906E+02 -0.14698140879E+04  0.15094276562E+04  0.92016933780E+02 0.  0.
    5000000    2    1    2    0    0 -0.32634729823E+03  0.55215223906E+02  0.18317778582E+03  0.70929272653E+03  0.59999232552E+03 0.  0.
         23    2    4    4    0    0 -0.16883343988E+03 -0.25752477668E+03  0.57699922679E+02  0.32621762400E+03  0.90911584001E+02 0.  0.
         23    2    4    4    0    0 -0.15751385835E+03  0.31274000058E+03  0.12547786314E+03  0.38307510253E+03  0.91569189712E+02 0.  0.
          1    1    3    3  502    0  0.38532719712E+02  0.20067354004E+01 -0.78084306025E+02  0.87097395614E+02  0.00000000000E+00 0. -1.
         -1    1    3    3    0  502  0.28781457852E+03 -0.57221959307E+02 -0.13917297819E+04  0.14223302605E+04  0.00000000000E+00 0.  1.
         15    1    5    5    0    0 -0.34861957826E+02 -0.52178711728E+02  0.51085916698E+02  0.80937646834E+02  0.17770000000E+01 0. -1.
        -15    1    5    5    0    0 -0.13397148205E+03 -0.20534606495E+03  0.66140059810E+01  0.24527997716E+03  0.17770000000E+01 0.  1.
          1    1    6    6  503    0 -0.51285619676E+01  0.77709760947E+02  0.46486789057E+01  0.78017429526E+02  0.00000000000E+00 0. -1.
         -1    1    6    6    0  503 -0.15238529638E+03  0.23503023964E+03  0.12082918423E+03  0.30505767301E+03  0.00000000000E+00 0.  1.
<mgrwt>
<rscale>  0 0.49899436E+03</rscale>
<asrwt>0</asrwt>
<pdfrwt beam="1">  1        1 0.26964282E+00 0.49899436E+03</pdfrwt>
<pdfrwt beam="2">  1       -1 0.71698776E-01 0.49899436E+03</pdfrwt>
<totfact> 0.94285776E+00</totfact>
</mgrwt>
</event>
<event>
12    1  0.9321077E-008  0.8449968E+03  0.7818608E-02  0.9497077E-01
         -1   -1    0    0    0  501 -0.00000000000E+00  0.00000000000E+00  0.16921490251E+04  0.16921490251E+04  0.00000000000E+00 0. -1.
          1   -1    0    0  501    0  0.00000000000E+00 -0.00000000000E+00 -0.76735607057E+03  0.76735607057E+03  0.00000000000E+00 0.  1.
         23    2    1    2    0    0 -0.59567432576E+02  0.74897617240E+03 -0.37343288698E+03  0.84398931008E+03  0.91390637376E+02 0.  0.
    5000000    2    1    2    0    0  0.59567432576E+02 -0.74897617240E+03  0.12982258416E+04  0.16155157856E+04  0.59998944334E+03 0.  0.
         23    2    4    4    0    0 -0.18867237640E+03 -0.70729543722E+02  0.20550578153E+03  0.30261768060E+03  0.93514172160E+02 0.  0.
         23    2    4    4    0    0  0.24823980898E+03 -0.67824662868E+03  0.10927200600E+04  0.13128981050E+04  0.89570154500E+02 0.  0.
          1    1    3    3  502    0  0.77827162915E+01  0.19655845300E+03 -0.13484534893E+03  0.23849332118E+03  0.00000000000E+00 0. -1.
         -1    1    3    3    0  502 -0.67350148868E+02  0.55241771940E+03 -0.23858753805E+03  0.60549598890E+03  0.00000000000E+00 0.  1.
         15    1    5    5    0    0  0.15188107307E+01  0.52479084906E+01  0.36865286510E+02  0.37310245350E+02  0.17770000000E+01 0. -1.
        -15    1    5    5    0    0 -0.19019118713E+03 -0.75977452212E+02  0.16864049502E+03  0.26530743525E+03  0.17770000000E+01 0.  1.
          2    1    6    6  503    0  0.39538597115E+02 -0.20817042822E+03  0.35895186990E+03  0.41682690982E+03  0.00000000000E+00 0. -1.
         -2    1    6    6    0  503  0.20870121186E+03 -0.47007620046E+03  0.73376819012E+03  0.89607119522E+03  0.00000000000E+00 0.  1.
<mgrwt>
<rscale>  0 0.84499676E+03</rscale>
<asrwt>0</asrwt>
<pdfrwt beam="1">  1        1 0.11805478E+00 0.84499676E+03</pdfrwt>
<pdfrwt beam="2">  1       -1 0.26033062E+00 0.84499676E+03</pdfrwt>
<totfact> 0.14563837E+00</totfact>
</mgrwt>
</event>
<event>
12    1  0.9321077E-008  0.3582230E+03  0.7818608E-02  0.1059290E+00
         -2   -1    0    0    0  501 -0.00000000000E+00  0.00000000000E+00  0.11046639788E+03  0.11046639788E+03  0.00000000000E+00 0.  1.
          2   -1    0    0  501    0  0.00000000000E+00 -0.00000000000E+00 -0.21492775934E+04  0.21492775934E+04  0.00000000000E+00 0. -1.
         23    2    1    2    0    0 -0.22390552878E+03  0.17309017689E+03 -0.83514817684E+03  0.88569595660E+03  0.83011776895E+02 0.  0.
    5000000    2    1    2    0    0  0.22390552878E+03 -0.17309017689E+03 -0.12036630187E+04  0.13740480347E+04  0.59925741038E+03 0.  0.
         23    2    4    4    0    0  0.55337314798E+00  0.61290144372E+02  0.14519048083E+02  0.11036611891E+03  0.90626096835E+02 0.  0.
         23    2    4    4    0    0  0.22335215563E+03 -0.23438032126E+03 -0.12181820668E+04  0.12636819158E+04  0.90022863831E+02 0.  0.
          4    1    3    3  502    0 -0.70309915050E+01  0.39689317251E+02 -0.11211637386E+03  0.11914175605E+03  0.00000000000E+00 0. -1.
         -4    1    3    3    0  502 -0.21687453728E+03  0.13340085964E+03 -0.72303180298E+03  0.76655420055E+03  0.00000000000E+00 0.  1.
         15    1    5    5    0    0  0.23845972582E+02  0.38272552600E+01  0.37142450573E+02  0.44339572109E+02  0.17770000000E+01 0. -1.
        -15    1    5    5    0    0 -0.23292599434E+02  0.57462889112E+02 -0.22623402490E+02  0.66026546803E+02  0.17770000000E+01 0.  1.
          1    1    6    6  503    0  0.50961623764E+02 -0.11441207098E+03 -0.41447205635E+03  0.43298301881E+03  0.00000000000E+00 0. -1.
         -1    1    6    6    0  503  0.17239053187E+03 -0.11996825028E+03 -0.80371001042E+03  0.83069889696E+03  0.00000000000E+00 0.  1.
<mgrwt>
<rscale>  0 0.35822299E+03</rscale>
<asrwt>0</asrwt>
<pdfrwt beam="1">  1        2 0.33065808E+00 0.35822299E+03</pdfrwt>
<pdfrwt beam="2">  1       -2 0.16994831E-01 0.35822299E+03</pdfrwt>
<totfact> 0.16945221E+02</totfact>
</mgrwt>
</event>
<event>
12    1  0.9321077E-008  0.2765747E+03  0.7818608E-02  0.1097575E+00
         -2   -1    0    0    0  501 -0.00000000000E+00  0.00000000000E+00  0.11814991112E+04  0.11814991112E+04  0.00000000000E+00 0.  1.
          2   -1    0    0  501    0  0.00000000000E+00 -0.00000000000E+00 -0.23081771213E+03  0.23081771213E+03  0.00000000000E+00 0. -1.
         23    2    1    2    0    0  0.72318322586E+02  0.13706470847E+03  0.73369263283E+03  0.75555146300E+03  0.92392963462E+02 0.  0.
    5000000    2    1    2    0    0 -0.72318322586E+02 -0.13706470847E+03  0.21698876629E+03  0.65676536038E+03  0.60019991653E+03 0.  0.
         23    2    4    4    0    0  0.30414082315E+02 -0.22822283954E+03 -0.12471455072E+03  0.27733372779E+03  0.91376126622E+02 0.  0.
         23    2    4    4    0    0 -0.10273240490E+03  0.91158131079E+02  0.34170331701E+03  0.37943163258E+03  0.91342515121E+02 0.  0.
          1    1    3    3  502    0 -0.13604439699E+02  0.10316147507E+02  0.23554819700E+02  0.29091806579E+02  0.00000000000E+00 0. -1.
         -1    1    3    3    0  502  0.85922762285E+02  0.12674856096E+03  0.71013781313E+03  0.72645965643E+03  0.00000000000E+00 0.  1.
         15    1    5    5    0    0 -0.24198886280E+02 -0.67887804516E+02 -0.66891347391E+02  0.98346073557E+02  0.17770000000E+01 0. -1.
        -15    1    5    5    0    0  0.54612968595E+02 -0.16033503503E+03 -0.57823203332E+02  0.17898765424E+03  0.17770000000E+01 0.  1.
          4    1    6    6  503    0 -0.37299778335E+02  0.55718987916E+02  0.26177495442E+03  0.27022584229E+03  0.00000000000E+00 0.  1.
         -4    1    6    6    0  503 -0.65432626566E+02  0.35439143163E+02  0.79928362593E+02  0.10920579030E+03  0.00000000000E+00 0. -1.
<mgrwt>
<rscale>  0 0.27657465E+03</rscale>
<asrwt>0</asrwt>
<pdfrwt beam="1">  1        2 0.35510418E-01 0.27657465E+03</pdfrwt>
<pdfrwt beam="2">  1       -2 0.18176909E+00 0.27657465E+03</pdfrwt>
<totfact> 0.27745003E+01</totfact>
</mgrwt>
</event>
<event>
12    1  0.9321077E-008  0.1227991E+04  0.7818608E-02  0.9088703E-01
          1   -1    0    0  501    0  0.00000000000E+00  0.00000000000E+00  0.10871582889E+04  0.10871582889E+04  0.00000000000E+00 0. -1.
         -1   -1    0    0    0  501 -0.00000000000E+00 -0.00000000000E+00 -0.15497344577E+04  0.15497344577E+04  0.00000000000E+00 0.  1.
         23    2    1    2    0    0  0.76332657884E+03 -0.95206271391E+03 -0.89946213735E+02  0.12269682495E+04  0.90938918160E+02 0.  0.
    5000000    2    1    2    0    0 -0.76332657884E+03  0.95206271391E+03 -0.37262995501E+03  0.14099244970E+04  0.59995260376E+03 0.  0.
         23    2    4    4    0    0 -0.66385823702E+03  0.72640620643E+03 -0.51111385477E+03  0.11126178362E+04  0.91144617023E+02 0.  0.
         23    2    4    4    0    0 -0.99468341828E+02  0.22565650747E+03  0.13848389976E+03  0.29730666086E+03  0.91644147160E+02 0.  0.
          1    1    3    3  502    0  0.34825882356E+03 -0.48035951143E+03 -0.78970407416E+02  0.59855308341E+03  0.00000000000E+00 0. -1.
         -1    1    3    3    0  502  0.41506775528E+03 -0.47170320248E+03 -0.10975806318E+02  0.62841516614E+03  0.00000000000E+00 0.  1.
         15    1    5    5    0    0 -0.43316943395E+03  0.41709065564E+03 -0.33642104915E+03  0.68904473989E+03  0.17770000000E+01 0. -1.
        -15    1    5    5    0    0 -0.23068880307E+03  0.30931555079E+03 -0.17469280563E+03  0.42357309628E+03  0.17770000000E+01 0.  1.
          2    1    6    6  503    0 -0.33622643022E+02  0.58444569665E+02  0.87577213722E+02  0.11052609742E+03  0.00000000000E+00 0. -1.
         -2    1    6    6    0  503 -0.65845698805E+02  0.16721193781E+03  0.50906686037E+02  0.18678056344E+03  0.00000000000E+00 0.  1.
<mgrwt>
<rscale>  0 0.12279907E+04</rscale>
<asrwt>0</asrwt>
<pdfrwt beam="1">  1        1 0.16725512E+00 0.12279907E+04</pdfrwt>
<pdfrwt beam="2">  1       -1 0.23842069E+00 0.12279907E+04</pdfrwt>
<totfact> 0.10529599E+00</totfact>
</mgrwt>
</event>
<event>
12    1  0.9321077E-008  0.5508713E+03  0.7818608E-02  0.1001292E+00
          2   -1    0    0  501    0  0.00000000000E+00  0.00000000000E+00  0.74488382836E+03  0.74488382836E+03  0.00000000000E+00 0. -1.
         -2   -1    0    0    0  501 -0.00000000000E+00 -0.00000000000E+00 -0.66280780149E+03  0.66280780149E+03  0.00000000000E+00 0.  1.
         23    2    1    2    0    0  0.18490691590E+02 -0.39844507493E+03  0.44174788781E+03  0.60239343502E+03  0.92931538025E+02 0.  0.
    5000000    2    1    2    0    0 -0.18490691590E+02  0.39844507493E+03 -0.35967186093E+03  0.80529819483E+03  0.60003412540E+03 0.  0.
         23    2    4    4    0    0 -0.22786225725E+03  0.41948112558E+03 -0.19590025702E+03  0.52355285724E+03  0.88572346858E+02 0.  0.
         23    2    4    4    0    0  0.20937156566E+03 -0.21036050642E+02 -0.16377160391E+03  0.28174533760E+03  0.90996313545E+02 0.  0.
          1    1    3    3  502    0  0.25453344517E+02 -0.19319893506E+03  0.15145999834E+03  0.24680727776E+03  0.00000000000E+00 0. -1.
         -1    1    3    3    0  502 -0.69626529272E+01 -0.20524613987E+03  0.29028788946E+03  0.35558615726E+03  0.00000000000E+00 0.  1.
         15    1    5    5    0    0 -0.48655197991E+02  0.14327913929E+03 -0.97094904312E+02  0.17979660236E+03  0.17770000000E+01 0. -1.
        -15    1    5    5    0    0 -0.17920705925E+03  0.27620198628E+03 -0.98805352711E+02  0.34375625488E+03  0.17770000000E+01 0.  1.
          1    1    6    6  503    0  0.16639704964E+03  0.11852635470E+02 -0.15343583312E+03  0.22665175486E+03  0.00000000000E+00 0. -1.
         -1    1    6    6    0  503  0.42974516011E+02 -0.32888686112E+02 -0.10335770791E+02  0.55093582733E+02  0.00000000000E+00 0.  1.
<mgrwt>
<rscale>  0 0.55087130E+03</rscale>
<asrwt>0</asrwt>
<pdfrwt beam="1">  1        2 0.11459751E+00 0.55087130E+03</pdfrwt>
<pdfrwt beam="2">  1       -2 0.10197043E+00 0.55087130E+03</pdfrwt>
<totfact> 0.30854542E+01</totfact>
</mgrwt>
</event>
<event>
12    1  0.9321077E-008  0.8787544E+03  0.7818608E-02  0.9452536E-01
         -2   -1    0    0    0  501 -0.00000000000E+00  0.00000000000E+00  0.32360027060E+03  0.32360027060E+03  0.00000000000E+00 0.  1.
          2   -1    0    0  501    0  0.00000000000E+00 -0.00000000000E+00 -0.26654671444E+04  0.26654671444E+04  0.00000000000E+00 0. -1.
         23    2    1    2    0    0 -0.34311215379E+03  0.70412999284E+03 -0.14889765875E+04  0.16848722912E+04  0.90655184814E+02 0.  0.
    5000000    2    1    2    0    0  0.34311215379E+03 -0.70412999284E+03 -0.85289028621E+03  0.13041951238E+04  0.59998173606E+03 0.  0.
         23    2    4    4    0    0  0.34221781470E+03 -0.10575066599E+03 -0.22885699314E+03  0.43501788281E+03  0.92567807572E+02 0.  0.
         23    2    4    4    0    0  0.89433909457E+00 -0.59837932686E+03 -0.62403329307E+03  0.86917724095E+03  0.89403057365E+02 0.  0.
          3    1    3    3  502    0 -0.52140143042E+02  0.19486450739E+03 -0.36244642705E+03  0.41479896726E+03  0.00000000000E+00 0. -1.
         -3    1    3    3    0  502 -0.29097201075E+03  0.50926548545E+03 -0.11265301605E+04  0.12700733240E+04  0.00000000000E+00 0.  1.
         15    1    5    5    0    0  0.15663362552E+03 -0.63114126086E+01 -0.12351783469E+03  0.19958391665E+03  0.17770000000E+01 0.  1.
        -15    1    5    5    0    0  0.18558418918E+03 -0.99439253378E+02 -0.10533915846E+03  0.23543396616E+03  0.17770000000E+01 0. -1.
          3    1    6    6  503    0  0.30536025895E+02 -0.18573372557E+03 -0.23700548966E+03  0.30265668310E+03  0.00000000000E+00 0. -1.
         -3    1    6    6    0  503 -0.29641686800E+02 -0.41264560129E+03 -0.38702780341E+03  0.56652055785E+03  0.00000000000E+00 0.  1.
<mgrwt>
<rscale>  0 0.87875438E+03</rscale>
<asrwt>0</asrwt>
<pdfrwt beam="1">  1        2 0.41007187E+00 0.87875438E+03</pdfrwt>
<pdfrwt beam="2">  1       -2 0.49784656E-01 0.87875438E+03</pdfrwt>
<totfact> 0.10968913E+01</totfact>
</mgrwt>
</event>
<event>
12    1  0.9321077E-008  0.1210046E+04  0.7818608E-02  0.9104108E-01
         -1   -1    0    0    0  501 -0.00000000000E+00  0.00000000000E+00  0.12045749390E+04  0.12045749390E+04  0.00000000000E+00 0.  1.
          1   -1    0    0  501    0  0.00000000000E+00 -0.00000000000E+00 -0.15606263461E+04  0.15606263461E+04  0.00000000000E+00 0. -1.
         23    2    1    2    0    0 -0.67482096488E+03  0.95325353938E+03 -0.75398050568E+03  0.13931948704E+04  0.91813391396E+02 0.  0.
    5000000    2    1    2    0    0  0.67482096488E+03 -0.95325353938E+03  0.39792909859E+03  0.13720064147E+04  0.59998199090E+03 0.  0.
         23    2    4    4    0    0  0.37370550042E+03 -0.17651559722E+03  0.31617076046E+03  0.53001985990E+03  0.10071516773E+03 0.  0.
         23    2    4    4    0    0  0.30111546446E+03 -0.77673794216E+03  0.81758338126E+02  0.84198655477E+03  0.90909729026E+02 0.  0.
          1    1    3    3  502    0 -0.43211300599E+03  0.63105512499E+03 -0.54291796772E+03  0.93792970973E+03  0.00000000000E+00 0. -1.
         -1    1    3    3    0  502 -0.24270795889E+03  0.32219841439E+03 -0.21106253797E+03  0.45526516062E+03  0.00000000000E+00 0.  1.
         15    1    5    5    0    0  0.26639613203E+03 -0.14396246011E+03  0.27933016992E+03  0.41197158960E+03  0.17770000000E+01 0.  1.
        -15    1    5    5    0    0  0.10730936839E+03 -0.32553137117E+02  0.36840590540E+02  0.11804827030E+03  0.17770000000E+01 0. -1.
          1    1    6    6  503    0  0.23826910126E+03 -0.51050727229E+03  0.75104794309E+02  0.56835778327E+03  0.00000000000E+00 0. -1.
         -1    1    6    6    0  503  0.62846363202E+02 -0.26623066987E+03  0.66535438171E+01  0.27362877150E+03  0.00000000000E+00 0.  1.
<mgrwt>
<rscale>  0 0.12100461E+04</rscale>
<asrwt>0</asrwt>
<pdfrwt beam="1">  1        1 0.24009636E+00 0.12100461E+04</pdfrwt>
<pdfrwt beam="2">  1       -1 0.18531922E+00 0.12100461E+04</pdfrwt>
<totfact> 0.11085484E+00</totfact>
</mgrwt>
</event>
<event>
12    1  0.9321077E-008  0.7486949E+03  0.7818608E-02  0.9637400E-01
         -2   -1    0    0    0  501 -0.00000000000E+00  0.00000000000E+00  0.42286480464E+03  0.42286480464E+03  0.00000000000E+00 0.  1.
          2   -1    0    0  501    0  0.00000000000E+00 -0.00000000000E+00 -0.27757146989E+04  0.27757146989E+04  0.00000000000E+00 0. -1.
         23    2    1    2    0    0 -0.15602139317E+03  0.66898418617E+03 -0.21572042006E+04  0.22657658807E+04  0.91008496781E+02 0.  0.
    5000000    2    1    2    0    0  0.15602139317E+03 -0.66898418617E+03 -0.19564569360E+03  0.93281362281E+03  0.59998458397E+03 0.  0.
         23    2    4    4    0    0  0.11057808684E+03  0.19302710065E+02 -0.18350528142E+03  0.23697886218E+03  0.99421752678E+02 0.  0.
         23    2    4    4    0    0  0.45443306336E+02 -0.68828689623E+03 -0.12140412177E+02  0.69583476063E+03  0.90745131406E+02 0.  0.
          1    1    3    3  502    0 -0.43243696763E+02  0.37743818038E+03 -0.11434304904E+04  0.12048912332E+04  0.00000000000E+00 0. -1.
         -1    1    3    3    0  502 -0.11277769641E+03  0.29154600579E+03 -0.10137737102E+04  0.10608746475E+04  0.00000000000E+00 0.  1.
         15    1    5    5    0    0  0.10564182420E+02 -0.52501708404E+01 -0.10950491832E+03  0.11015285339E+03  0.17770000000E+01 0. -1.
        -15    1    5    5    0    0  0.10001390442E+03  0.24552880905E+02 -0.74000363097E+02  0.12682600879E+03  0.17770000000E+01 0.  1.
          3    1    6    6  503    0  0.40356801372E+02 -0.50956290098E+03 -0.48242486708E+02  0.51342999425E+03  0.00000000000E+00 0. -1.
         -3    1    6    6    0  503  0.50865049643E+01 -0.17872399525E+03  0.36102074531E+02  0.18240476638E+03  0.00000000000E+00 0.  1.
<mgrwt>
<rscale>  0 0.74869486E+03</rscale>
<asrwt>0</asrwt>
<pdfrwt beam="1">  1        2 0.42703302E+00 0.74869486E+03</pdfrwt>
<pdfrwt beam="2">  1       -2 0.65056126E-01 0.74869486E+03</pdfrwt>
<totfact> 0.55175110E+00</totfact>
</mgrwt>
</event>
<event>
12    1  0.9321077E-008  0.5494738E+03  0.7818608E-02  0.1001616E+00
          2   -1    0    0  501    0  0.00000000000E+00  0.00000000000E+00  0.32292900192E+04  0.32292900192E+04  0.00000000000E+00 0. -1.
         -2   -1    0    0    0  501 -0.00000000000E+00 -0.00000000000E+00 -0.11922000213E+03  0.11922000213E+03  0.00000000000E+00 0.  1.
         23    2    1    2    0    0  0.29994387358E+03 -0.31561485694E+03  0.16769910054E+04  0.17350147204E+04  0.91641598306E+02 0.  0.
    5000000    2    1    2    0    0 -0.29994387358E+03  0.31561485694E+03  0.14330790117E+04  0.16134953010E+04  0.60006046970E+03 0.  0.
         23    2    4    4    0    0  0.69850325060E+02 -0.64385498951E+02  0.71257739219E+02  0.14935642667E+03  0.90582097581E+02 0.  0.
         23    2    4    4    0    0 -0.36979419864E+03  0.38000035589E+03  0.13618212725E+04  0.14641388743E+04  0.89428436595E+02 0.  0.
          1    1    3    3  502    0  0.24848603820E+03 -0.21512074599E+03  0.13353044395E+04  0.13751582428E+04  0.00000000000E+00 0. -1.
         -1    1    3    3    0  502  0.51457835384E+02 -0.10049411095E+03  0.34168656586E+03  0.35985647756E+03  0.00000000000E+00 0.  1.
         15    1    5    5    0    0  0.73926974961E+02 -0.81009627120E+02  0.46337288197E+02  0.11907165624E+03  0.17770000000E+01 0.  1.
        -15    1    5    5    0    0 -0.40766499015E+01  0.16624128169E+02  0.24920451022E+02  0.30284770429E+02  0.17770000000E+01 0. -1.
          4    1    6    6  503    0 -0.47659107148E+02  0.57068104140E+02  0.11966905445E+03  0.14088591696E+03  0.00000000000E+00 0. -1.
         -4    1    6    6    0  503 -0.32213509149E+03  0.32293225175E+03  0.12421522180E+04  0.13232529574E+04  0.00000000000E+00 0.  1.
<mgrwt>
<rscale>  0 0.54947376E+03</rscale>
<asrwt>0</asrwt>
<pdfrwt beam="1">  1        2 0.49681378E+00 0.54947376E+03</pdfrwt>
<pdfrwt beam="2">  1       -2 0.18341541E-01 0.54947376E+03</pdfrwt>
<totfact> 0.34043804E+01</totfact>
</mgrwt>
</event>
<event>
12    1  0.9321077E-008  0.8439052E+03  0.7818608E-02  0.9498554E-01
          2   -1    0    0  501    0  0.00000000000E+00  0.00000000000E+00  0.93499407070E+03  0.93499407070E+03  0.00000000000E+00 0. -1.
         -2   -1    0    0    0  501 -0.00000000000E+00 -0.00000000000E+00 -0.86717768039E+03  0.86717768039E+03  0.00000000000E+00 0.  1.
         23    2    1    2    0    0 -0.76037531715E+03  0.15297795268E+02 -0.21018368550E+03  0.79438642869E+03  0.92021578772E+02 0.  0.
    5000000    2    1    2    0    0  0.76037531715E+03 -0.15297795268E+02  0.27800007581E+03  0.10077853224E+04  0.59995213843E+03 0.  0.
         23    2    4    4    0    0  0.13276603139E+03 -0.21298071409E+03  0.21436996877E+03  0.34036074223E+03  0.83086386830E+02 0.  0.
         23    2    4    4    0    0  0.62760928577E+03  0.19768291882E+03  0.63630107036E+02  0.66742458016E+03  0.91841318081E+02 0.  0.
          4    1    3    3  502    0 -0.56934470792E+03 -0.19884024116E+02 -0.18231923647E+03  0.59815472483E+03  0.00000000000E+00 0. -1.
         -4    1    3    3    0  502 -0.19103060923E+03  0.35181819384E+02 -0.27864449030E+02  0.19623170386E+03  0.00000000000E+00 0.  1.
         15    1    5    5    0    0 -0.21966907197E+01 -0.39922093320E+02  0.11879857641E+02  0.41747906914E+02  0.17770000000E+01 0. -1.
        -15    1    5    5    0    0  0.13496272211E+03 -0.17305862077E+03  0.20249011113E+03  0.29861283532E+03  0.17770000000E+01 0.  1.
          2    1    6    6  503    0  0.43875114821E+02 -0.96451916257E+01  0.39046897338E+01  0.45092150359E+02  0.00000000000E+00 0. -1.
         -2    1    6    6    0  503  0.58373417095E+03  0.20732811045E+03  0.59725417302E+02  0.62233242980E+03  0.00000000000E+00 0.  1.
<mgrwt>
<rscale>  0 0.84390519E+03</rscale>
<asrwt>0</asrwt>
<pdfrwt beam="1">  1        2 0.14384524E+00 0.84390519E+03</pdfrwt>
<pdfrwt beam="2">  1       -2 0.13341195E+00 0.84390519E+03</pdfrwt>
<totfact> 0.11367949E+01</totfact>
</mgrwt>
</event>
<event>
12    1  0.9321077E-008  0.5707287E+03  0.7818608E-02  0.9968067E-01
          1   -1    0    0  501    0  0.00000000000E+00  0.00000000000E+00  0.17965784898E+04  0.17965784898E+04  0.00000000000E+00 0. -1.
         -1   -1    0    0    0  501 -0.00000000000E+00 -0.00000000000E+00 -0.23682720081E+03  0.23682720081E+03  0.00000000000E+00 0.  1.
         23    2    1    2    0    0 -0.33566142967E+03  0.27376669744E+03  0.20073115636E+03  0.48590839722E+03  0.90538242533E+02 0.  0.
    5000000    2    1    2    0    0  0.33566142967E+03 -0.27376669744E+03  0.13590201326E+04  0.15474972934E+04  0.60016277140E+03 0.  0.
         23    2    4    4    0    0  0.23250192188E+03  0.13412192669E+03  0.34847970361E+03  0.44914011768E+03  0.90790454263E+02 0.  0.
         23    2    4    4    0    0  0.10315950779E+03 -0.40788862413E+03  0.10105404290E+04  0.10983571757E+04  0.90451716490E+02 0.  0.
          3    1    3    3  502    0 -0.20818611796E+03  0.22332601159E+03  0.14337833045E+03  0.33730299852E+03  0.00000000000E+00 0.  1.
         -3    1    3    3    0  502 -0.12747531171E+03  0.50440685846E+02  0.57352825908E+02  0.14860539870E+03  0.00000000000E+00 0. -1.
         15    1    5    5    0    0  0.21954178264E+03  0.11895961694E+03  0.34897145452E+03  0.42910863261E+03  0.17770000000E+01 0. -1.
        -15    1    5    5    0    0  0.12960139249E+02  0.15162309749E+02 -0.49175090450E+00  0.20031485073E+02  0.17770000000E+01 0.  1.
          1    1    6    6  503    0  0.11265237480E+03 -0.40337403565E+03  0.97155244465E+03  0.10579769954E+04  0.00000000000E+00 0. -1.
         -1    1    6    6    0  503 -0.94928670153E+01 -0.45145884788E+01  0.38987984360E+02  0.40380180259E+02  0.00000000000E+00 0.  1.
<mgrwt>
<rscale>  0 0.57072870E+03</rscale>
<asrwt>0</asrwt>
<pdfrwt beam="1">  1        1 0.27639668E+00 0.57072870E+03</pdfrwt>
<pdfrwt beam="2">  1       -1 0.36434955E-01 0.57072870E+03</pdfrwt>
<totfact> 0.31406430E+01</totfact>
</mgrwt>
</event>
<event>
12    1  0.9321077E-008  0.4109927E+03  0.7818608E-02  0.1040038E+00
          1   -1    0    0  501    0  0.00000000000E+00  0.00000000000E+00  0.10355625641E+04  0.10355625641E+04  0.00000000000E+00 0. -1.
         -1   -1    0    0    0  501 -0.00000000000E+00 -0.00000000000E+00 -0.55952243882E+03  0.55952243882E+03  0.00000000000E+00 0.  1.
         23    2    1    2    0    0 -0.16113535244E+03  0.28721672945E+03 -0.37189602933E+03  0.50538412499E+03  0.92996804663E+02 0.  0.
    5000000    2    1    2    0    0  0.16113535244E+03 -0.28721672945E+03  0.84793615458E+03  0.10897008779E+04  0.59999519130E+03 0.  0.
         23    2    4    4    0    0  0.96598662904E+02  0.46238847417E+02  0.68909358442E+03  0.70344158712E+03  0.92253811431E+02 0.  0.
         23    2    4    4    0    0  0.64536689531E+02 -0.33345557686E+03  0.15884257017E+03  0.38625929078E+03  0.92777538143E+02 0.  0.
          4    1    3    3  502    0 -0.14018771100E+03  0.17748319697E+03 -0.28508781626E+03  0.36390650241E+03  0.00000000000E+00 0. -1.
         -4    1    3    3    0  502 -0.20947641439E+02  0.10973353248E+03 -0.86808213076E+02  0.14147762257E+03  0.00000000000E+00 0.  1.
         15    1    5    5    0    0  0.49457447275E+02  0.72177858193E+02  0.42576689295E+03  0.43466801949E+03  0.17770000000E+01 0.  1.
        -15    1    5    5    0    0  0.47141215630E+02 -0.25939010776E+02  0.26332669146E+03  0.26877356763E+03  0.17770000000E+01 0. -1.
          3    1    6    6  503    0  0.70237125564E+02 -0.26815611196E+03  0.16120660009E+03  0.32066886675E+03  0.00000000000E+00 0. -1.
         -3    1    6    6    0  503 -0.57004360330E+01 -0.65299464901E+02 -0.23640299275E+01  0.65590424033E+02  0.00000000000E+00 0.  1.
<mgrwt>
<rscale>  0 0.41099270E+03</rscale>
<asrwt>0</asrwt>
<pdfrwt beam="1">  1        1 0.15931732E+00 0.41099270E+03</pdfrwt>
<pdfrwt beam="2">  1       -1 0.86080376E-01 0.41099270E+03</pdfrwt>
<totfact> 0.20589595E+01</totfact>
</mgrwt>
</event>
<event>
12    1  0.9321077E-008  0.7647887E+03  0.7818608E-02  0.9612431E-01
         -2   -1    0    0    0  501 -0.00000000000E+00  0.00000000000E+00  0.52065213191E+03  0.52065213191E+03  0.00000000000E+00 0.  1.
          2   -1    0    0  501    0  0.00000000000E+00 -0.00000000000E+00 -0.15535789257E+04  0.15535789257E+04  0.00000000000E+00 0. -1.
         23    2    1    2    0    0  0.26475129998E+03  0.61670295529E+03  0.33910411245E+02  0.67839317910E+03  0.93013996553E+02 0.  0.
    5000000    2    1    2    0    0 -0.26475129998E+03 -0.61670295529E+03 -0.10668372050E+04  0.13958378785E+04  0.59983829078E+03 0.  0.
         23    2    4    4    0    0 -0.23319843514E+03 -0.11046322127E+02 -0.50786943705E+03  0.56608148741E+03  0.89517338638E+02 0.  0.
         23    2    4    4    0    0 -0.31552864844E+02 -0.60565663316E+03 -0.55896776795E+03  0.82975639105E+03  0.90747795099E+02 0.  0.
          4    1    3    3  502    0  0.20397772947E+03  0.45460737163E+03 -0.15016702674E+02  0.49849802188E+03  0.00000000000E+00 0.  1.
         -4    1    3    3    0  502  0.60773570508E+02  0.16209558366E+03  0.48927113919E+02  0.17989515722E+03  0.00000000000E+00 0. -1.
         15    1    5    5    0    0 -0.58402149613E+01  0.19564049083E+02 -0.46733583750E+02  0.51029851130E+02  0.17770000000E+01 0.  1.
        -15    1    5    5    0    0 -0.22735822017E+03 -0.30610371210E+02 -0.46113585330E+03  0.51505163628E+03  0.17770000000E+01 0. -1.
          4    1    6    6  503    0 -0.17480569585E+02 -0.56476784115E+03 -0.54301003846E+03  0.78366331200E+03  0.00000000000E+00 0. -1.
         -4    1    6    6    0  503 -0.14072295258E+02 -0.40888792011E+02 -0.15957729490E+02  0.46093079051E+02  0.00000000000E+00 0.  1.
<mgrwt>
<rscale>  0 0.76478867E+03</rscale>
<asrwt>0</asrwt>
<pdfrwt beam="1">  1        2 0.23901213E+00 0.76478867E+03</pdfrwt>
<pdfrwt beam="2">  1       -2 0.80100331E-01 0.76478867E+03</pdfrwt>
<totfact> 0.16701541E+01</totfact>
</mgrwt>
</event>
<event>
12    1  0.9321077E-008  0.1081744E+04  0.7818608E-02  0.9223170E-01
         -2   -1    0    0    0  501 -0.00000000000E+00  0.00000000000E+00  0.12730891538E+04  0.12730891538E+04  0.00000000000E+00 0.  1.
          2   -1    0    0  501    0  0.00000000000E+00 -0.00000000000E+00 -0.11519806100E+04  0.11519806100E+04  0.00000000000E+00 0. -1.
         23    2    1    2    0    0 -0.87450932063E+03  0.49816216940E+03  0.58166045054E+03  0.11660651774E+04  0.91907667398E+02 0.  0.
    5000000    2    1    2    0    0  0.87450932063E+03 -0.49816216940E+03 -0.46055190678E+03  0.12590045864E+04  0.60004365738E+03 0.  0.
         23    2    4    4    0    0 -0.58245546142E+02 -0.81374322572E+02 -0.23212874734E+01  0.13567473455E+03  0.91585594942E+02 0.  0.
         23    2    4    4    0    0  0.93275486677E+03 -0.41678784683E+03 -0.45823061930E+03  0.11233298518E+04  0.90282361237E+02 0.  0.
          4    1    3    3  502    0 -0.87566981546E+02  0.29095603241E+02  0.76663628505E+02  0.11996600485E+03  0.00000000000E+00 0. -1.
         -4    1    3    3    0  502 -0.78694233908E+03  0.46906656616E+03  0.50499682203E+03  0.10460991725E+04  0.00000000000E+00 0.  1.
         15    1    5    5    0    0 -0.81418976567E+02 -0.59010065139E+02  0.10176656043E+02  0.10108392350E+03  0.17770000000E+01 0. -1.
        -15    1    5    5    0    0  0.23173430424E+02 -0.22364257433E+02 -0.12497943517E+02  0.34590811053E+02  0.17770000000E+01 0.  1.
          3    1    6    6  503    0  0.92699098883E+03 -0.41077903301E+03 -0.44408596368E+03  0.11069164605E+04  0.00000000000E+00 0. -1.
         -3    1    6    6    0  503  0.57638779415E+01 -0.60088138191E+01 -0.14144655623E+02  0.16413391335E+02  0.00000000000E+00 0.  1.
<mgrwt>
<rscale>  0 0.10817440E+04</rscale>
<asrwt>0</asrwt>
<pdfrwt beam="1">  1        2 0.17722779E+00 0.10817440E+04</pdfrwt>
<pdfrwt beam="2">  1       -2 0.19585987E+00 0.10817440E+04</pdfrwt>
<totfact> 0.28190271E+00</totfact>
</mgrwt>
</event>
<event>
12    1  0.9321077E-008  0.9303358E+03  0.7818608E-02  0.9388435E-01
          1   -1    0    0  501    0  0.00000000000E+00  0.00000000000E+00  0.24362720711E+04  0.24362720711E+04  0.00000000000E+00 0. -1.
         -1   -1    0    0    0  501 -0.00000000000E+00 -0.00000000000E+00 -0.38281276222E+03  0.38281276222E+03  0.00000000000E+00 0.  1.
         23    2    1    2    0    0  0.62926361180E+03  0.55101434654E+03  0.58164244720E+03  0.10230166246E+04  0.93089068145E+02 0.  0.
    5000000    2    1    2    0    0 -0.62926361180E+03 -0.55101434654E+03  0.14718168617E+04  0.17960682087E+04  0.60002219357E+03 0.  0.
         23    2    4    4    0    0 -0.65799003844E+03 -0.25773440211E+03  0.11245093508E+04  0.13312512426E+04  0.91272549629E+02 0.  0.
         23    2    4    4    0    0  0.28726426637E+02 -0.29327994443E+03  0.34730751087E+03  0.46481696604E+03  0.92703675360E+02 0.  0.
          2    1    3    3  502    0  0.28605591618E+03  0.29924891011E+03  0.25198732630E+03  0.48463956710E+03  0.00000000000E+00 0. -1.
         -2    1    3    3    0  502  0.34320769562E+03  0.25176543643E+03  0.32965512090E+03  0.53837705751E+03  0.00000000000E+00 0.  1.
         15    1    5    5    0    0 -0.32752705143E+03 -0.80069759135E+02  0.54641507118E+03  0.64207298922E+03  0.17770000000E+01 0. -1.
        -15    1    5    5    0    0 -0.33046298701E+03 -0.17766464297E+03  0.57809427961E+03  0.68917825343E+03  0.17770000000E+01 0.  1.
          3    1    6    6  503    0  0.31235556444E+02 -0.24035029978E+02  0.38284562001E+02  0.54945885560E+02  0.00000000000E+00 0. -1.
         -3    1    6    6    0  503 -0.25091298075E+01 -0.26924491445E+03  0.30902294887E+03  0.40987108048E+03  0.00000000000E+00 0.  1.
<mgrwt>
<rscale>  0 0.93033583E+03</rscale>
<asrwt>0</asrwt>
<pdfrwt beam="1">  1        1 0.37481108E+00 0.93033583E+03</pdfrwt>
<pdfrwt beam="2">  1       -1 0.58894273E-01 0.93033583E+03</pdfrwt>
<totfact> 0.45033678E+00</totfact>
</mgrwt>
</event>
<event>
12    1  0.9321077E-008  0.6270275E+03  0.7818608E-02  0.9850867E-01
         -2   -1    0    0    0  501 -0.00000000000E+00  0.00000000000E+00  0.23130790174E+03  0.23130790174E+03  0.00000000000E+00 0.  1.
          2   -1    0    0  501    0  0.00000000000E+00 -0.00000000000E+00 -0.27983175367E+04  0.27983175367E+04  0.00000000000E+00 0. -1.
         23    2    1    2    0    0 -0.22884316702E+03 -0.44103165118E+03 -0.20094787494E+04  0.20716490780E+04  0.82746273074E+02 0.  0.
    5000000    2    1    2    0    0  0.22884316702E+03  0.44103165118E+03 -0.55753088560E+03  0.95797636047E+03  0.59999992199E+03 0.  0.
         23    2    4    4    0    0 -0.17833188551E+03  0.24409187954E+03 -0.19418334472E+03  0.37081587776E+03  0.91728603974E+02 0.  0.
         23    2    4    4    0    0  0.40717505254E+03  0.19693977164E+03 -0.36334754088E+03  0.58716048271E+03  0.90328289728E+02 0.  0.
          1    1    3    3  502    0 -0.10859258045E+03 -0.17718483239E+03 -0.68634752382E+03  0.71711905344E+03  0.00000000000E+00 0. -1.
         -1    1    3    3    0  502 -0.12025058658E+03 -0.26384681878E+03 -0.13231312256E+04  0.13545300245E+04  0.00000000000E+00 0.  1.
         15    1    5    5    0    0 -0.45143454356E+02  0.79204573607E+02 -0.10966074483E+03  0.14261813572E+03  0.17770000000E+01 0. -1.
        -15    1    5    5    0    0 -0.13318843116E+03  0.16488730593E+03 -0.84522599894E+02  0.22819774204E+03  0.17770000000E+01 0.  1.
          3    1    6    6  503    0  0.14663399955E+03  0.56428472219E+02 -0.18016290802E+03  0.23904889819E+03  0.00000000000E+00 0. -1.
         -3    1    6    6    0  503  0.26054105298E+03  0.14051129942E+03 -0.18318463286E+03  0.34811158451E+03  0.00000000000E+00 0.  1.
<mgrwt>
<rscale>  0 0.62702748E+03</rscale>
<asrwt>0</asrwt>
<pdfrwt beam="1">  1        2 0.43051038E+00 0.62702748E+03</pdfrwt>
<pdfrwt beam="2">  1       -2 0.35585832E-01 0.62702748E+03</pdfrwt>
<totfact> 0.18530548E+01</totfact>
</mgrwt>
</event>
<event>
12    1  0.9321077E-008  0.1028085E+04  0.7818608E-02  0.9278267E-01
          2   -1    0    0  501    0  0.00000000000E+00  0.00000000000E+00  0.33017877397E+04  0.33017877397E+04  0.00000000000E+00 0. -1.
         -2   -1    0    0    0  501 -0.00000000000E+00 -0.00000000000E+00 -0.34823673047E+03  0.34823673047E+03  0.00000000000E+00 0.  1.
         23    2    1    2    0    0 -0.68785730909E+03  0.69663494026E+03  0.11529421028E+04  0.15144370751E+04  0.76133071023E+02 0.  0.
    5000000    2    1    2    0    0  0.68785730909E+03 -0.69663494026E+03  0.18006089064E+04  0.21355873950E+04  0.60007763684E+03 0.  0.
         23    2    4    4    0    0  0.68707555702E+03 -0.70251639851E+03  0.17880492892E+04  0.20423293200E+04  0.91578816298E+02 0.  0.
         23    2    4    4    0    0  0.78175206261E+00  0.58814582490E+01  0.12559617234E+02  0.93258075007E+02  0.92217795905E+02 0.  0.
          1    1    3    3  502    0 -0.28242336370E+03  0.29393996819E+03  0.42334322966E+03  0.58769307582E+03  0.00000000000E+00 0. -1.
         -1    1    3    3    0  502 -0.40543394538E+03  0.40269497207E+03  0.72959887311E+03  0.92674399931E+03  0.00000000000E+00 0.  1.
         15    1    5    5    0    0  0.44348516030E+03 -0.51399298219E+03  0.12335479967E+04  0.14080169356E+04  0.17770000000E+01 0. -1.
        -15    1    5    5    0    0  0.24359039672E+03 -0.18852341632E+03  0.55450129250E+03  0.63431238439E+03  0.17770000000E+01 0.  1.
          3    1    6    6  503    0 -0.35658136902E+02  0.29917049010E+02 -0.36590531584E+01  0.46689626458E+02  0.00000000000E+00 0. -1.
         -3    1    6    6    0  503  0.36439888965E+02 -0.24035590761E+02  0.16218670393E+02  0.46568448549E+02  0.00000000000E+00 0.  1.
<mgrwt>
<rscale>  0 0.10280845E+04</rscale>
<asrwt>0</asrwt>
<pdfrwt beam="1">  1        2 0.50796732E+00 0.10280845E+04</pdfrwt>
<pdfrwt beam="2">  1       -2 0.53574884E-01 0.10280845E+04</pdfrwt>
<totfact> 0.37444006E+00</totfact>
</mgrwt>
</event>
<event>
12    1  0.9321077E-008  0.8532549E+03  0.7818608E-02  0.9485979E-01
          1   -1    0    0  501    0  0.00000000000E+00  0.00000000000E+00  0.93490936599E+03  0.93490936599E+03  0.00000000000E+00 0. -1.
         -1   -1    0    0    0  501 -0.00000000000E+00 -0.00000000000E+00 -0.84462688570E+03  0.84462688570E+03  0.00000000000E+00 0.  1.
         23    2    1    2    0    0 -0.74300130872E+03 -0.12731469973E+03 -0.17763473194E+03  0.77951746907E+03  0.88506548114E+02 0.  0.
    5000000    2    1    2    0    0  0.74300130872E+03  0.12731469973E+03  0.26791721224E+03  0.10000187826E+04  0.59999829621E+03 0.  0.
         23    2    4    4    0    0  0.72795617112E+03 -0.78831379086E+02  0.21907222517E+03  0.76923282497E+03  0.87131657629E+02 0.  0.
         23    2    4    4    0    0  0.15045137600E+02  0.20614607882E+03  0.48844987071E+02  0.23078595766E+03  0.90298192184E+02 0.  0.
          1    1    3    3  502    0 -0.40471120499E+03 -0.79269162376E+02 -0.52916036618E+02  0.41578223444E+03  0.00000000000E+00 0. -1.
         -1    1    3    3    0  502 -0.33829010373E+03 -0.48045537355E+02 -0.12471869533E+03  0.36373523463E+03  0.00000000000E+00 0.  1.
         15    1    5    5    0    0  0.37442980085E+03 -0.34502056555E+02  0.15740420550E+03  0.40763624632E+03  0.17770000000E+01 0. -1.
        -15    1    5    5    0    0  0.35352637027E+03 -0.44329322530E+02  0.61668019668E+02  0.36159657865E+03  0.17770000000E+01 0.  1.
          2    1    6    6  503    0  0.43618699718E+02  0.15990364122E+03  0.58122691581E+02  0.17564171690E+03  0.00000000000E+00 0. -1.
         -2    1    6    6    0  503 -0.28573562118E+02  0.46242437601E+02 -0.92777045100E+01  0.55144240754E+02  0.00000000000E+00 0.  1.
<mgrwt>
<rscale>  0 0.85325492E+03</rscale>
<asrwt>0</asrwt>
<pdfrwt beam="1">  1        1 0.14383221E+00 0.85325492E+03</pdfrwt>
<pdfrwt beam="2">  1       -1 0.12994260E+00 0.85325492E+03</pdfrwt>
<totfact> 0.88169117E+00</totfact>
</mgrwt>
</event>
<event>
12    1  0.9321077E-008  0.4614936E+03  0.7818608E-02  0.1024349E+00
         -2   -1    0    0    0  501 -0.00000000000E+00  0.00000000000E+00  0.12741461521E+03  0.12741461521E+03  0.00000000000E+00 0. -1.
          2   -1    0    0  501    0  0.00000000000E+00 -0.00000000000E+00 -0.22458136974E+04  0.22458136974E+04  0.00000000000E+00 0.  1.
         23    2    1    2    0    0  0.19010777162E+03 -0.30132536912E+03 -0.62733112715E+03  0.72698382962E+03  0.89572331238E+02 0.  0.
    5000000    2    1    2    0    0 -0.19010777162E+03  0.30132536912E+03 -0.14910679551E+04  0.16462444830E+04  0.59991608443E+03 0.  0.
         23    2    4    4    0    0  0.98362491083E+02  0.24046566517E+03 -0.11653683323E+04  0.11976207178E+04  0.93344084255E+02 0.  0.
         23    2    4    4    0    0 -0.28847026270E+03  0.60859703954E+02 -0.32569962280E+03  0.44862376523E+03  0.90906778662E+02 0.  0.
          1    1    3    3  502    0  0.93928410888E+02 -0.11611163628E+03 -0.18396241061E+03  0.23695279481E+03  0.00000000000E+00 0. -1.
         -1    1    3    3    0  502  0.96179360733E+02 -0.18521373284E+03 -0.44336871655E+03  0.49003103481E+03  0.00000000000E+00 0.  1.
         15    1    5    5    0    0  0.16115254949E+02  0.89452343828E+02 -0.59457956788E+03  0.60148935445E+03  0.17770000000E+01 0. -1.
        -15    1    5    5    0    0  0.82247236134E+02  0.15101332134E+03 -0.57078876438E+03  0.59613136333E+03  0.17770000000E+01 0.  1.
          2    1    6    6  503    0 -0.41091439709E+02 -0.14320778581E+02 -0.84439975684E+02  0.94993160860E+02  0.00000000000E+00 0. -1.
         -2    1    6    6    0  503 -0.24737882300E+03  0.75180482535E+02 -0.24125964711E+03  0.35363060437E+03  0.00000000000E+00 0.  1.
<mgrwt>
<rscale>  0 0.46149363E+03</rscale>
<asrwt>0</asrwt>
<pdfrwt beam="1">  1        2 0.34550978E+00 0.46149363E+03</pdfrwt>
<pdfrwt beam="2">  1       -2 0.19602250E-01 0.46149363E+03</pdfrwt>
<totfact> 0.11542403E+02</totfact>
</mgrwt>
</event>
<event>
12    1  0.9321077E-008  0.1321893E+04  0.7818608E-02  0.9012381E-01
          1   -1    0    0  501    0  0.00000000000E+00  0.00000000000E+00  0.23133532439E+04  0.23133532439E+04  0.00000000000E+00 0. -1.
         -1   -1    0    0    0  501 -0.00000000000E+00 -0.00000000000E+00 -0.90688044335E+03  0.90688044335E+03  0.00000000000E+00 0.  1.
         23    2    1    2    0    0 -0.13136650999E+04 -0.91621364143E+02  0.11499959760E+04  0.17505836457E+04  0.89117263752E+02 0.  0.
    5000000    2    1    2    0    0  0.13136650999E+04  0.91621364143E+02  0.25647682449E+03  0.14696500415E+04  0.59998367807E+03 0.  0.
         23    2    4    4    0    0  0.81504335957E+03  0.25607345226E+02 -0.12733259694E+03  0.83036582150E+03  0.91336702095E+02 0.  0.
         23    2    4    4    0    0  0.49862174033E+03  0.66014018917E+02  0.38380942143E+03  0.63928422001E+03  0.91614143877E+02 0.  0.
          2    1    3    3  502    0 -0.52142953853E+03 -0.53569190675E+02  0.40485202063E+03  0.66231682785E+03  0.00000000000E+00 0. -1.
         -2    1    3    3    0  502 -0.79223556137E+03 -0.38052173468E+02  0.74514395538E+03  0.10882668179E+04  0.00000000000E+00 0.  1.
         15    1    5    5    0    0  0.16211617005E+03  0.41450574566E+02 -0.21242777318E+02  0.16868377528E+03  0.17770000000E+01 0. -1.
        -15    1    5    5    0    0  0.65292718952E+03 -0.15843229340E+02 -0.10608981962E+03  0.66168204622E+03  0.17770000000E+01 0.  1.
          4    1    6    6  503    0  0.10188238095E+03  0.36279891669E+02  0.12191205729E+03  0.16296870804E+03  0.00000000000E+00 0. -1.
         -4    1    6    6    0  503  0.39673935938E+03  0.29734127248E+02  0.26189736414E+03  0.47631551198E+03  0.00000000000E+00 0.  1.
<mgrwt>
<rscale>  0 0.13218934E+04</rscale>
<asrwt>0</asrwt>
<pdfrwt beam="1">  1        1 0.35590050E+00 0.13218934E+04</pdfrwt>
<pdfrwt beam="2">  1       -1 0.13952007E+00 0.13218934E+04</pdfrwt>
<totfact> 0.74791734E-01</totfact>
</mgrwt>
</event>
<event>
12    1  0.9321077E-008  0.8577786E+03  0.7818608E-02  0.9479956E-01
          1   -1    0    0  501    0  0.00000000000E+00  0.00000000000E+00  0.20361515457E+04  0.20361515457E+04  0.00000000000E+00 0. -1.
         -1   -1    0    0    0  501 -0.00000000000E+00 -0.00000000000E+00 -0.46249500573E+03  0.46249500573E+03  0.00000000000E+00 0.  1.
         23    2    1    2    0    0 -0.44736876210E+03  0.60963116151E+03  0.14655517981E+03  0.77571842647E+03  0.92041805905E+02 0.  0.
    5000000    2    1    2    0    0  0.44736876210E+03 -0.60963116151E+03  0.14271013602E+04  0.17229281250E+04  0.60006172121E+03 0.  0.
         23    2    4    4    0    0 -0.60938676114E+01 -0.46439137245E+03  0.60054394412E+03  0.76490805508E+03  0.93460268943E+02 0.  0.
         23    2    4    4    0    0  0.45346262972E+03 -0.14523978906E+03  0.82655741606E+03  0.95802006991E+03  0.88782540151E+02 0.  0.
          2    1    3    3  502    0 -0.37068384356E+03  0.46732775483E+03  0.83956367553E+02  0.60237066161E+03  0.00000000000E+00 0. -1.
         -2    1    3    3    0  502 -0.76684918546E+02  0.14230340668E+03  0.62598812260E+02  0.17334776486E+03  0.00000000000E+00 0.  1.
         15    1    5    5    0    0  0.27908593077E+02 -0.39292267858E+03  0.48440771366E+03  0.62435655814E+03  0.17770000000E+01 0. -1.
        -15    1    5    5    0    0 -0.34002460688E+02 -0.71468693873E+02  0.11613623046E+03  0.14055149694E+03  0.17770000000E+01 0.  1.
          1    1    6    6  503    0  0.80753966940E+02  0.84215745131E+01  0.13483467358E+03  0.15739286926E+03  0.00000000000E+00 0.  1.
         -1    1    6    6    0  503  0.37270866278E+03 -0.15366136357E+03  0.69172274247E+03  0.80062720065E+03  0.00000000000E+00 0. -1.
<mgrwt>
<rscale>  0 0.85777858E+03</rscale>
<asrwt>0</asrwt>
<pdfrwt beam="1">  1        1 0.31325408E+00 0.85777858E+03</pdfrwt>
<pdfrwt beam="2">  1       -1 0.71153079E-01 0.85777858E+03</pdfrwt>
<totfact> 0.57961579E+00</totfact>
</mgrwt>
</event>
<event>
12    1  0.9321077E-008  0.6479025E+03  0.7818608E-02  0.9810723E-01
          1   -1    0    0  501    0  0.00000000000E+00  0.00000000000E+00  0.91064181528E+03  0.91064181528E+03  0.00000000000E+00 0. -1.
         -1   -1    0    0    0  501 -0.00000000000E+00 -0.00000000000E+00 -0.61127879727E+03  0.61127879727E+03  0.00000000000E+00 0.  1.
         23    2    1    2    0    0 -0.30594144792E+03  0.52006819716E+03  0.27808121430E+03  0.67064674998E+03  0.91470226147E+02 0.  0.
    5000000    2    1    2    0    0  0.30594144792E+03 -0.52006819716E+03  0.21281803713E+02  0.85127386256E+03  0.60011930036E+03 0.  0.
         23    2    4    4    0    0  0.21244659490E+03 -0.58110198528E+02 -0.20957309228E+03  0.31868123783E+03  0.95532714183E+02 0.  0.
         23    2    4    4    0    0  0.93494853018E+02 -0.46195799863E+03  0.23085489599E+03  0.53259262473E+03  0.90633552722E+02 0.  0.
          2    1    3    3  502    0 -0.58137463156E+02  0.11867532307E+03  0.22233154162E+02  0.13400787317E+03  0.00000000000E+00 0.  1.
         -2    1    3    3    0  502 -0.24780398476E+03  0.40139287409E+03  0.25584806013E+03  0.53663887681E+03  0.00000000000E+00 0. -1.
         15    1    5    5    0    0  0.96169477037E+02 -0.20142251204E+02 -0.32591383655E+02  0.10353566832E+03  0.17770000000E+01 0. -1.
        -15    1    5    5    0    0  0.11627711786E+03 -0.37967947325E+02 -0.17698170862E+03  0.21514556951E+03  0.17770000000E+01 0.  1.
          4    1    6    6  503    0  0.38675175834E+02 -0.19499668546E+03  0.48331263803E+02  0.20458589303E+03  0.00000000000E+00 0. -1.
         -4    1    6    6    0  503  0.54819677184E+02 -0.26696131317E+03  0.18252363219E+03  0.32800673170E+03  0.00000000000E+00 0.  1.
<mgrwt>
<rscale>  0 0.64790254E+03</rscale>
<asrwt>0</asrwt>
<pdfrwt beam="1">  1        1 0.14009874E+00 0.64790254E+03</pdfrwt>
<pdfrwt beam="2">  1       -1 0.94042892E-01 0.64790254E+03</pdfrwt>
<totfact> 0.20353452E+01</totfact>
</mgrwt>
</event>
<event>
12    1  0.9321077E-008  0.7367831E+03  0.7818608E-02  0.9656317E-01
          2   -1    0    0  501    0  0.00000000000E+00  0.00000000000E+00  0.12021853096E+04  0.12021853096E+04  0.00000000000E+00 0.  1.
         -2   -1    0    0    0  501 -0.00000000000E+00 -0.00000000000E+00 -0.58586212686E+03  0.58586212686E+03  0.00000000000E+00 0. -1.
         23    2    1    2    0    0 -0.23621177999E+02  0.72227064093E+03  0.36768846338E+03  0.81602108133E+03  0.91993262117E+02 0.  0.
    5000000    2    1    2    0    0  0.23621177999E+02 -0.72227064093E+03  0.24863471940E+03  0.97202635518E+03  0.60065228932E+03 0.  0.
         23    2    4    4    0    0 -0.38234098062E+02 -0.23976327437E+03 -0.18175215122E+03  0.31637348161E+03  0.90055879348E+02 0.  0.
         23    2    4    4    0    0  0.61855276061E+02 -0.48250736656E+03  0.43038687062E+03  0.65565287356E+03  0.89489654405E+02 0.  0.
          3    1    3    3  502    0 -0.56443702114E+02  0.40381856433E+03  0.22244245487E+03  0.46447386379E+03  0.00000000000E+00 0. -1.
         -3    1    3    3    0  502  0.32822524115E+02  0.31845207659E+03  0.14524600850E+03  0.35154721754E+03  0.00000000000E+00 0.  1.
         15    1    5    5    0    0 -0.51546972615E+02 -0.69913484194E+02 -0.78875533623E+02  0.11734348380E+03  0.17770000000E+01 0.  1.
        -15    1    5    5    0    0  0.13312874554E+02 -0.16984979017E+03 -0.10287661760E+03  0.19902999781E+03  0.17770000000E+01 0. -1.
          2    1    6    6  503    0  0.36795348404E+01 -0.16047554721E+01 -0.35091338551E+01  0.53318136858E+01  0.00000000000E+00 0. -1.
         -2    1    6    6    0  503  0.58175741220E+02 -0.48090261109E+03  0.43389600448E+03  0.65032105988E+03  0.00000000000E+00 0.  1.
<mgrwt>
<rscale>  0 0.73678312E+03</rscale>
<asrwt>0</asrwt>
<pdfrwt beam="1">  1        2 0.18495159E+00 0.73678312E+03</pdfrwt>
<pdfrwt beam="2">  1       -2 0.90132635E-01 0.73678312E+03</pdfrwt>
<totfact> 0.20299469E+01</totfact>
</mgrwt>
</event>
<event>
12    1  0.9321077E-008  0.1414219E+04  0.7818608E-02  0.8943590E-01
          2   -1    0    0  501    0  0.00000000000E+00  0.00000000000E+00  0.30588820172E+04  0.30588820172E+04  0.00000000000E+00 0. -1.
         -2   -1    0    0    0  501 -0.00000000000E+00 -0.00000000000E+00 -0.74389803831E+03  0.74389803831E+03  0.00000000000E+00 0.  1.
         23    2    1    2    0    0 -0.11040775581E+04  0.83415250307E+03  0.16471724958E+04  0.21532181340E+04  0.91506549925E+02 0.  0.
    5000000    2    1    2    0    0  0.11040775581E+04 -0.83415250307E+03  0.66781148311E+03  0.16495619216E+04  0.60023720595E+03 0.  0.
         23    2    4    4    0    0  0.10107720018E+04 -0.83652460483E+03  0.43968257350E+03  0.13867659988E+04  0.91464288027E+02 0.  0.
         23    2    4    4    0    0  0.93305556379E+02  0.23721017658E+01  0.22812890961E+03  0.26279592277E+03  0.91144631808E+02 0.  0.
          2    1    3    3  502    0 -0.50065678485E+03  0.33076733804E+03  0.75199648540E+03  0.96206182867E+03  0.00000000000E+00 0. -1.
         -2    1    3    3    0  502 -0.60342077330E+03  0.50338516503E+03  0.89517601042E+03  0.11911563053E+04  0.00000000000E+00 0.  1.
         15    1    5    5    0    0  0.57505028769E+03 -0.41915691974E+03  0.22451045473E+03  0.74617924036E+03  0.17770000000E+01 0.  1.
        -15    1    5    5    0    0  0.43572171408E+03 -0.41736768510E+03  0.21517211877E+03  0.64058675846E+03  0.17770000000E+01 0. -1.
          3    1    6    6  503    0  0.38975879576E+02 -0.42108410151E+02  0.75842723031E+02  0.95101819283E+02  0.00000000000E+00 0. -1.
         -3    1    6    6    0  503  0.54329676803E+02  0.44480511917E+02  0.15228618658E+03  0.16769410349E+03  0.00000000000E+00 0.  1.
<mgrwt>
<rscale>  0 0.14142188E+04</rscale>
<asrwt>0</asrwt>
<pdfrwt beam="1">  1        2 0.47059723E+00 0.14142188E+04</pdfrwt>
<pdfrwt beam="2">  1       -2 0.11444585E+00 0.14142188E+04</pdfrwt>
<totfact> 0.91881230E-01</totfact>
</mgrwt>
</event>
<event>
12    1  0.9321077E-008  0.7694545E+03  0.7818608E-02  0.9605314E-01
         -2   -1    0    0    0  501 -0.00000000000E+00  0.00000000000E+00  0.17052380987E+04  0.17052380987E+04  0.00000000000E+00 0.  1.
          2   -1    0    0  501    0  0.00000000000E+00 -0.00000000000E+00 -0.48650212999E+03  0.48650212999E+03  0.00000000000E+00 0. -1.
         23    2    1    2    0    0 -0.67488538134E+02  0.74422103709E+03  0.91830591597E+03  0.11873933432E+04  0.90540274706E+02 0.  0.
    5000000    2    1    2    0    0  0.67488538134E+02 -0.74422103709E+03  0.30043005278E+03  0.10043468855E+04  0.60002899517E+03 0.  0.
         23    2    4    4    0    0 -0.71053586494E+02 -0.38396417100E+03  0.42922475086E+03  0.58742873399E+03  0.91441423859E+02 0.  0.
         23    2    4    4    0    0  0.13854212463E+03 -0.36025686609E+03 -0.12879469808E+03  0.41691815155E+03  0.90850101669E+02 0.  0.
          3    1    3    3  502    0  0.34852573601E+01  0.23872618828E+03  0.24060350332E+03  0.33895779354E+03  0.00000000000E+00 0. -1.
         -3    1    3    3    0  502 -0.70973795494E+02  0.50549484881E+03  0.67770241265E+03  0.84843554966E+03  0.00000000000E+00 0.  1.
         15    1    5    5    0    0 -0.13953865576E+02 -0.26245920950E+03  0.32167109915E+03  0.41539740101E+03  0.17770000000E+01 0.  1.
        -15    1    5    5    0    0 -0.57099720918E+02 -0.12150496150E+03  0.10755365172E+03  0.17203133297E+03  0.17770000000E+01 0. -1.
          2    1    6    6  503    0  0.60545820411E+02 -0.25202878768E+03 -0.56889009174E+02  0.26536892349E+03  0.00000000000E+00 0. -1.
         -2    1    6    6    0  503  0.77996304217E+02 -0.10822807842E+03 -0.71905688909E+02  0.15154922806E+03  0.00000000000E+00 0.  1.
<mgrwt>
<rscale>  0 0.76945449E+03</rscale>
<asrwt>0</asrwt>
<pdfrwt beam="1">  1        2 0.74846483E-01 0.76945449E+03</pdfrwt>
<pdfrwt beam="2">  1       -2 0.26234432E+00 0.76945449E+03</pdfrwt>
<totfact> 0.35318679E+00</totfact>
</mgrwt>
</event>
<event>
12    1  0.9321077E-008  0.6310473E+03  0.7818608E-02  0.9843007E-01
         -2   -1    0    0    0  501 -0.00000000000E+00  0.00000000000E+00  0.34732875884E+03  0.34732875884E+03  0.00000000000E+00 0.  1.
          2   -1    0    0  501    0  0.00000000000E+00 -0.00000000000E+00 -0.12372022588E+04  0.12372022588E+04  0.00000000000E+00 0. -1.
         23    2    1    2    0    0  0.51059912356E+03 -0.49759250529E+02 -0.33582221287E+03  0.62006609238E+03  0.92292753042E+02 0.  0.
    5000000    2    1    2    0    0 -0.51059912356E+03  0.49759250529E+02 -0.55405128710E+03  0.96446492526E+03  0.60002692883E+03 0.  0.
         23    2    4    4    0    0 -0.17174579151E+03 -0.22972682230E+03 -0.37529822689E+03  0.48152885617E+03  0.93542773291E+02 0.  0.
         23    2    4    4    0    0 -0.33885333205E+03  0.27948607283E+03 -0.17875306021E+03  0.48293606909E+03  0.91326582887E+02 0.  0.
          1    1    3    3  502    0  0.25453585284E+02 -0.24519582646E+02 -0.19638005037E+02  0.40431994494E+02  0.00000000000E+00 0.  1.
         -1    1    3    3    0  502  0.48514553828E+03 -0.25239667883E+02 -0.31618420783E+03  0.57963409788E+03  0.00000000000E+00 0. -1.
         15    1    5    5    0    0 -0.15467036924E+03 -0.13476971467E+03 -0.25909643505E+03  0.33048437104E+03  0.17770000000E+01 0.  1.
        -15    1    5    5    0    0 -0.17075422270E+02 -0.94957107629E+02 -0.11620179183E+03  0.15104448513E+03  0.17770000000E+01 0. -1.
          1    1    6    6  503    0 -0.17209472468E+03  0.14646162437E+03 -0.14083844106E+03  0.26627630040E+03  0.00000000000E+00 0. -1.
         -1    1    6    6    0  503 -0.16675860737E+03  0.13302444846E+03 -0.37914619147E+02  0.21665976868E+03  0.00000000000E+00 0.  1.
<mgrwt>
<rscale>  0 0.63104729E+03</rscale>
<asrwt>0</asrwt>
<pdfrwt beam="1">  1        2 0.19033881E+00 0.63104729E+03</pdfrwt>
<pdfrwt beam="2">  1       -2 0.53435193E-01 0.63104729E+03</pdfrwt>
<totfact> 0.61181751E+01</totfact>
</mgrwt>
</event>
<event>
12    1  0.9321077E-008  0.8105152E+03  0.7818608E-02  0.9544920E-01
          1   -1    0    0  501    0  0.00000000000E+00  0.00000000000E+00  0.14805992179E+04  0.14805992179E+04  0.00000000000E+00 0. -1.
         -1   -1    0    0    0  501 -0.00000000000E+00 -0.00000000000E+00 -0.46348464802E+03  0.46348464802E+03  0.00000000000E+00 0.  1.
         23    2    1    2    0    0  0.17059285400E+02 -0.71487267465E+03  0.49559026186E+03  0.87479507643E+03  0.91229150587E+02 0.  0.
    5000000    2    1    2    0    0 -0.17059285400E+02  0.71487267465E+03  0.52152430800E+03  0.10692887895E+04  0.60004745749E+03 0.  0.
         23    2    4    4    0    0 -0.32301200781E+02  0.79793523973E+03  0.41268388950E+03  0.90368118026E+03  0.92669674244E+02 0.  0.
         23    2    4    4    0    0  0.15241915381E+02 -0.83062565076E+02  0.10884041851E+03  0.16560760920E+03  0.91912664111E+02 0.  0.
          3    1    3    3  502    0  0.23464981447E+02 -0.40392955553E+03  0.22747638074E+03  0.46417151462E+03  0.00000000000E+00 0. -1.
         -3    1    3    3    0  502 -0.64056960462E+01 -0.31094311912E+03  0.26811388112E+03  0.41062356182E+03  0.00000000000E+00 0.  1.
         15    1    5    5    0    0 -0.45681983532E+02  0.17633431271E+03  0.97098572368E+02  0.20642655823E+03  0.17770000000E+01 0.  1.
        -15    1    5    5    0    0  0.13380782750E+02  0.62160092702E+03  0.31558531713E+03  0.69725462203E+03  0.17770000000E+01 0. -1.
          4    1    6    6  503    0 -0.20419737997E+02 -0.17621051123E+02 -0.69987851558E+01  0.27864854856E+02  0.00000000000E+00 0.  1.
         -4    1    6    6    0  503  0.35661653378E+02 -0.65441513953E+02  0.11583920366E+03  0.13774275435E+03  0.00000000000E+00 0. -1.
<mgrwt>
<rscale>  0 0.81051519E+03</rscale>
<asrwt>0</asrwt>
<pdfrwt beam="1">  1        1 0.22778449E+00 0.81051519E+03</pdfrwt>
<pdfrwt beam="2">  1       -1 0.71305331E-01 0.81051519E+03</pdfrwt>
<totfact> 0.13777651E+01</totfact>
</mgrwt>
</event>
<event>
12    1  0.9321077E-008  0.1228664E+04  0.7818608E-02  0.9088131E-01
         -2   -1    0    0    0  501 -0.00000000000E+00  0.00000000000E+00  0.24263207434E+04  0.24263207434E+04  0.00000000000E+00 0.  1.
          2   -1    0    0  501    0  0.00000000000E+00 -0.00000000000E+00 -0.85157294975E+03  0.85157294975E+03  0.00000000000E+00 0. -1.
         23    2    1    2    0    0  0.11569993687E+04  0.21072094988E+03 -0.54716408577E+02  0.11807292352E+04  0.89870927582E+02 0.  0.
    5000000    2    1    2    0    0 -0.11569993687E+04 -0.21072094988E+03  0.16294642022E+04  0.20971644579E+04  0.59991192636E+03 0.  0.
         23    2    4    4    0    0 -0.11480834736E+04 -0.11816737424E+03  0.12857630294E+04  0.17301792236E+04  0.90963660832E+02 0.  0.
         23    2    4    4    0    0 -0.89158951387E+01 -0.92553575641E+02  0.34370117285E+03  0.36698523430E+03  0.88893241713E+02 0.  0.
          4    1    3    3  502    0  0.56095409828E+03  0.11596861654E+03 -0.69511964414E+02  0.57701831305E+03  0.00000000000E+00 0. -1.
         -4    1    3    3    0  502  0.59604527042E+03  0.94752333341E+02  0.14795555836E+02  0.60371092216E+03  0.00000000000E+00 0.  1.
         15    1    5    5    0    0 -0.58333571490E+03 -0.51331221426E+02  0.71890468711E+03  0.92722303544E+03  0.17770000000E+01 0. -1.
        -15    1    5    5    0    0 -0.56474775867E+03 -0.66836152812E+02  0.56685834224E+03  0.80295618818E+03  0.17770000000E+01 0.  1.
          1    1    6    6  503    0  0.26843410982E+02 -0.86321525781E+02  0.21422839695E+03  0.23252049498E+03  0.00000000000E+00 0. -1.
         -1    1    6    6    0  503 -0.35759306121E+02 -0.62320498597E+01  0.12947277590E+03  0.13446473932E+03  0.00000000000E+00 0.  1.
<mgrwt>
<rscale>  0 0.12286636E+04</rscale>
<asrwt>0</asrwt>
<pdfrwt beam="1">  1        2 0.13101122E+00 0.12286636E+04</pdfrwt>
<pdfrwt beam="2">  1       -2 0.37328011E+00 0.12286636E+04</pdfrwt>
<totfact> 0.34409683E-01</totfact>
</mgrwt>
</event>
<event>
12    1  0.9321077E-008  0.7399083E+03  0.7818608E-02  0.9651317E-01
          1   -1    0    0  501    0  0.00000000000E+00  0.00000000000E+00  0.86742515390E+03  0.86742515390E+03  0.00000000000E+00 0. -1.
         -1   -1    0    0    0  501 -0.00000000000E+00 -0.00000000000E+00 -0.66059641563E+03  0.66059641563E+03  0.00000000000E+00 0.  1.
         23    2    1    2    0    0 -0.55099500492E+03 -0.30433198821E+03  0.16267289399E+03  0.65733039316E+03  0.96991344133E+02 0.  0.
    5000000    2    1    2    0    0  0.55099500492E+03  0.30433198821E+03  0.44155844293E+02  0.87069117637E+03  0.59994994086E+03 0.  0.
         23    2    4    4    0    0  0.29281600677E+03  0.45382145218E+03  0.91091057606E+02  0.55533501050E+03  0.91674799290E+02 0.  0.
         23    2    4    4    0    0  0.25817899815E+03 -0.14948946397E+03 -0.46935213313E+02  0.31535616588E+03  0.90791531462E+02 0.  0.
          3    1    3    3  502    0 -0.44928057184E+03 -0.27783583082E+03  0.10926076775E+03  0.53942904676E+03  0.00000000000E+00 0. -1.
         -3    1    3    3    0  502 -0.10171443307E+03 -0.26496157391E+02  0.53412126236E+02  0.11790134639E+03  0.00000000000E+00 0.  1.
         15    1    5    5    0    0  0.26829515977E+03  0.35658048463E+03  0.88875423887E+02  0.45500981690E+03  0.17770000000E+01 0.  1.
        -15    1    5    5    0    0  0.24520846999E+02  0.97240967555E+02  0.22156337189E+01  0.10032519360E+03  0.17770000000E+01 0. -1.
          4    1    6    6  503    0  0.20177475097E+02 -0.22243766630E+02 -0.33714577685E+02  0.45150729824E+02  0.00000000000E+00 0. -1.
         -4    1    6    6    0  503  0.23800152305E+03 -0.12724569734E+03 -0.13220635628E+02  0.27020543605E+03  0.00000000000E+00 0.  1.
<mgrwt>
<rscale>  0 0.73990835E+03</rscale>
<asrwt>0</asrwt>
<pdfrwt beam="1">  1        1 0.13345002E+00 0.73990835E+03</pdfrwt>
<pdfrwt beam="2">  1       -1 0.10163022E+00 0.73990835E+03</pdfrwt>
<totfact> 0.18309896E+01</totfact>
</mgrwt>
</event>
<event>
12    1  0.9321077E-008  0.1535005E+04  0.7818608E-02  0.8861503E-01
          2   -1    0    0  501    0  0.00000000000E+00  0.00000000000E+00  0.21698149629E+04  0.21698149629E+04  0.00000000000E+00 0. -1.
         -2   -1    0    0    0  501 -0.00000000000E+00 -0.00000000000E+00 -0.11084800786E+04  0.11084800786E+04  0.00000000000E+00 0.  1.
         23    2    1    2    0    0 -0.11868952352E+04  0.90107325824E+03  0.57444883186E+03  0.15996143034E+04  0.90117385979E+02 0.  0.
    5000000    2    1    2    0    0  0.11868952352E+04 -0.90107325824E+03  0.48688605244E+03  0.16786807380E+04  0.60021469177E+03 0.  0.
         23    2    4    4    0    0  0.98657056576E+03 -0.46835022781E+03  0.47326528786E+03  0.11935518022E+04  0.88951979667E+02 0.  0.
         23    2    4    4    0    0  0.20032466941E+03 -0.43272303042E+03  0.13620764578E+02  0.48512893585E+03  0.88234715042E+02 0.  0.
          4    1    3    3  502    0 -0.34826975485E+03  0.24491093940E+03  0.20480075283E+03  0.47245797564E+03  0.00000000000E+00 0.  1.
         -4    1    3    3    0  502 -0.83862548031E+03  0.65616231883E+03  0.36964807903E+03  0.11271563278E+04  0.00000000000E+00 0. -1.
         15    1    5    5    0    0  0.34738070819E+03 -0.20861694493E+03  0.19345409322E+03  0.44902341814E+03  0.17770000000E+01 0. -1.
        -15    1    5    5    0    0  0.63918985757E+03 -0.25973328289E+03  0.27981119464E+03  0.74452838404E+03  0.17770000000E+01 0.  1.
          2    1    6    6  503    0  0.19363860312E+03 -0.33977344920E+03  0.21046590886E+02  0.39164379784E+03  0.00000000000E+00 0.  1.
         -2    1    6    6    0  503  0.66860662859E+01 -0.92949581221E+02 -0.74258263076E+01  0.93485138005E+02  0.00000000000E+00 0. -1.
<mgrwt>
<rscale>  0 0.15350052E+04</rscale>
<asrwt>0</asrwt>
<pdfrwt beam="1">  1        2 0.33381769E+00 0.15350052E+04</pdfrwt>
<pdfrwt beam="2">  1       -2 0.17053540E+00 0.15350052E+04</pdfrwt>
<totfact> 0.10648049E+00</totfact>
</mgrwt>
</event>
<event>
12    1  0.9321077E-008  0.9328163E+03  0.7818608E-02  0.9385464E-01
          2   -1    0    0  501    0  0.00000000000E+00  0.00000000000E+00  0.64377913143E+03  0.64377913143E+03  0.00000000000E+00 0. -1.
         -2   -1    0    0    0  501 -0.00000000000E+00 -0.00000000000E+00 -0.16317635595E+04  0.16317635595E+04  0.00000000000E+00 0.  1.
         23    2    1    2    0    0 -0.43991053492E+03  0.79785365195E+03 -0.22168519080E+03  0.94185025036E+03  0.88576755500E+02 0.  0.
    5000000    2    1    2    0    0  0.43991053492E+03 -0.79785365195E+03 -0.76629923724E+03  0.13336924405E+04  0.60118988370E+03 0.  0.
         23    2    4    4    0    0  0.70155755121E+02 -0.36582342165E+03 -0.63682744238E+03  0.74329128441E+03  0.90466216416E+02 0.  0.
         23    2    4    4    0    0  0.36975477980E+03 -0.43203023030E+03 -0.12947179487E+03  0.59040115612E+03  0.91879608201E+02 0.  0.
          4    1    3    3  502    0 -0.26748472325E+03  0.39396830434E+03 -0.12001958815E+03  0.49108431408E+03  0.00000000000E+00 0. -1.
         -4    1    3    3    0  502 -0.17242581167E+03  0.40388534762E+03 -0.10166560265E+03  0.45076593628E+03  0.00000000000E+00 0.  1.
         15    1    5    5    0    0  0.10132701132E+01 -0.12877137087E+03 -0.29224191682E+03  0.31936121923E+03  0.17770000000E+01 0. -1.
        -15    1    5    5    0    0  0.69142485008E+02 -0.23705205078E+03 -0.34458552555E+03  0.42393006518E+03  0.17770000000E+01 0.  1.
          3    1    6    6  503    0  0.11637222308E+03 -0.81621938791E+02 -0.14022328959E+02  0.14283298256E+03  0.00000000000E+00 0. -1.
         -3    1    6    6    0  503  0.25338255672E+03 -0.35040829151E+03 -0.11544946591E+03  0.44756817357E+03  0.00000000000E+00 0.  1.
<mgrwt>
<rscale>  0 0.93281628E+03</rscale>
<asrwt>0</asrwt>
<pdfrwt beam="1">  1        2 0.99042944E-01 0.93281628E+03</pdfrwt>
<pdfrwt beam="2">  1       -2 0.25104055E+00 0.93281628E+03</pdfrwt>
<totfact> 0.28993527E+00</totfact>
</mgrwt>
</event>
<event>
12    1  0.9321077E-008  0.3176827E+03  0.7818608E-02  0.1076721E+00
         -1   -1    0    0    0  501 -0.00000000000E+00  0.00000000000E+00  0.12759488537E+03  0.12759488537E+03  0.00000000000E+00 0. -1.
          1   -1    0    0  501    0  0.00000000000E+00 -0.00000000000E+00 -0.96074348145E+03  0.96074348145E+03  0.00000000000E+00 0.  1.
         23    2    1    2    0    0  0.40300730320E+02  0.59771911080E+01 -0.12170331828E+03  0.15710693007E+03  0.90614646275E+02 0.  0.
    5000000    2    1    2    0    0 -0.40300730320E+02 -0.59771911080E+01 -0.71144527780E+03  0.93123143674E+03  0.59948121722E+03 0.  0.
         23    2    4    4    0    0  0.90286377626E+02  0.24341052417E+03 -0.19165979873E+03  0.33313654013E+03  0.82741541337E+02 0.  0.
         23    2    4    4    0    0 -0.13058710795E+03 -0.24938771527E+03 -0.51978547908E+03  0.59809489661E+03  0.91067753924E+02 0.  0.
          2    1    3    3  502    0 -0.16362812885E+02  0.65941453703E+01  0.49768475464E+01  0.18330123027E+02  0.00000000000E+00 0. -1.
         -2    1    3    3    0  502  0.56663543205E+02 -0.61695426237E+00 -0.12668016582E+03  0.13877680705E+03  0.00000000000E+00 0.  1.
         15    1    5    5    0    0  0.89678790884E+02  0.12406324358E+03 -0.10531733798E+03  0.18581946440E+03  0.17770000000E+01 0. -1.
        -15    1    5    5    0    0  0.60758674206E+00  0.11934728058E+03 -0.86342460745E+02  0.14731707573E+03  0.17770000000E+01 0.  1.
          4    1    6    6  503    0 -0.71287234398E+02 -0.70980878284E+02 -0.12206030652E+03  0.15817355436E+03  0.00000000000E+00 0. -1.
         -4    1    6    6    0  503 -0.59299873549E+02 -0.17840683699E+03 -0.39772517256E+03  0.43992134226E+03  0.00000000000E+00 0.  1.
<mgrwt>
<rscale>  0 0.31768266E+03</rscale>
<asrwt>0</asrwt>
<pdfrwt beam="1">  1        1 0.14780670E+00 0.31768266E+03</pdfrwt>
<pdfrwt beam="2">  1       -1 0.19629982E-01 0.31768266E+03</pdfrwt>
<totfact> 0.35663994E+02</totfact>
</mgrwt>
</event>
<event>
12    1  0.9321077E-008  0.1116179E+04  0.7818608E-02  0.9189565E-01
         -2   -1    0    0    0  501 -0.00000000000E+00  0.00000000000E+00  0.77674162556E+03  0.77674162556E+03  0.00000000000E+00 0.  1.
          2   -1    0    0  501    0  0.00000000000E+00 -0.00000000000E+00 -0.16993868317E+04  0.16993868317E+04  0.00000000000E+00 0. -1.
         23    2    1    2    0    0  0.37540327420E+03 -0.98394654244E+03 -0.23537742979E+03  0.10827544214E+04  0.88747878865E+02 0.  0.
    5000000    2    1    2    0    0 -0.37540327420E+03  0.98394654244E+03 -0.68726777639E+03  0.13933740359E+04  0.60006315562E+03 0.  0.
         23    2    4    4    0    0  0.10565505624E+03  0.95827872656E+02 -0.22222386091E+03  0.27750541965E+03  0.85321987150E+02 0.  0.
         23    2    4    4    0    0 -0.48105833044E+03  0.88811866978E+03 -0.46504391548E+03  0.11158686162E+04  0.93407903575E+02 0.  0.
          3    1    3    3  502    0  0.23735791294E+03 -0.56428326242E+03 -0.17619204918E+03  0.63702277611E+03  0.00000000000E+00 0. -1.
         -3    1    3    3    0  502  0.13804536126E+03 -0.41966328001E+03 -0.59185380609E+02  0.44573164532E+03  0.00000000000E+00 0.  1.
         15    1    5    5    0    0  0.18993894266E+02 -0.15805388410E+02 -0.36711554932E+02  0.44288534822E+02  0.17770000000E+01 0.  1.
        -15    1    5    5    0    0  0.86661161969E+02  0.11163326107E+03 -0.18551230598E+03  0.23321688483E+03  0.17770000000E+01 0. -1.
          1    1    6    6  503    0 -0.47100135884E+03  0.83910002251E+03 -0.45672311559E+03  0.10651418366E+04  0.00000000000E+00 0. -1.
         -1    1    6    6    0  503 -0.10056971592E+02  0.49018647267E+02 -0.83207998906E+01  0.50726779597E+02  0.00000000000E+00 0.  1.
<mgrwt>
<rscale>  0 0.11161786E+04</rscale>
<asrwt>0</asrwt>
<pdfrwt beam="1">  1        2 0.26144412E+00 0.11161786E+04</pdfrwt>
<pdfrwt beam="2">  1       -2 0.11949871E+00 0.11161786E+04</pdfrwt>
<totfact> 0.51778863E+00</totfact>
</mgrwt>
</event>
<event>
12    1  0.9321077E-008  0.4596622E+03  0.7818608E-02  0.1024879E+00
          1   -1    0    0  501    0  0.00000000000E+00  0.00000000000E+00  0.49727073534E+03  0.49727073534E+03  0.00000000000E+00 0. -1.
         -1   -1    0    0    0  501 -0.00000000000E+00 -0.00000000000E+00 -0.94198863834E+03  0.94198863834E+03  0.00000000000E+00 0.  1.
         23    2    1    2    0    0 -0.43169306095E+03 -0.20879649950E+02  0.17280914617E+03  0.47593665712E+03  0.99286665438E+02 0.  0.
    5000000    2    1    2    0    0  0.43169306095E+03  0.20879649950E+02 -0.61752704916E+03  0.96332271656E+03  0.59988010564E+03 0.  0.
         23    2    4    4    0    0  0.11552745686E+03 -0.70010326363E+02  0.84128794404E+02  0.18324562053E+03  0.90847478284E+02 0.  0.
         23    2    4    4    0    0  0.31616560409E+03  0.90889976313E+02 -0.70165584357E+03  0.78007709603E+03  0.89317836601E+02 0.  0.
          1    1    3    3  502    0 -0.24406772620E+03 -0.18100290394E+01  0.14871467896E+03  0.28581180331E+03  0.00000000000E+00 0. -1.
         -1    1    3    3    0  502 -0.18762533475E+03 -0.19069620910E+02  0.24094467206E+02  0.19012485380E+03  0.00000000000E+00 0.  1.
         15    1    5    5    0    0  0.12291148532E+03 -0.47667882384E+02  0.89103372992E+02  0.15912896984E+03  0.17770000000E+01 0. -1.
        -15    1    5    5    0    0 -0.73840284657E+01 -0.22342443979E+02 -0.49745785886E+01  0.24116650689E+02  0.17770000000E+01 0.  1.
          3    1    6    6  503    0  0.19701013944E+03  0.37056483795E+02 -0.33027834711E+03  0.38635471344E+03  0.00000000000E+00 0. -1.
         -3    1    6    6    0  503  0.11915546466E+03  0.53833492518E+02 -0.37137749646E+03  0.39372238259E+03  0.00000000000E+00 0.  1.
<mgrwt>
<rscale>  0 0.45966219E+03</rscale>
<asrwt>0</asrwt>
<pdfrwt beam="1">  1        1 0.76503191E-01 0.45966219E+03</pdfrwt>
<pdfrwt beam="2">  1       -1 0.14492133E+00 0.45966219E+03</pdfrwt>
<totfact> 0.18275410E+01</totfact>
</mgrwt>
</event>
<event>
12    1  0.9321077E-008  0.1143275E+04  0.7818608E-02  0.9164010E-01
          2   -1    0    0  501    0  0.00000000000E+00  0.00000000000E+00  0.26262582479E+04  0.26262582479E+04  0.00000000000E+00 0. -1.
         -2   -1    0    0    0  501 -0.00000000000E+00 -0.00000000000E+00 -0.90604396872E+03  0.90604396872E+03  0.00000000000E+00 0.  1.
         23    2    1    2    0    0 -0.10790856125E+03 -0.10817423675E+04 -0.32619593077E+03  0.11386707905E+04  0.91414313674E+02 0.  0.
    5000000    2    1    2    0    0  0.10790856125E+03  0.10817423675E+04  0.20464102100E+04  0.23936314261E+04  0.59988819739E+03 0.  0.
         23    2    4    4    0    0  0.29535702362E+02 -0.12716251430E+02  0.40964098712E+03  0.42095328091E+03  0.91443237123E+02 0.  0.
         23    2    4    4    0    0  0.78372858887E+02  0.10944586189E+04  0.16367692229E+04  0.19726781452E+04  0.91997837682E+02 0.  0.
          3    1    3    3  502    0 -0.89783725154E+02 -0.54319520729E+03 -0.19499257897E+03  0.58407555708E+03  0.00000000000E+00 0. -1.
         -3    1    3    3    0  502 -0.18124836094E+02 -0.53854716020E+03 -0.13120335180E+03  0.55459523345E+03  0.00000000000E+00 0.  1.
         15    1    5    5    0    0 -0.29593515900E+02  0.11918432207E+02  0.11057529024E+03  0.11509942550E+03  0.17770000000E+01 0.  1.
        -15    1    5    5    0    0  0.59129218262E+02 -0.24634683637E+02  0.29906569687E+03  0.30585385541E+03  0.17770000000E+01 0. -1.
          2    1    6    6  503    0  0.66195859915E+02  0.33157546037E+03  0.50688932690E+03  0.60931188033E+03  0.00000000000E+00 0. -1.
         -2    1    6    6    0  503  0.12176998972E+02  0.76288315855E+03  0.11298798960E+04  0.13633662649E+04  0.00000000000E+00 0.  1.
<mgrwt>
<rscale>  0 0.11432747E+04</rscale>
<asrwt>0</asrwt>
<pdfrwt beam="1">  1        2 0.40403973E+00 0.11432747E+04</pdfrwt>
<pdfrwt beam="2">  1       -2 0.13939138E+00 0.11432747E+04</pdfrwt>
<totfact> 0.10536550E+00</totfact>
</mgrwt>
</event>
<event>
12    1  0.9321077E-008  0.1093510E+04  0.7818608E-02  0.9211540E-01
          2   -1    0    0  501    0  0.00000000000E+00  0.00000000000E+00  0.30075426591E+04  0.30075426591E+04  0.00000000000E+00 0.  1.
         -2   -1    0    0    0  501 -0.00000000000E+00 -0.00000000000E+00 -0.46890296894E+03  0.46890296894E+03  0.00000000000E+00 0. -1.
         23    2    1    2    0    0 -0.54817483307E+03  0.91614441151E+03  0.16337074392E+04  0.19538801287E+04  0.93975157197E+02 0.  0.
    5000000    2    1    2    0    0  0.54817483307E+03 -0.91614441151E+03  0.90493225098E+03  0.15225654993E+04  0.59957242311E+03 0.  0.
         23    2    4    4    0    0  0.51137274536E+03 -0.87058944733E+03  0.96472880027E+03  0.13994331321E+04  0.91012980019E+02 0.  0.
         23    2    4    4    0    0  0.36802087705E+02 -0.45554964181E+02 -0.59796549286E+02  0.12313236728E+03  0.90312259102E+02 0.  0.
          3    1    3    3  502    0 -0.29626529704E+03  0.58248902996E+03  0.10134500201E+04  0.12058804001E+04  0.00000000000E+00 0. -1.
         -3    1    3    3    0  502 -0.25190953603E+03  0.33365538155E+03  0.62025741916E+03  0.74799972861E+03  0.00000000000E+00 0.  1.
         15    1    5    5    0    0  0.13422043946E+03 -0.23177050927E+03  0.20230196940E+03  0.33565151554E+03  0.17770000000E+01 0. -1.
        -15    1    5    5    0    0  0.37715230590E+03 -0.63881893807E+03  0.76242683087E+03  0.10637816165E+04  0.17770000000E+01 0.  1.
          1    1    6    6  503    0  0.66054008996E+02 -0.34214196633E+02 -0.31148908881E+02  0.80647367472E+02  0.00000000000E+00 0. -1.
         -1    1    6    6    0  503 -0.29251921291E+02 -0.11340767549E+02 -0.28647640405E+02  0.42484999807E+02  0.00000000000E+00 0.  1.
<mgrwt>
<rscale>  0 0.10935101E+04</rscale>
<asrwt>0</asrwt>
<pdfrwt beam="1">  1        2 0.46269886E+00 0.10935101E+04</pdfrwt>
<pdfrwt beam="2">  1       -2 0.72138920E-01 0.10935101E+04</pdfrwt>
<totfact> 0.30227250E+00</totfact>
</mgrwt>
</event>
<event>
12    1  0.9321077E-008  0.8102231E+03  0.7818608E-02  0.9545336E-01
          2   -1    0    0  501    0  0.00000000000E+00  0.00000000000E+00  0.10242674069E+04  0.10242674069E+04  0.00000000000E+00 0.  1.
         -2   -1    0    0    0  501 -0.00000000000E+00 -0.00000000000E+00 -0.97274894041E+03  0.97274894041E+03  0.00000000000E+00 0. -1.
         23    2    1    2    0    0  0.47324865922E+03 -0.53585961386E+03  0.57906498561E+03  0.92480148281E+03  0.93977155928E+02 0.  0.
    5000000    2    1    2    0    0 -0.47324865922E+03  0.53585961386E+03 -0.52754651911E+03  0.10722148645E+04  0.60019127503E+03 0.  0.
         23    2    4    4    0    0  0.28214378726E+02  0.36789186360E+03 -0.31843396191E+03  0.49607242004E+03  0.92450978136E+02 0.  0.
         23    2    4    4    0    0 -0.50146303794E+03  0.16796775026E+03 -0.20911255720E+03  0.57614244446E+03  0.92378088216E+02 0.  0.
          3    1    3    3  502    0  0.29771570157E+03 -0.36143167635E+03  0.43104851793E+03  0.63645134962E+03  0.00000000000E+00 0. -1.
         -3    1    3    3    0  502  0.17553295765E+03 -0.17442793752E+03  0.14801646768E+03  0.28835013319E+03  0.00000000000E+00 0.  1.
         15    1    5    5    0    0  0.62682240112E+01  0.34125300440E+03 -0.30859712201E+03  0.46013937572E+03  0.17770000000E+01 0.  1.
        -15    1    5    5    0    0  0.21946154715E+02  0.26638859204E+02 -0.98368399032E+01  0.35933044329E+02  0.17770000000E+01 0. -1.
          4    1    6    6  503    0 -0.31073461448E+03  0.10504219461E+03 -0.17710259951E+03  0.37276694333E+03  0.00000000000E+00 0.  1.
         -4    1    6    6    0  503 -0.19072842347E+03  0.62925555645E+02 -0.32009957689E+02  0.20337550114E+03  0.00000000000E+00 0. -1.
<mgrwt>
<rscale>  0 0.81022309E+03</rscale>
<asrwt>0</asrwt>
<pdfrwt beam="1">  1        2 0.15757960E+00 0.81022309E+03</pdfrwt>
<pdfrwt beam="2">  1       -2 0.14965368E+00 0.81022309E+03</pdfrwt>
<totfact> 0.74091573E+00</totfact>
</mgrwt>
</event>
<event>
12    1  0.9321077E-008  0.1086023E+04  0.7818608E-02  0.9218923E-01
          1   -1    0    0  501    0  0.00000000000E+00  0.00000000000E+00  0.14428016219E+04  0.14428016219E+04  0.00000000000E+00 0. -1.
         -1   -1    0    0    0  501 -0.00000000000E+00 -0.00000000000E+00 -0.10993727000E+04  0.10993727000E+04  0.00000000000E+00 0.  1.
         23    2    1    2    0    0 -0.10383403716E+04 -0.10265899807E+03  0.73166742467E+03  0.12774694184E+04  0.88889242424E+02 0.  0.
    5000000    2    1    2    0    0  0.10383403716E+04  0.10265899807E+03 -0.38823850285E+03  0.12647049035E+04  0.60004979838E+03 0.  0.
         23    2    4    4    0    0 -0.79459792444E+00  0.53047531701E+02  0.71894354266E+02  0.12348632405E+03  0.85237327777E+02 0.  0.
         23    2    4    4    0    0  0.10391349696E+04  0.49611466364E+02 -0.46013285711E+03  0.11412185794E+04  0.91623235455E+02 0.  0.
          3    1    3    3  502    0 -0.77560639662E+03 -0.11463422558E+03  0.53865563833E+03  0.95123928896E+03  0.00000000000E+00 0. -1.
         -3    1    3    3    0  502 -0.26273397503E+03  0.11975227517E+02  0.19301178634E+03  0.32623012947E+03  0.00000000000E+00 0.  1.
         15    1    5    5    0    0  0.19186854701E+02  0.57946847715E+02  0.80562157124E+02  0.10109100575E+03  0.17770000000E+01 0.  1.
        -15    1    5    5    0    0 -0.19981452626E+02 -0.48993160143E+01 -0.86678028588E+01  0.22395318302E+02  0.17770000000E+01 0. -1.
          3    1    6    6  503    0  0.85958670456E+03  0.70794780260E+02 -0.39951659070E+03  0.95053390777E+03  0.00000000000E+00 0. -1.
         -3    1    6    6    0  503  0.17954826501E+03 -0.21183313895E+02 -0.60616266411E+02  0.19068467167E+03  0.00000000000E+00 0.  1.
<mgrwt>
<rscale>  0 0.10860230E+04</rscale>
<asrwt>0</asrwt>
<pdfrwt beam="1">  1        1 0.22196948E+00 0.10860230E+04</pdfrwt>
<pdfrwt beam="2">  1       -1 0.16913426E+00 0.10860230E+04</pdfrwt>
<totfact> 0.17795178E+00</totfact>
</mgrwt>
</event>
<event>
12    1  0.9321077E-008  0.1275527E+04  0.7818608E-02  0.9049201E-01
          2   -1    0    0  501    0  0.00000000000E+00  0.00000000000E+00  0.32873961042E+04  0.32873961042E+04  0.00000000000E+00 0. -1.
         -2   -1    0    0    0  501 -0.00000000000E+00 -0.00000000000E+00 -0.64648463475E+03  0.64648463475E+03  0.00000000000E+00 0.  1.
         23    2    1    2    0    0 -0.11882621173E+04  0.23048464543E+03  0.33147137632E+03  0.12583766212E+04  0.92457646257E+02 0.  0.
    5000000    2    1    2    0    0  0.11882621173E+04 -0.23048464543E+03  0.23094400931E+04  0.26755041177E+04  0.59976554493E+03 0.  0.
         23    2    4    4    0    0  0.26844947836E+03  0.17364488542E+03  0.44241569249E+03  0.55338636786E+03  0.91033831698E+02 0.  0.
         23    2    4    4    0    0  0.91981263895E+03 -0.40412953085E+03  0.18670244006E+04  0.21221177498E+04  0.90706466835E+02 0.  0.
          1    1    3    3  502    0 -0.18466432398E+03  0.34872940272E+02  0.86913747055E+02  0.20705321524E+03  0.00000000000E+00 0.  1.
         -1    1    3    3    0  502 -0.10035977933E+04  0.19561170516E+03  0.24455762926E+03  0.10513234060E+04  0.00000000000E+00 0. -1.
         15    1    5    5    0    0  0.27133155330E+03  0.15355564162E+03  0.40953677212E+03  0.51470736573E+03  0.17770000000E+01 0. -1.
        -15    1    5    5    0    0 -0.28820749409E+01  0.20089243802E+02  0.32878920365E+02  0.38679002131E+02  0.17770000000E+01 0.  1.
          2    1    6    6  503    0  0.60869535328E+03 -0.31214032929E+03  0.12891213723E+04  0.14593750481E+04  0.00000000000E+00 0.  1.
         -2    1    6    6    0  503  0.31111728566E+03 -0.91989201560E+02  0.57790302829E+03  0.66274270177E+03  0.00000000000E+00 0. -1.
<mgrwt>
<rscale>  0 0.12755266E+04</rscale>
<asrwt>0</asrwt>
<pdfrwt beam="1">  1        2 0.50575324E+00 0.12755266E+04</pdfrwt>
<pdfrwt beam="2">  1       -2 0.99459176E-01 0.12755266E+04</pdfrwt>
<totfact> 0.93661065E-01</totfact>
</mgrwt>
</event>
<event>
12    1  0.9321077E-008  0.1078823E+04  0.7818608E-02  0.9226081E-01
          2   -1    0    0  501    0  0.00000000000E+00  0.00000000000E+00  0.21785866893E+04  0.21785866893E+04  0.00000000000E+00 0. -1.
         -2   -1    0    0    0  501 -0.00000000000E+00 -0.00000000000E+00 -0.55304102516E+03  0.55304102516E+03  0.00000000000E+00 0.  1.
         23    2    1    2    0    0  0.57250608118E+03 -0.82306070723E+03  0.57163662574E+03  0.11581492552E+04  0.96690872129E+02 0.  0.
    5000000    2    1    2    0    0 -0.57250608118E+03  0.82306070723E+03  0.10539090384E+04  0.15734784592E+04  0.59993171244E+03 0.  0.
         23    2    4    4    0    0 -0.55077876018E+03  0.89001971115E+03  0.91547604919E+03  0.13935277231E+04  0.91273159082E+02 0.  0.
         23    2    4    4    0    0 -0.21727320999E+02 -0.66959003913E+02  0.13843298918E+03  0.17995073606E+03  0.90900991389E+02 0.  0.
          2    1    3    3  502    0  0.57315943858E+02 -0.49145614584E+02  0.63388752451E+02  0.98582669828E+02  0.00000000000E+00 0. -1.
         -2    1    3    3    0  502  0.51519013732E+03 -0.77391509265E+03  0.50824787328E+03  0.10595665854E+04  0.00000000000E+00 0.  1.
         15    1    5    5    0    0 -0.41105317413E+03  0.58417976117E+03  0.63008534638E+03  0.95249220825E+03  0.17770000000E+01 0.  1.
        -15    1    5    5    0    0 -0.13972558605E+03  0.30583994997E+03  0.28539070282E+03  0.44103551487E+03  0.17770000000E+01 0. -1.
          4    1    6    6  503    0  0.27504136925E+02 -0.25681058325E+02  0.95588672985E+02  0.10272871413E+03  0.00000000000E+00 0. -1.
         -4    1    6    6    0  503 -0.49231457923E+02 -0.41277945588E+02  0.42844316190E+02  0.77222021930E+02  0.00000000000E+00 0.  1.
<mgrwt>
<rscale>  0 0.10788235E+04</rscale>
<asrwt>0</asrwt>
<pdfrwt beam="1">  1        2 0.33516718E+00 0.10788235E+04</pdfrwt>
<pdfrwt beam="2">  1       -2 0.85083235E-01 0.10788235E+04</pdfrwt>
<totfact> 0.63510382E+00</totfact>
</mgrwt>
</event>
<event>
12    1  0.9321077E-008  0.7983784E+03  0.7818608E-02  0.9562367E-01
          2   -1    0    0  501    0  0.00000000000E+00  0.00000000000E+00  0.20018871404E+04  0.20018871404E+04  0.00000000000E+00 0. -1.
         -2   -1    0    0    0  501 -0.00000000000E+00 -0.00000000000E+00 -0.40676629777E+03  0.40676629777E+03  0.00000000000E+00 0.  1.
         23    2    1    2    0    0 -0.72128681945E+03 -0.31053626186E+03  0.50935424186E+03  0.94046194022E+03  0.91320706676E+02 0.  0.
    5000000    2    1    2    0    0  0.72128681945E+03  0.31053626186E+03  0.10857666007E+04  0.14681914979E+04  0.60000809778E+03 0.  0.
         23    2    4    4    0    0  0.51397640186E+03  0.13327262197E+03  0.10482934356E+04  0.11784494063E+04  0.88828726202E+02 0.  0.
         23    2    4    4    0    0  0.20731041759E+03  0.17726363989E+03  0.37473165088E+02  0.28974209158E+03  0.90256491536E+02 0.  0.
          3    1    3    3  502    0 -0.34604827730E+03 -0.19730925603E+03  0.24400167491E+03  0.46713720693E+03  0.00000000000E+00 0. -1.
         -3    1    3    3    0  502 -0.37523854214E+03 -0.11322700584E+03  0.26535256695E+03  0.47332473329E+03  0.00000000000E+00 0.  1.
         15    1    5    5    0    0  0.21937022212E+03  0.38751620831E+02  0.52860839577E+03  0.57363313736E+03  0.17770000000E+01 0.  1.
        -15    1    5    5    0    0  0.29460617974E+03  0.94521001140E+02  0.51968503987E+03  0.60481626895E+03  0.17770000000E+01 0. -1.
          1    1    6    6  503    0  0.22475345681E+02  0.32460007841E+02  0.38202990884E+02  0.54938709350E+02  0.00000000000E+00 0. -1.
         -1    1    6    6    0  503  0.18483507191E+03  0.14480363205E+03 -0.72982579655E+00  0.23480338223E+03  0.00000000000E+00 0.  1.
<mgrwt>
<rscale>  0 0.79837845E+03</rscale>
<asrwt>0</asrwt>
<pdfrwt beam="1">  1        2 0.30798263E+00 0.79837845E+03</pdfrwt>
<pdfrwt beam="2">  1       -2 0.62579431E-01 0.79837845E+03</pdfrwt>
<totfact> 0.16222262E+01</totfact>
</mgrwt>
</event>
<event>
12    1  0.9321077E-008  0.3801391E+03  0.7818608E-02  0.1050882E+00
         -2   -1    0    0    0  501 -0.00000000000E+00  0.00000000000E+00  0.59805427528E+02  0.59805427528E+02  0.00000000000E+00 0.  1.
          2   -1    0    0  501    0  0.00000000000E+00 -0.00000000000E+00 -0.32010973700E+04  0.32010973700E+04  0.00000000000E+00 0. -1.
         23    2    1    2    0    0 -0.34729584579E+02  0.13656820954E+03 -0.22349881654E+03  0.27873709367E+03  0.88801050050E+02 0.  0.
    5000000    2    1    2    0    0  0.34729584579E+02 -0.13656820954E+03 -0.29177931260E+04  0.29821657039E+04  0.59994878084E+03 0.  0.
         23    2    4    4    0    0  0.27770053220E+03 -0.19304613571E+03 -0.16377595039E+04  0.16749672555E+04  0.94205723378E+02 0.  0.
         23    2    4    4    0    0 -0.24297094762E+03  0.56477926166E+02 -0.12800336221E+04  0.13071984484E+04  0.89761195975E+02 0.  0.
          4    1    3    3  502    0  0.60632634360E+01  0.50522869662E+02 -0.15014851120E+03  0.15853674318E+03  0.00000000000E+00 0. -1.
         -4    1    3    3    0  502 -0.40792848015E+02  0.86045339881E+02 -0.73350305338E+02  0.12020035049E+03  0.00000000000E+00 0.  1.
         15    1    5    5    0    0  0.71241339968E+01 -0.36136658682E+02 -0.22449073555E+03  0.22749914167E+03  0.17770000000E+01 0. -1.
        -15    1    5    5    0    0  0.27057639820E+03 -0.15690947703E+03 -0.14132687683E+04  0.14474681138E+04  0.17770000000E+01 0.  1.
          3    1    6    6  503    0 -0.21292354316E+02 -0.20778609826E+02 -0.11833269335E+03  0.12201533221E+03  0.00000000000E+00 0. -1.
         -3    1    6    6    0  503 -0.22167859330E+03  0.77256535993E+02 -0.11617009288E+04  0.11851831162E+04  0.00000000000E+00 0.  1.
<mgrwt>
<rscale>  0 0.38013907E+03</rscale>
<asrwt>0</asrwt>
<pdfrwt beam="1">  1        2 0.49247657E+00 0.38013907E+03</pdfrwt>
<pdfrwt beam="2">  1       -2 0.92008341E-02 0.38013907E+03</pdfrwt>
<totfact> 0.11562811E+02</totfact>
</mgrwt>
</event>
<event>
12    1  0.9321077E-008  0.5095016E+03  0.7818608E-02  0.1011328E+00
         -2   -1    0    0    0  501 -0.00000000000E+00  0.00000000000E+00  0.97081110448E+03  0.97081110448E+03  0.00000000000E+00 0.  1.
          2   -1    0    0  501    0  0.00000000000E+00 -0.00000000000E+00 -0.53181190158E+03  0.53181190158E+03  0.00000000000E+00 0. -1.
         23    2    1    2    0    0  0.31689450407E+03  0.20701793013E+03  0.65446120980E+03  0.76117453950E+03  0.88253353176E+02 0.  0.
    5000000    2    1    2    0    0 -0.31689450407E+03 -0.20701793013E+03 -0.21546200689E+03  0.74144846656E+03  0.60003616728E+03 0.  0.
         23    2    4    4    0    0  0.13281709174E+03 -0.81984356643E+02  0.59811185308E+02  0.19186936888E+03  0.94205425727E+02 0.  0.
         23    2    4    4    0    0 -0.44971159580E+03 -0.12503357349E+03 -0.27527319220E+03  0.54957909768E+03  0.91585699541E+02 0.  0.
          4    1    3    3  502    0  0.29933231613E+03  0.19271234382E+03  0.64479922141E+03  0.73654865343E+03  0.00000000000E+00 0. -1.
         -4    1    3    3    0  502  0.17562187937E+02  0.14305586313E+02  0.96619883827E+01  0.24625886063E+02  0.00000000000E+00 0.  1.
         15    1    5    5    0    0  0.61158109796E+02 -0.69143088187E+02  0.73203374871E+02  0.11782602794E+03  0.17770000000E+01 0.  1.
        -15    1    5    5    0    0  0.71658981939E+02 -0.12841268455E+02 -0.13392189563E+02  0.74043340945E+02  0.17770000000E+01 0. -1.
          4    1    6    6  503    0 -0.18699676706E+03 -0.97938744414E+02 -0.13444343494E+03  0.25026950622E+03  0.00000000000E+00 0. -1.
         -4    1    6    6    0  503 -0.26271482875E+03 -0.27094829074E+02 -0.14082975726E+03  0.29930959145E+03  0.00000000000E+00 0.  1.
<mgrwt>
<rscale>  0 0.50950155E+03</rscale>
<asrwt>0</asrwt>
<pdfrwt beam="1">  1        2 0.81817216E-01 0.50950155E+03</pdfrwt>
<pdfrwt beam="2">  1       -2 0.14935555E+00 0.50950155E+03</pdfrwt>
<totfact> 0.18071378E+01</totfact>
</mgrwt>
</event>
<event>
12    1  0.9321077E-008  0.5698841E+03  0.7818608E-02  0.9969935E-01
         -1   -1    0    0    0  501 -0.00000000000E+00  0.00000000000E+00  0.18625388252E+04  0.18625388252E+04  0.00000000000E+00 0.  1.
          1   -1    0    0  501    0  0.00000000000E+00 -0.00000000000E+00 -0.19031597052E+03  0.19031597052E+03  0.00000000000E+00 0. -1.
         23    2    1    2    0    0 -0.18730589550E+03 -0.39641334131E+03  0.62535755468E+03  0.76903822207E+03  0.90114816502E+02 0.  0.
    5000000    2    1    2    0    0  0.18730589550E+03  0.39641334131E+03  0.10468653000E+04  0.12838165737E+04  0.60002583508E+03 0.  0.
         23    2    4    4    0    0  0.32208393832E+03  0.41284485909E+03  0.96716482558E+03  0.11036481313E+04  0.91937244078E+02 0.  0.
         23    2    4    4    0    0 -0.13477804282E+03 -0.16431517779E+02  0.79700474426E+02  0.18016844237E+03  0.87597867548E+02 0.  0.
          3    1    3    3  502    0 -0.16432287754E+03 -0.24859627005E+03  0.41366525037E+03  0.50982453151E+03  0.00000000000E+00 0. -1.
         -3    1    3    3    0  502 -0.22983017962E+02 -0.14781707126E+03  0.21169230430E+03  0.25921369056E+03  0.00000000000E+00 0.  1.
         15    1    5    5    0    0  0.15632859832E+02  0.65745382522E+02  0.14721721666E+03  0.16199663034E+03  0.17770000000E+01 0. -1.
        -15    1    5    5    0    0  0.30645107849E+03  0.34709947657E+03  0.81994760892E+03  0.94165150095E+03  0.17770000000E+01 0.  1.
          3    1    6    6  503    0 -0.93099308774E+02  0.31265298991E+02  0.50174413159E+02  0.11028359783E+03  0.00000000000E+00 0. -1.
         -3    1    6    6    0  503 -0.41678734042E+02 -0.47696816770E+02  0.29526061268E+02  0.69884844532E+02  0.00000000000E+00 0.  1.
<mgrwt>
<rscale>  0 0.56988414E+03</rscale>
<asrwt>0</asrwt>
<pdfrwt beam="1">  1        1 0.29279381E-01 0.56988414E+03</pdfrwt>
<pdfrwt beam="2">  1       -1 0.28654442E+00 0.56988414E+03</pdfrwt>
<totfact> 0.68557721E+00</totfact>
</mgrwt>
</event>
<event>
12    1  0.1052645E-007  0.1071752E+04  0.7818608E-02  0.9233170E-01
         -1   -1    0    0    0  501 -0.00000000000E+00  0.00000000000E+00  0.14276590789E+04  0.14276590789E+04  0.00000000000E+00 0.  1.
          1   -1    0    0  501    0  0.00000000000E+00 -0.00000000000E+00 -0.10117035131E+04  0.10117035131E+04  0.00000000000E+00 0. -1.
         23    2    1    2    0    0  0.10510920259E+04 -0.70404326623E+02 -0.20681919601E+03  0.10763870985E+04  0.77998653148E+02 0.  0.
    5000000    2    1    2    0    0 -0.10510920259E+04  0.70404326623E+02  0.62277476180E+03  0.13629754935E+04  0.60008547388E+03 0.  0.
         23    2    4    4    0    0 -0.95045324271E+03  0.36479696869E+02  0.71583442161E+03  0.11947818458E+04  0.10194412753E+03 0.  0.
         23    2    4    4    0    0 -0.10063878319E+03  0.33924629754E+02 -0.93059659808E+02  0.16819364771E+03  0.91378102734E+02 0.  0.
          4    1    3    3  502    0  0.75216775193E+03 -0.49169987636E+02 -0.18360143763E+03  0.77581151231E+03  0.00000000000E+00 0. -1.
         -4    1    3    3    0  502  0.29892427396E+03 -0.21234338987E+02 -0.23217758385E+02  0.30057558620E+03  0.00000000000E+00 0.  1.
         15    1    5    5    0    0 -0.39000148397E+03 -0.31638835691E+02  0.27010512323E+03  0.47545989183E+03  0.17770000000E+01 0. -1.
        -15    1    5    5    0    0 -0.56045175874E+03  0.68118532559E+02  0.44572929838E+03  0.71932195401E+03  0.17770000000E+01 0.  1.
          4    1    6    6  503    0 -0.93339201415E+02 -0.60658571746E+01 -0.40960471825E+02  0.10211151451E+03  0.00000000000E+00 0. -1.
         -4    1    6    6    0  503 -0.72995817757E+01  0.39990486929E+02 -0.52099187983E+02  0.66082133193E+02  0.00000000000E+00 0.  1.
<mgrwt>
<rscale>  0 0.10717519E+04</rscale>
<asrwt>0</asrwt>
<pdfrwt beam="1">  1        1 0.15564669E+00 0.10717519E+04</pdfrwt>
<pdfrwt beam="2">  1       -1 0.21963986E+00 0.10717519E+04</pdfrwt>
<totfact> 0.16333554E+00</totfact>
</mgrwt>
</event>
<event>
12    1  0.9321077E-008  0.3892742E+03  0.7818608E-02  0.1047558E+00
          2   -1    0    0  501    0  0.00000000000E+00  0.00000000000E+00  0.87773449114E+03  0.87773449114E+03  0.00000000000E+00 0. -1.
         -2   -1    0    0    0  501 -0.00000000000E+00 -0.00000000000E+00 -0.28825349796E+03  0.28825349796E+03  0.00000000000E+00 0.  1.
         23    2    1    2    0    0 -0.56986444489E+02 -0.30213079113E+03  0.28213528841E+03  0.42508867827E+03  0.81053029696E+02 0.  0.
    5000000    2    1    2    0    0  0.56986444489E+02  0.30213079113E+03  0.30734570478E+03  0.74089931083E+03  0.59994994519E+03 0.  0.
         23    2    4    4    0    0  0.11913210267E+03 -0.14068877017E+02 -0.12496445643E+03  0.19495147900E+03  0.89440329851E+02 0.  0.
         23    2    4    4    0    0 -0.62145658184E+02  0.31619966815E+03  0.43231016121E+03  0.54594783183E+03  0.85572464206E+02 0.  0.
          3    1    3    3  502    0 -0.36104510928E+02 -0.23980701027E+03  0.17374395282E+03  0.29832515654E+03  0.00000000000E+00 0. -1.
         -3    1    3    3    0  502 -0.20881933561E+02 -0.62323780861E+02  0.10839133559E+03  0.12676352173E+03  0.00000000000E+00 0.  1.
         15    1    5    5    0    0  0.40987826019E+02 -0.41003641931E+02 -0.20038571587E+02  0.61367765266E+02  0.17770000000E+01 0.  1.
        -15    1    5    5    0    0  0.78144276654E+02  0.26934764914E+02 -0.10492588485E+03  0.13358371373E+03  0.17770000000E+01 0. -1.
          3    1    6    6  503    0 -0.72095861086E+02  0.19293937769E+03  0.22915719056E+03  0.30811756626E+03  0.00000000000E+00 0. -1.
         -3    1    6    6    0  503  0.99502029021E+01  0.12326029046E+03  0.20315297065E+03  0.23783026557E+03  0.00000000000E+00 0.  1.
<mgrwt>
<rscale>  0 0.38927423E+03</rscale>
<asrwt>0</asrwt>
<pdfrwt beam="1">  1        2 0.13503607E+00 0.38927423E+03</pdfrwt>
<pdfrwt beam="2">  1       -2 0.44346692E-01 0.38927423E+03</pdfrwt>
<totfact> 0.15248418E+02</totfact>
</mgrwt>
</event>
<event>
12    1  0.9321077E-008  0.1181879E+04  0.7818608E-02  0.9128867E-01
         -2   -1    0    0    0  501 -0.00000000000E+00  0.00000000000E+00  0.40779909032E+03  0.40779909032E+03  0.00000000000E+00 0.  1.
          2   -1    0    0  501    0  0.00000000000E+00 -0.00000000000E+00 -0.34762037253E+04  0.34762037253E+04  0.00000000000E+00 0. -1.
         23    2    1    2    0    0  0.82214551277E+03  0.74670462044E+03 -0.13172565507E+04  0.17253036948E+04  0.89537614523E+02 0.  0.
    5000000    2    1    2    0    0 -0.82214551277E+03 -0.74670462044E+03 -0.17511480843E+04  0.21586991208E+04  0.59997603865E+03 0.  0.
         23    2    4    4    0    0 -0.71276973985E+03 -0.27923576149E+03 -0.10073095138E+04  0.12685654735E+04  0.92588289096E+02 0.  0.
         23    2    4    4    0    0 -0.10937577292E+03 -0.46746885895E+03 -0.74383857042E+03  0.89013364736E+03  0.92476470177E+02 0.  0.
          2    1    3    3  502    0  0.69409520493E+03  0.60456597307E+03 -0.11318910856E+04  0.14589193257E+04  0.00000000000E+00 0. -1.
         -2    1    3    3    0  502  0.12805030784E+03  0.14213864736E+03 -0.18536546511E+03  0.26638436904E+03  0.00000000000E+00 0.  1.
         15    1    5    5    0    0 -0.36108573676E+03 -0.19105053059E+03 -0.53288742682E+03  0.67145765461E+03  0.17770000000E+01 0.  1.
        -15    1    5    5    0    0 -0.35168400309E+03 -0.88185230899E+02 -0.47442208701E+03  0.59710781887E+03  0.17770000000E+01 0. -1.
          3    1    6    6  503    0 -0.45699022860E+02 -0.25548420802E+03 -0.48062555425E+03  0.54622477482E+03  0.00000000000E+00 0. -1.
         -3    1    6    6    0  503 -0.63676750058E+02 -0.21198465093E+03 -0.26321301617E+03  0.34390887254E+03  0.00000000000E+00 0.  1.
<mgrwt>
<rscale>  0 0.11818791E+04</rscale>
<asrwt>0</asrwt>
<pdfrwt beam="1">  1        2 0.53480060E+00 0.11818791E+04</pdfrwt>
<pdfrwt beam="2">  1       -2 0.62738319E-01 0.11818791E+04</pdfrwt>
<totfact> 0.20057013E+00</totfact>
</mgrwt>
</event>
<event>
12    1  0.9321077E-008  0.2782212E+03  0.7818608E-02  0.1096664E+00
         -2   -1    0    0    0  501 -0.00000000000E+00  0.00000000000E+00  0.27560344662E+03  0.27560344662E+03  0.00000000000E+00 0. -1.
          2   -1    0    0  501    0  0.00000000000E+00 -0.00000000000E+00 -0.11288818108E+04  0.11288818108E+04  0.00000000000E+00 0.  1.
         23    2    1    2    0    0  0.20491819819E+03 -0.10122815287E+03 -0.70336924993E+03  0.74516710903E+03  0.91143358179E+02 0.  0.
    5000000    2    1    2    0    0 -0.20491819819E+03  0.10122815287E+03 -0.14990911427E+03  0.65931814841E+03  0.59999089276E+03 0.  0.
         23    2    4    4    0    0 -0.13254147885E+03  0.15485125183E+03  0.19242418711E+03  0.29418216445E+03  0.89274432435E+02 0.  0.
         23    2    4    4    0    0 -0.72376719341E+02 -0.53623098958E+02 -0.34233330138E+03  0.36513598396E+03  0.89545358906E+02 0.  0.
          2    1    3    3  502    0  0.12137828287E+03 -0.31896264867E+02 -0.26005645617E+03  0.28875494742E+03  0.00000000000E+00 0. -1.
         -2    1    3    3    0  502  0.83539915317E+02 -0.69331888002E+02 -0.44331279376E+03  0.45641216160E+03  0.00000000000E+00 0.  1.
         15    1    5    5    0    0 -0.93486564716E+02  0.15456698830E+03  0.17452646695E+03  0.25118387100E+03  0.17770000000E+01 0.  1.
        -15    1    5    5    0    0 -0.39054914133E+02  0.28426352760E+00  0.17897720160E+02  0.42998293450E+02  0.17770000000E+01 0. -1.
          2    1    6    6  503    0  0.23289908564E+01 -0.20981354367E+02 -0.10773731472E+02  0.23700521499E+02  0.00000000000E+00 0. -1.
         -2    1    6    6    0  503 -0.74705710197E+02 -0.32641744591E+02 -0.33155956991E+03  0.34143546246E+03  0.00000000000E+00 0.  1.
<mgrwt>
<rscale>  0 0.27822120E+03</rscale>
<asrwt>0</asrwt>
<pdfrwt beam="1">  1        2 0.17367413E+00 0.27822120E+03</pdfrwt>
<pdfrwt beam="2">  1       -2 0.42400529E-01 0.27822120E+03</pdfrwt>
<totfact> 0.11819214E+02</totfact>
</mgrwt>
</event>
<event>
12    1  0.9321077E-008  0.5649633E+03  0.7818608E-02  0.9980886E-01
          1   -1    0    0  501    0  0.00000000000E+00  0.00000000000E+00  0.81073297508E+03  0.81073297508E+03  0.00000000000E+00 0. -1.
         -1   -1    0    0    0  501 -0.00000000000E+00 -0.00000000000E+00 -0.56265002571E+03  0.56265002571E+03  0.00000000000E+00 0.  1.
         23    2    1    2    0    0 -0.33333639801E+03 -0.27883684090E+03 -0.22206510038E+03  0.49597757792E+03  0.88417820114E+02 0.  0.
    5000000    2    1    2    0    0  0.33333639801E+03  0.27883684090E+03  0.47014804975E+03  0.87740542286E+03  0.59994828886E+03 0.  0.
         23    2    4    4    0    0 -0.30325759183E+02  0.31780876928E+03  0.34961687063E+03  0.48159266484E+03  0.88189982960E+02 0.  0.
         23    2    4    4    0    0  0.36366215719E+03 -0.38971928382E+02  0.12053117912E+03  0.39581275803E+03  0.91493160960E+02 0.  0.
          2    1    3    3  502    0 -0.20062700043E+03 -0.15375498233E+03 -0.81029528566E+02  0.26543845312E+03  0.00000000000E+00 0. -1.
         -2    1    3    3    0  502 -0.13270939758E+03 -0.12508185856E+03 -0.14103557182E+03  0.23053912480E+03  0.00000000000E+00 0.  1.
         15    1    5    5    0    0  0.24580552621E+02  0.51253582275E+02  0.40964789092E+02  0.70088550688E+02  0.17770000000E+01 0. -1.
        -15    1    5    5    0    0 -0.54906311804E+02  0.26655518700E+03  0.30865208154E+03  0.41150411415E+03  0.17770000000E+01 0.  1.
          3    1    6    6  503    0  0.67695034718E+02 -0.57497646666E+01 -0.13417641859E+02  0.69251069538E+02  0.00000000000E+00 0. -1.
         -3    1    6    6    0  503  0.29596712247E+03 -0.33222163715E+02  0.13394882098E+03  0.32656168849E+03  0.00000000000E+00 0.  1.
<mgrwt>
<rscale>  0 0.56496331E+03</rscale>
<asrwt>0</asrwt>
<pdfrwt beam="1">  1        1 0.12472815E+00 0.56496331E+03</pdfrwt>
<pdfrwt beam="2">  1       -1 0.86561542E-01 0.56496331E+03</pdfrwt>
<totfact> 0.29877471E+01</totfact>
</mgrwt>
</event>
<event>
12    1  0.9321077E-008  0.8427297E+03  0.7818608E-02  0.9500147E-01
         -2   -1    0    0    0  501 -0.00000000000E+00  0.00000000000E+00  0.44875349930E+03  0.44875349930E+03  0.00000000000E+00 0.  1.
          2   -1    0    0  501    0  0.00000000000E+00 -0.00000000000E+00 -0.25405920126E+04  0.25405920126E+04  0.00000000000E+00 0. -1.
         23    2    1    2    0    0 -0.21214910512E+03 -0.76209563311E+03 -0.15287512314E+03  0.81092165028E+03  0.91793914860E+02 0.  0.
    5000000    2    1    2    0    0  0.21214910512E+03  0.76209563311E+03 -0.19389633901E+04  0.21784238616E+04  0.60012873259E+03 0.  0.
         23    2    4    4    0    0  0.15019215270E+03  0.76572719506E+03 -0.19064163790E+04  0.20619344663E+04  0.90854351414E+02 0.  0.
         23    2    4    4    0    0  0.61956952419E+02 -0.36315619429E+01 -0.32547011097E+02  0.11648939527E+03  0.93051701135E+02 0.  0.
          3    1    3    3  502    0 -0.17346031963E+03 -0.46581282616E+03 -0.81242876545E+02  0.50365710210E+03  0.00000000000E+00 0. -1.
         -3    1    3    3    0  502 -0.38688785484E+02 -0.29628280695E+03 -0.71632246599E+02  0.30726454819E+03  0.00000000000E+00 0.  1.
         15    1    5    5    0    0  0.28131296792E+02  0.10266080607E+03 -0.34824825386E+03  0.36415740417E+03  0.17770000000E+01 0. -1.
        -15    1    5    5    0    0  0.12206085591E+03  0.66306638898E+03 -0.15581681252E+04  0.16977770622E+04  0.17770000000E+01 0.  1.
          2    1    6    6  503    0  0.83307526471E+02 -0.15144375329E+02 -0.35962237694E+02  0.91993361775E+02  0.00000000000E+00 0. -1.
         -2    1    6    6    0  503 -0.21350574051E+02  0.11512813386E+02  0.34152265964E+01  0.24496033497E+02  0.00000000000E+00 0.  1.
<mgrwt>
<rscale>  0 0.84272968E+03</rscale>
<asrwt>0</asrwt>
<pdfrwt beam="1">  1        2 0.39086031E+00 0.84272968E+03</pdfrwt>
<pdfrwt beam="2">  1       -2 0.69038999E-01 0.84272968E+03</pdfrwt>
<totfact> 0.65357400E+00</totfact>
</mgrwt>
</event>
<event>
12    1  0.9321077E-008  0.1375167E+04  0.7818608E-02  0.8971993E-01
          2   -1    0    0  501    0  0.00000000000E+00  0.00000000000E+00  0.20851291491E+04  0.20851291491E+04  0.00000000000E+00 0. -1.
         -2   -1    0    0    0  501 -0.00000000000E+00 -0.00000000000E+00 -0.95018257084E+03  0.95018257084E+03  0.00000000000E+00 0.  1.
         23    2    1    2    0    0 -0.82199561469E+03 -0.10495663565E+04  0.70933933289E+03  0.15128881064E+04  0.91661365929E+02 0.  0.
    5000000    2    1    2    0    0  0.82199561469E+03  0.10495663565E+04  0.42560724540E+03  0.15224236136E+04  0.59947127082E+03 0.  0.
         23    2    4    4    0    0  0.37861732050E+03  0.83860577452E+03  0.43398795505E+03  0.10218240689E+04  0.95750521139E+02 0.  0.
         23    2    4    4    0    0  0.44337829419E+03  0.21096058200E+03 -0.83807096534E+01  0.50059954463E+03  0.97164751221E+02 0.  0.
          4    1    3    3  502    0 -0.76892489600E+03 -0.98885499285E+03  0.64060115329E+03  0.14069291134E+04  0.00000000000E+00 0. -1.
         -4    1    3    3    0  502 -0.53070718682E+02 -0.60711363672E+02  0.68738179596E+02  0.10595899298E+03  0.00000000000E+00 0.  1.
         15    1    5    5    0    0  0.82602485325E+02  0.29198305510E+03  0.14396946106E+03  0.33586848392E+03  0.17770000000E+01 0.  1.
        -15    1    5    5    0    0  0.29601483517E+03  0.54662271942E+03  0.29001849399E+03  0.68595558502E+03  0.17770000000E+01 0. -1.
          1    1    6    6  503    0  0.40992068701E+03  0.18546773269E+03  0.19141078322E+02  0.45033279959E+03  0.00000000000E+00 0. -1.
         -1    1    6    6    0  503  0.33457607180E+02  0.25492849310E+02 -0.27521787976E+02  0.50266745046E+02  0.00000000000E+00 0.  1.
<mgrwt>
<rscale>  0 0.13751666E+04</rscale>
<asrwt>0</asrwt>
<pdfrwt beam="1">  1        2 0.32078910E+00 0.13751666E+04</pdfrwt>
<pdfrwt beam="2">  1       -2 0.14618193E+00 0.13751666E+04</pdfrwt>
<totfact> 0.18370706E+00</totfact>
</mgrwt>
</event>
<event>
12    1  0.9321077E-008  0.5838968E+03  0.7818608E-02  0.9939390E-01
         -1   -1    0    0    0  501 -0.00000000000E+00  0.00000000000E+00  0.25475837833E+03  0.25475837833E+03  0.00000000000E+00 0. -1.
          1   -1    0    0  501    0  0.00000000000E+00 -0.00000000000E+00 -0.15301282294E+04  0.15301282294E+04  0.00000000000E+00 0.  1.
         23    2    1    2    0    0 -0.44314164585E+03 -0.16826743876E+03 -0.53600409200E+03  0.72112389845E+03  0.89614959943E+02 0.  0.
    5000000    2    1    2    0    0  0.44314164585E+03  0.16826743876E+03 -0.73936575905E+03  0.10637627093E+04  0.60020073869E+03 0.  0.
         23    2    4    4    0    0 -0.33581890572E+02  0.19670935097E+03 -0.56698188708E+02  0.22562260220E+03  0.88704914689E+02 0.  0.
         23    2    4    4    0    0  0.47672353642E+03 -0.28441912203E+02 -0.68266757034E+03  0.83814010706E+03  0.91485271587E+02 0.  0.
          2    1    3    3  502    0 -0.16129752297E+03 -0.19321908809E+02 -0.15753336367E+03  0.22628961034E+03  0.00000000000E+00 0. -1.
         -2    1    3    3    0  502 -0.28184412288E+03 -0.14894552995E+03 -0.37847072832E+03  0.49483428811E+03  0.00000000000E+00 0.  1.
         15    1    5    5    0    0 -0.12879145382E+02  0.14398603297E+03 -0.78968900139E+02  0.16473340583E+03  0.17770000000E+01 0.  1.
        -15    1    5    5    0    0 -0.20702745190E+02  0.52723317993E+02  0.22270711431E+02  0.60889196375E+02  0.17770000000E+01 0. -1.
          3    1    6    6  503    0  0.19763423313E+03 -0.54517710718E+02 -0.26293218243E+03  0.33341386211E+03  0.00000000000E+00 0. -1.
         -3    1    6    6    0  503  0.27908930330E+03  0.26075798515E+02 -0.41973538791E+03  0.50472624495E+03  0.00000000000E+00 0.  1.
<mgrwt>
<rscale>  0 0.58389679E+03</rscale>
<asrwt>0</asrwt>
<pdfrwt beam="1">  1        1 0.23540434E+00 0.58389679E+03</pdfrwt>
<pdfrwt beam="2">  1       -1 0.39193597E-01 0.58389679E+03</pdfrwt>
<totfact> 0.41483317E+01</totfact>
</mgrwt>
</event>
<event>
12    1  0.9321077E-008  0.8132587E+03  0.7818608E-02  0.9541022E-01
          2   -1    0    0  501    0  0.00000000000E+00  0.00000000000E+00  0.14426349331E+04  0.14426349331E+04  0.00000000000E+00 0. -1.
         -2   -1    0    0    0  501 -0.00000000000E+00 -0.00000000000E+00 -0.54200274773E+03  0.54200274773E+03  0.00000000000E+00 0.  1.
         23    2    1    2    0    0 -0.44432731974E+03 -0.54503280254E+03  0.77712850881E+03  0.10520922848E+04  0.92097414095E+02 0.  0.
    5000000    2    1    2    0    0  0.44432731974E+03  0.54503280254E+03  0.12350367658E+03  0.93254539602E+03  0.59991685640E+03 0.  0.
         23    2    4    4    0    0  0.49542111782E+03  0.16647508543E+03  0.53873140710E+02  0.53345525729E+03  0.92283033082E+02 0.  0.
         23    2    4    4    0    0 -0.51093798081E+02  0.37855771712E+03  0.69630535873E+02  0.39909013873E+03  0.92238852506E+02 0.  0.
          3    1    3    3  502    0 -0.34296457325E+03 -0.36956998028E+03  0.51427288484E+03  0.72019668766E+03  0.00000000000E+00 0. -1.
         -3    1    3    3    0  502 -0.10136274649E+03 -0.17546282226E+03  0.26285562397E+03  0.33189559717E+03  0.00000000000E+00 0.  1.
         15    1    5    5    0    0  0.12290022793E+03  0.73214336439E+00  0.85668997585E+01  0.12321343904E+03  0.17770000000E+01 0.  1.
        -15    1    5    5    0    0  0.37252088989E+03  0.16574294206E+03  0.45306240951E+02  0.41024181826E+03  0.17770000000E+01 0. -1.
          3    1    6    6  503    0 -0.18657745909E+02  0.33072378406E+03  0.79003845743E+02  0.34054065906E+03  0.00000000000E+00 0. -1.
         -3    1    6    6    0  503 -0.32436052171E+02  0.47833933054E+02 -0.93733098706E+01  0.58549479671E+02  0.00000000000E+00 0.  1.
<mgrwt>
<rscale>  0 0.81325868E+03</rscale>
<asrwt>0</asrwt>
<pdfrwt beam="1">  1        2 0.22194383E+00 0.81325868E+03</pdfrwt>
<pdfrwt beam="2">  1       -2 0.83385039E-01 0.81325868E+03</pdfrwt>
<totfact> 0.17487354E+01</totfact>
</mgrwt>
</event>
<event>
12    1  0.1099054E-007  0.1177436E+04  0.7818608E-02  0.9132839E-01
         -1   -1    0    0    0  501 -0.00000000000E+00  0.00000000000E+00  0.82138211399E+03  0.82138211399E+03  0.00000000000E+00 0.  1.
          1   -1    0    0  501    0  0.00000000000E+00 -0.00000000000E+00 -0.17794294425E+04  0.17794294425E+04  0.00000000000E+00 0. -1.
         23    2    1    2    0    0 -0.91305457798E+03  0.65160319773E+03 -0.61975426664E+03  0.12844963122E+04  0.87063399004E+02 0.  0.
    5000000    2    1    2    0    0  0.91305457798E+03 -0.65160319773E+03 -0.33829306187E+03  0.13163152443E+04  0.59999019734E+03 0.  0.
         23    2    4    4    0    0  0.49553096211E+03 -0.63052084382E+03 -0.68076405224E+02  0.81017343046E+03  0.92946875018E+02 0.  0.
         23    2    4    4    0    0  0.41752361587E+03 -0.21082353912E+02 -0.27021665664E+03  0.50614181380E+03  0.91608180282E+02 0.  0.
          2    1    3    3  502    0 -0.41021593988E+03  0.32436674069E+03 -0.32865708748E+03  0.61766202809E+03  0.00000000000E+00 0. -1.
         -2    1    3    3    0  502 -0.50283863810E+03  0.32723645704E+03 -0.29109717916E+03  0.66683428414E+03  0.00000000000E+00 0.  1.
         15    1    5    5    0    0  0.28718355624E+03 -0.41044762103E+03 -0.77855706014E+02  0.50695790088E+03  0.17770000000E+01 0. -1.
        -15    1    5    5    0    0  0.20834740587E+03 -0.22007322279E+03  0.97793007895E+01  0.30321552957E+03  0.17770000000E+01 0.  1.
          3    1    6    6  503    0  0.24002464929E+03 -0.57391033837E+02 -0.15751814340E+03  0.29277556000E+03  0.00000000000E+00 0. -1.
         -3    1    6    6    0  503  0.17749896658E+03  0.36308679925E+02 -0.11269851324E+03  0.21336625380E+03  0.00000000000E+00 0.  1.
<mgrwt>
<rscale>  0 0.11774362E+04</rscale>
<asrwt>0</asrwt>
<pdfrwt beam="1">  1        1 0.27375838E+00 0.11774362E+04</pdfrwt>
<pdfrwt beam="2">  1       -1 0.12636648E+00 0.11774362E+04</pdfrwt>
<totfact> 0.22587036E+00</totfact>
</mgrwt>
</event>
<event>
12    1  0.9321077E-008  0.4395531E+03  0.7818608E-02  0.1030884E+00
         -2   -1    0    0    0  501 -0.00000000000E+00  0.00000000000E+00  0.20551821886E+03  0.20551821886E+03  0.00000000000E+00 0.  1.
          2   -1    0    0  501    0  0.00000000000E+00 -0.00000000000E+00 -0.11526912924E+04  0.11526912924E+04  0.00000000000E+00 0. -1.
         23    2    1    2    0    0  0.23501294784E+03  0.16357732870E+03 -0.21686090249E+03  0.37065763631E+03  0.91486634031E+02 0.  0.
    5000000    2    1    2    0    0 -0.23501294784E+03 -0.16357732870E+03 -0.73031217102E+03  0.98755187492E+03  0.59992850440E+03 0.  0.
         23    2    4    4    0    0 -0.13418743750E+03 -0.34559957778E+03 -0.25061136509E+03  0.45681747419E+03  0.91819452585E+02 0.  0.
         23    2    4    4    0    0 -0.10082551034E+03  0.18202224908E+03 -0.47970080593E+03  0.53073440072E+03  0.90929963178E+02 0.  0.
          3    1    3    3  502    0  0.76803958924E+02  0.10453898377E+03 -0.11562496963E+03  0.17377105868E+03  0.00000000000E+00 0. -1.
         -3    1    3    3    0  502  0.15820898891E+03  0.59038344928E+02 -0.10123593286E+03  0.19688657762E+03  0.00000000000E+00 0.  1.
         15    1    5    5    0    0 -0.32537323575E+02 -0.80266086410E+02 -0.15476054330E+02  0.87999932044E+02  0.17770000000E+01 0. -1.
        -15    1    5    5    0    0 -0.10165011392E+03 -0.26533349137E+03 -0.23513531076E+03  0.36881754215E+03  0.17770000000E+01 0.  1.
          3    1    6    6  503    0 -0.35976233447E+02  0.92135852108E+02 -0.12666783091E+03  0.16071105751E+03  0.00000000000E+00 0. -1.
         -3    1    6    6    0  503 -0.64849276892E+02  0.89886396973E+02 -0.35303297502E+03  0.37002334322E+03  0.00000000000E+00 0.  1.
<mgrwt>
<rscale>  0 0.43955307E+03</rscale>
<asrwt>0</asrwt>
<pdfrwt beam="1">  1        2 0.17733712E+00 0.43955307E+03</pdfrwt>
<pdfrwt beam="2">  1       -2 0.31618188E-01 0.43955307E+03</pdfrwt>
<totfact> 0.19501014E+02</totfact>
</mgrwt>
</event>
<event>
12    1  0.9321077E-008  0.6211484E+03  0.7818608E-02  0.9862476E-01
         -1   -1    0    0    0  501 -0.00000000000E+00  0.00000000000E+00  0.88310561991E+03  0.88310561991E+03  0.00000000000E+00 0.  1.
          1   -1    0    0  501    0  0.00000000000E+00 -0.00000000000E+00 -0.49826351525E+03  0.49826351525E+03  0.00000000000E+00 0. -1.
         23    2    1    2    0    0 -0.39796923572E+03 -0.29528107401E+03  0.32933460134E+03  0.60117861491E+03  0.85930333047E+02 0.  0.
    5000000    2    1    2    0    0  0.39796923572E+03  0.29528107401E+03  0.55507503323E+02  0.78019052025E+03  0.60003811522E+03 0.  0.
         23    2    4    4    0    0 -0.71599315746E+02 -0.10208648947E+03  0.78879587612E+01  0.15665356698E+03  0.94498713250E+02 0.  0.
         23    2    4    4    0    0  0.46956855146E+03  0.39736756348E+03  0.47619544562E+02  0.62353695327E+03  0.90194822665E+02 0.  0.
          3    1    3    3  502    0 -0.21623108208E+03 -0.16501809286E+03  0.23121292628E+03  0.35699617520E+03  0.00000000000E+00 0. -1.
         -3    1    3    3    0  502 -0.18173815364E+03 -0.13026298115E+03  0.98121675062E+02  0.24418243971E+03  0.00000000000E+00 0.  1.
         15    1    5    5    0    0 -0.24477202186E+02 -0.68320034273E+02 -0.38695866833E+02  0.82263529884E+02  0.17770000000E+01 0.  1.
        -15    1    5    5    0    0 -0.47122113560E+02 -0.33766455198E+02  0.46583825594E+02  0.74390037095E+02  0.17770000000E+01 0. -1.
          3    1    6    6  503    0  0.35601793057E+03  0.32000841637E+03  0.71714052109E+02  0.48404241416E+03  0.00000000000E+00 0. -1.
         -3    1    6    6    0  503  0.11355062090E+03  0.77359147108E+02 -0.24094507547E+02  0.13949453911E+03  0.00000000000E+00 0.  1.
<mgrwt>
<rscale>  0 0.62114843E+03</rscale>
<asrwt>0</asrwt>
<pdfrwt beam="1">  1        1 0.76655926E-01 0.62114843E+03</pdfrwt>
<pdfrwt beam="2">  1       -1 0.13586240E+00 0.62114843E+03</pdfrwt>
<totfact> 0.21016474E+01</totfact>
</mgrwt>
</event>
<event>
12    1  0.9321077E-008  0.6818832E+03  0.7818608E-02  0.9748726E-01
         -2   -1    0    0    0  501 -0.00000000000E+00  0.00000000000E+00  0.15084369090E+04  0.15084369090E+04  0.00000000000E+00 0.  1.
          2   -1    0    0  501    0  0.00000000000E+00 -0.00000000000E+00 -0.77408712097E+03  0.77408712097E+03  0.00000000000E+00 0. -1.
         23    2    1    2    0    0 -0.44428369296E+03  0.43901253975E+03  0.11576603030E+04  0.13185415528E+04  0.90853946529E+02 0.  0.
    5000000    2    1    2    0    0  0.44428369296E+03 -0.43901253975E+03 -0.42331051495E+03  0.96398247712E+03  0.59995867710E+03 0.  0.
         23    2    4    4    0    0  0.16779608641E+02 -0.23909997029E+03 -0.40970646720E+03  0.48300737578E+03  0.89366575008E+02 0.  0.
         23    2    4    4    0    0  0.42750408432E+03 -0.19991256946E+03 -0.13604047752E+02  0.48097510134E+03  0.91799784625E+02 0.  0.
          4    1    3    3  502    0 -0.42765690923E+03  0.38779733602E+03  0.10558618902E+04  0.12033792158E+04  0.00000000000E+00 0. -1.
         -4    1    3    3    0  502 -0.16626783731E+02  0.51215203730E+02  0.10179841272E+03  0.11516233700E+03  0.00000000000E+00 0.  1.
         15    1    5    5    0    0  0.47968123821E+02 -0.18774478931E+03 -0.28597319697E+03  0.34544590594E+03  0.17770000000E+01 0. -1.
        -15    1    5    5    0    0 -0.31188515181E+02 -0.51355180985E+02 -0.12373327023E+03  0.13756146984E+03  0.17770000000E+01 0.  1.
          4    1    6    6  503    0  0.21998856274E+03 -0.14695564846E+03  0.14596173768E+02  0.26496033409E+03  0.00000000000E+00 0. -1.
         -4    1    6    6    0  503  0.20751552158E+03 -0.52956920999E+02 -0.28200221521E+02  0.21601476725E+03  0.00000000000E+00 0.  1.
<mgrwt>
<rscale>  0 0.68188320E+03</rscale>
<asrwt>0</asrwt>
<pdfrwt beam="1">  1        2 0.11909033E+00 0.68188320E+03</pdfrwt>
<pdfrwt beam="2">  1       -2 0.23206722E+00 0.68188320E+03</pdfrwt>
<totfact> 0.31008818E+00</totfact>
</mgrwt>
</event>
<event>
12    1  0.9321077E-008  0.5407737E+03  0.7818608E-02  0.1003652E+00
          2   -1    0    0  501    0  0.00000000000E+00  0.00000000000E+00  0.29656534544E+04  0.29656534544E+04  0.00000000000E+00 0.  1.
         -2   -1    0    0    0  501 -0.00000000000E+00 -0.00000000000E+00 -0.12235215912E+03  0.12235215912E+03  0.00000000000E+00 0. -1.
         23    2    1    2    0    0  0.15341909095E+03  0.35410059504E+03  0.49734023795E+03  0.63591162812E+03  0.90064630194E+02 0.  0.
    5000000    2    1    2    0    0 -0.15341909095E+03 -0.35410059504E+03  0.23459610573E+04  0.24520939854E+04  0.60025576373E+03 0.  0.
         23    2    4    4    0    0 -0.14411468399E+03  0.12964037778E+03  0.87381105747E+03  0.89985405012E+03  0.92821752163E+02 0.  0.
         23    2    4    4    0    0 -0.93044069596E+01 -0.48374097282E+03  0.14721499998E+04  0.15522399352E+04  0.90173686993E+02 0.  0.
          1    1    3    3  502    0  0.11951461900E+03  0.16628872235E+03  0.27556975676E+03  0.34332837659E+03  0.00000000000E+00 0. -1.
         -1    1    3    3    0  502  0.33904471949E+02  0.18781187269E+03  0.22177048119E+03  0.29258325152E+03  0.00000000000E+00 0.  1.
         15    1    5    5    0    0 -0.10783393366E+03  0.61669291923E+02  0.37294324248E+03  0.39309169242E+03  0.17770000000E+01 0.  1.
        -15    1    5    5    0    0 -0.36280750338E+02  0.67971085859E+02  0.50086781499E+03  0.50676235770E+03  0.17770000000E+01 0. -1.
          2    1    6    6  503    0 -0.18563419534E+02 -0.38262690863E+03  0.10396276532E+04  0.11079592091E+04  0.00000000000E+00 0.  1.
         -2    1    6    6    0  503  0.92590125742E+01 -0.10111406419E+03  0.43252234658E+03  0.44428072609E+03  0.00000000000E+00 0. -1.
<mgrwt>
<rscale>  0 0.54077366E+03</rscale>
<asrwt>0</asrwt>
<pdfrwt beam="1">  1        2 0.45625432E+00 0.54077366E+03</pdfrwt>
<pdfrwt beam="2">  1       -2 0.18823411E-01 0.54077366E+03</pdfrwt>
<totfact> 0.47459365E+01</totfact>
</mgrwt>
</event>
<event>
12    1  0.9321077E-008  0.4404798E+03  0.7818608E-02  0.1030600E+00
          1   -1    0    0  501    0  0.00000000000E+00  0.00000000000E+00  0.32425893675E+03  0.32425893675E+03  0.00000000000E+00 0. -1.
         -1   -1    0    0    0  501 -0.00000000000E+00 -0.00000000000E+00 -0.78320450363E+03  0.78320450363E+03  0.00000000000E+00 0.  1.
         23    2    1    2    0    0  0.26271221801E+03 -0.17681448853E+03 -0.14603747763E+03  0.36030280334E+03  0.90609560092E+02 0.  0.
    5000000    2    1    2    0    0 -0.26271221801E+03  0.17681448853E+03 -0.31290808924E+03  0.74716063704E+03  0.60004705847E+03 0.  0.
         23    2    4    4    0    0 -0.12316836986E+03 -0.14714614732E+03 -0.31814123948E+03  0.38288572399E+03  0.92548329949E+02 0.  0.
         23    2    4    4    0    0 -0.13954384815E+03  0.32396063586E+03  0.52331502351E+01  0.36427491304E+03  0.90806647724E+02 0.  0.
          1    1    3    3  502    0  0.56583870626E+02 -0.88621613751E+02 -0.48967586248E+02  0.11598857419E+03  0.00000000000E+00 0. -1.
         -1    1    3    3    0  502  0.20612834738E+03 -0.88192874782E+02 -0.97069891384E+02  0.24431422916E+03  0.00000000000E+00 0.  1.
         15    1    5    5    0    0 -0.87175220913E+02 -0.10857882197E+03 -0.14151453572E+03  0.19854067914E+03  0.17770000000E+01 0. -1.
        -15    1    5    5    0    0 -0.35993148947E+02 -0.38567325354E+02 -0.17662670375E+03  0.18434504486E+03  0.17770000000E+01 0.  1.
          3    1    6    6  503    0 -0.61399535260E+02  0.66483954087E+02  0.26674618858E+02  0.94348049118E+02  0.00000000000E+00 0. -1.
         -3    1    6    6    0  503 -0.78144312887E+02  0.25747668177E+03 -0.21441468622E+02  0.26992686393E+03  0.00000000000E+00 0.  1.
<mgrwt>
<rscale>  0 0.44047975E+03</rscale>
<asrwt>0</asrwt>
<pdfrwt beam="1">  1        1 0.49885991E-01 0.44047975E+03</pdfrwt>
<pdfrwt beam="2">  1       -1 0.12049300E+00 0.44047975E+03</pdfrwt>
<totfact> 0.51098691E+01</totfact>
</mgrwt>
</event>
<event>
12    1  0.9321077E-008  0.5409883E+03  0.7818608E-02  0.1003602E+00
          1   -1    0    0  501    0  0.00000000000E+00  0.00000000000E+00  0.13382092067E+04  0.13382092067E+04  0.00000000000E+00 0. -1.
         -1   -1    0    0    0  501 -0.00000000000E+00 -0.00000000000E+00 -0.49291096471E+03  0.49291096471E+03  0.00000000000E+00 0.  1.
         23    2    1    2    0    0  0.39059430469E+03  0.32462250266E+03 -0.17354277271E+03  0.54423209301E+03  0.90154295601E+02 0.  0.
    5000000    2    1    2    0    0 -0.39059430469E+03 -0.32462250266E+03  0.10188410147E+04  0.12868880784E+04  0.60008352169E+03 0.  0.
         23    2    4    4    0    0 -0.10888138550E+03  0.17510053646E+02 -0.29491125162E+02  0.14523753429E+03  0.89791184507E+02 0.  0.
         23    2    4    4    0    0 -0.28171291918E+03 -0.34213255630E+03  0.10483321398E+04  0.11416505441E+04  0.89156236417E+02 0.  0.
          2    1    3    3  502    0  0.26962648248E+03  0.27276751507E+03 -0.11699047507E+03  0.40098295299E+03  0.00000000000E+00 0. -1.
         -2    1    3    3    0  502  0.12096782221E+03  0.51854987585E+02 -0.56552297638E+02  0.14324914002E+03  0.00000000000E+00 0.  1.
         15    1    5    5    0    0 -0.27423228868E+02  0.29636381775E+02  0.24012625757E+02  0.47011833947E+02  0.17770000000E+01 0. -1.
        -15    1    5    5    0    0 -0.81458156635E+02 -0.12126328130E+02 -0.53503750918E+02  0.98225700342E+02  0.17770000000E+01 0.  1.
          1    1    6    6  503    0 -0.21032559156E+03 -0.27335703854E+03  0.89399877366E+03  0.95822478171E+03  0.00000000000E+00 0. -1.
         -1    1    6    6    0  503 -0.71387327623E+02 -0.68775517763E+02  0.15433336619E+03  0.18342576239E+03  0.00000000000E+00 0.  1.
<mgrwt>
<rscale>  0 0.54098831E+03</rscale>
<asrwt>0</asrwt>
<pdfrwt beam="1">  1        1 0.20587834E+00 0.54098831E+03</pdfrwt>
<pdfrwt beam="2">  1       -1 0.75832457E-01 0.54098831E+03</pdfrwt>
<totfact> 0.15869367E+01</totfact>
</mgrwt>
</event>
<event>
12    1  0.9321077E-008  0.7114958E+03  0.7818608E-02  0.9697772E-01
          1   -1    0    0  501    0  0.00000000000E+00  0.00000000000E+00  0.14303360278E+04  0.14303360278E+04  0.00000000000E+00 0. -1.
         -1   -1    0    0    0  501 -0.00000000000E+00 -0.00000000000E+00 -0.45286223958E+03  0.45286223958E+03  0.00000000000E+00 0.  1.
         23    2    1    2    0    0 -0.62575380241E+03  0.42336790699E+01  0.76288655490E+03  0.99009510182E+03  0.81894259409E+02 0.  0.
    5000000    2    1    2    0    0  0.62575380241E+03 -0.42336790699E+01  0.21458723334E+03  0.89310316558E+03  0.59999986533E+03 0.  0.
         23    2    4    4    0    0 -0.52733163645E+02 -0.87887301812E+02  0.14681380433E+03  0.20049268631E+03  0.90211195286E+02 0.  0.
         23    2    4    4    0    0  0.67848696606E+03  0.83653622742E+02  0.67773429016E+02  0.69261047927E+03  0.88167718663E+02 0.  0.
          1    1    3    3  502    0 -0.37679901733E+03 -0.31828822337E+02  0.49018429751E+03  0.61908902342E+03  0.00000000000E+00 0. -1.
         -1    1    3    3    0  502 -0.24895478508E+03  0.36062501407E+02  0.27270225738E+03  0.37100607839E+03  0.00000000000E+00 0.  1.
         15    1    5    5    0    0 -0.22804109340E+02 -0.71139547191E+02  0.14835898232E+03  0.16611564629E+03  0.17770000000E+01 0. -1.
        -15    1    5    5    0    0 -0.29929054305E+02 -0.16747754621E+02 -0.15451779975E+01  0.34377040019E+02  0.17770000000E+01 0.  1.
          1    1    6    6  503    0  0.22472986552E+03  0.14097839994E+02  0.61863604041E+02  0.23351523945E+03  0.00000000000E+00 0. -1.
         -1    1    6    6    0  503  0.45375710054E+03  0.69555782748E+02  0.59098249749E+01  0.45909523983E+03  0.00000000000E+00 0.  1.
<mgrwt>
<rscale>  0 0.71149576E+03</rscale>
<asrwt>0</asrwt>
<pdfrwt beam="1">  1        1 0.22005169E+00 0.71149576E+03</pdfrwt>
<pdfrwt beam="2">  1       -1 0.69671114E-01 0.71149576E+03</pdfrwt>
<totfact> 0.15860305E+01</totfact>
</mgrwt>
</event>
<event>
12    1  0.9321077E-008  0.8776869E+03  0.7818608E-02  0.9453912E-01
          1   -1    0    0  501    0  0.00000000000E+00  0.00000000000E+00  0.21589708954E+04  0.21589708954E+04  0.00000000000E+00 0. -1.
         -1   -1    0    0    0  501 -0.00000000000E+00 -0.00000000000E+00 -0.37397647832E+03  0.37397647832E+03  0.00000000000E+00 0.  1.
         23    2    1    2    0    0 -0.51641236777E+02  0.78526410858E+03  0.63415706963E+03  0.10148749061E+04  0.92246130070E+02 0.  0.
    5000000    2    1    2    0    0  0.51641236777E+02 -0.78526410858E+03  0.11508373474E+04  0.15180724676E+04  0.60067535251E+03 0.  0.
         23    2    4    4    0    0 -0.45739187258E+02  0.60349739351E+02  0.67115819422E+02  0.13690340064E+03  0.92216287066E+02 0.  0.
         23    2    4    4    0    0  0.97380424035E+02 -0.84561384793E+03  0.10837215280E+04  0.13811690670E+04  0.92897332975E+02 0.  0.
          1    1    3    3  502    0 -0.23859269170E+02  0.27212201096E+03  0.16562343966E+03  0.31945387357E+03  0.00000000000E+00 0. -1.
         -1    1    3    3    0  502 -0.27781967608E+02  0.51314209762E+03  0.46853362997E+03  0.69542103253E+03  0.00000000000E+00 0.  1.
         15    1    5    5    0    0 -0.60389079623E+02  0.77808748606E+01  0.52407754150E+02  0.80356165758E+02  0.17770000000E+01 0.  1.
        -15    1    5    5    0    0  0.14649892365E+02  0.52568864490E+02  0.14708065273E+02  0.56547234885E+02  0.17770000000E+01 0. -1.
          3    1    6    6  503    0  0.25294390601E+02 -0.82563714669E+02  0.15088564606E+03  0.17384778216E+03  0.00000000000E+00 0. -1.
         -3    1    6    6    0  503  0.72086033434E+02 -0.76305013326E+03  0.93283588196E+03  0.12073212848E+04  0.00000000000E+00 0.  1.
<mgrwt>
<rscale>  0 0.87768689E+03</rscale>
<asrwt>0</asrwt>
<pdfrwt beam="1">  1        1 0.33214936E+00 0.87768689E+03</pdfrwt>
<pdfrwt beam="2">  1       -1 0.57534844E-01 0.87768689E+03</pdfrwt>
<totfact> 0.73211604E+00</totfact>
</mgrwt>
</event>
<event>
12    1  0.9321077E-008  0.9540109E+03  0.7818608E-02  0.9360475E-01
          2   -1    0    0  501    0  0.00000000000E+00  0.00000000000E+00  0.25143593255E+04  0.25143593255E+04  0.00000000000E+00 0. -1.
         -2   -1    0    0    0  501 -0.00000000000E+00 -0.00000000000E+00 -0.49319798019E+03  0.49319798019E+03  0.00000000000E+00 0.  1.
         23    2    1    2    0    0  0.28150339375E+03 -0.83266995185E+03  0.16654119770E+04  0.18854141676E+04  0.92769179356E+02 0.  0.
    5000000    2    1    2    0    0 -0.28150339375E+03  0.83266995185E+03  0.35574936826E+03  0.11221431381E+04  0.60005349755E+03 0.  0.
         23    2    4    4    0    0 -0.11522402559E+03 -0.35877589146E+02  0.15020123130E+03  0.20848140162E+03  0.79626047617E+02 0.  0.
         23    2    4    4    0    0 -0.16627936816E+03  0.86854754100E+03  0.20554813695E+03  0.91366173647E+03  0.10248937910E+03 0.  0.
          2    1    3    3  502    0  0.15353224519E+03 -0.52092433497E+03  0.94133350207E+03  0.10867580573E+04  0.00000000000E+00 0.  1.
         -2    1    3    3    0  502  0.12797114856E+03 -0.31174561688E+03  0.72407847495E+03  0.79865611022E+03  0.00000000000E+00 0. -1.
         15    1    5    5    0    0 -0.95037123965E+02 -0.57730237525E+02  0.97322823555E+02  0.14778269510E+03  0.17770000000E+01 0. -1.
        -15    1    5    5    0    0 -0.20186901628E+02  0.21852648379E+02  0.52878407746E+02  0.60698706520E+02  0.17770000000E+01 0.  1.
          3    1    6    6  503    0 -0.14872164647E+03  0.61274786692E+03  0.18146967124E+03  0.65613208893E+03  0.00000000000E+00 0. -1.
         -3    1    6    6    0  503 -0.17557721685E+02  0.25579967408E+03  0.24078465719E+02  0.25752964754E+03  0.00000000000E+00 0.  1.
<mgrwt>
<rscale>  0 0.95401091E+03</rscale>
<asrwt>0</asrwt>
<pdfrwt beam="1">  1        2 0.38682450E+00 0.95401091E+03</pdfrwt>
<pdfrwt beam="2">  1       -2 0.75876614E-01 0.95401091E+03</pdfrwt>
<totfact> 0.54053259E+00</totfact>
</mgrwt>
</event>
<event>
12    1  0.9321077E-008  0.4866804E+03  0.7818608E-02  0.1017315E+00
          1   -1    0    0  501    0  0.00000000000E+00  0.00000000000E+00  0.34253962405E+03  0.34253962405E+03  0.00000000000E+00 0. -1.
         -1   -1    0    0    0  501 -0.00000000000E+00 -0.00000000000E+00 -0.92190361382E+03  0.92190361382E+03  0.00000000000E+00 0.  1.
         23    2    1    2    0    0  0.28805273681E+03  0.25155917039E+03 -0.32071150610E+03  0.50736451632E+03  0.91139930203E+02 0.  0.
    5000000    2    1    2    0    0 -0.28805273681E+03 -0.25155917039E+03 -0.25865248367E+03  0.75707872155E+03  0.60000890654E+03 0.  0.
         23    2    4    4    0    0 -0.38218953608E+03 -0.27554544606E+03 -0.34798888329E+03  0.59324088439E+03  0.94044402765E+02 0.  0.
         23    2    4    4    0    0  0.94136799261E+02  0.23986275670E+02  0.89336399624E+02  0.16383783716E+03  0.97081235008E+02 0.  0.
          4    1    3    3  502    0  0.16734520690E+03  0.20258393901E+03 -0.20856481495E+03  0.33547571097E+03  0.00000000000E+00 0. -1.
         -4    1    3    3    0  502  0.12070752991E+03  0.48975231384E+02 -0.11214669115E+03  0.17188880535E+03  0.00000000000E+00 0.  1.
         15    1    5    5    0    0 -0.18556588317E+03 -0.15744379484E+03 -0.12604720172E+03  0.27406988219E+03  0.17770000000E+01 0. -1.
        -15    1    5    5    0    0 -0.19662365290E+03 -0.11810165122E+03 -0.22194168157E+03  0.31917100220E+03  0.17770000000E+01 0.  1.
          4    1    6    6  503    0  0.38009378651E+02 -0.13234386141E+02  0.87673204759E+02  0.96469957368E+02  0.00000000000E+00 0. -1.
         -4    1    6    6    0  503  0.56127420610E+02  0.37220661811E+02  0.16631948652E+01  0.67367879788E+02  0.00000000000E+00 0.  1.
<mgrwt>
<rscale>  0 0.48668044E+03</rscale>
<asrwt>0</asrwt>
<pdfrwt beam="1">  1        1 0.52698404E-01 0.48668044E+03</pdfrwt>
<pdfrwt beam="2">  1       -1 0.14183132E+00 0.48668044E+03</pdfrwt>
<totfact> 0.31459015E+01</totfact>
</mgrwt>
</event>
<event>
12    1  0.9321077E-008  0.9782611E+03  0.7818608E-02  0.9332714E-01
          1   -1    0    0  501    0  0.00000000000E+00  0.00000000000E+00  0.91451821381E+03  0.91451821381E+03  0.00000000000E+00 0. -1.
         -1   -1    0    0    0  501 -0.00000000000E+00 -0.00000000000E+00 -0.19281410349E+04  0.19281410349E+04  0.00000000000E+00 0.  1.
         23    2    1    2    0    0  0.26779340625E+03 -0.86152830749E+03  0.45742323465E+03  0.10156423729E+04  0.91373305804E+02 0.  0.
    5000000    2    1    2    0    0 -0.26779340625E+03  0.86152830749E+03 -0.14710460558E+04  0.18270168758E+04  0.60005819164E+03 0.  0.
         23    2    4    4    0    0  0.49349451924E+02  0.67466971724E+03 -0.76407372143E+03  0.10247076982E+04  0.92750305982E+02 0.  0.
         23    2    4    4    0    0 -0.31714285817E+03  0.18685859025E+03 -0.70697233435E+03  0.80230917762E+03  0.91621011302E+02 0.  0.
          1    1    3    3  502    0  0.13224103547E+03 -0.46629019566E+03  0.29468112365E+03  0.56723117215E+03  0.00000000000E+00 0. -1.
         -1    1    3    3    0  502  0.13555237078E+03 -0.39523811183E+03  0.16274211100E+03  0.44841120075E+03  0.00000000000E+00 0.  1.
         15    1    5    5    0    0 -0.20163222305E+02  0.34403617322E+03 -0.37054658888E+03  0.50603890787E+03  0.17770000000E+01 0. -1.
        -15    1    5    5    0    0  0.69512674229E+02  0.33063354402E+03 -0.39352713254E+03  0.51866879036E+03  0.17770000000E+01 0.  1.
          2    1    6    6  503    0 -0.18675816867E+03  0.81025216480E+02 -0.30534198679E+03  0.36698423422E+03  0.00000000000E+00 0.  1.
         -2    1    6    6    0  503 -0.13038468950E+03  0.10583337377E+03 -0.40163034756E+03  0.43532494339E+03  0.00000000000E+00 0. -1.
<mgrwt>
<rscale>  0 0.97826113E+03</rscale>
<asrwt>0</asrwt>
<pdfrwt beam="1">  1        1 0.14069511E+00 0.97826113E+03</pdfrwt>
<pdfrwt beam="2">  1       -1 0.29663708E+00 0.97826113E+03</pdfrwt>
<totfact> 0.62525289E-01</totfact>
</mgrwt>
</event>
<event>
12    1  0.9321077E-008  0.8195714E+03  0.7818608E-02  0.9532113E-01
         -3   -1    0    0    0  501 -0.00000000000E+00  0.00000000000E+00  0.70065217025E+03  0.70065217025E+03  0.00000000000E+00 0.  1.
          3   -1    0    0  501    0  0.00000000000E+00 -0.00000000000E+00 -0.13991460688E+04  0.13991460688E+04  0.00000000000E+00 0. -1.
         23    2    1    2    0    0  0.90935318000E+02 -0.72122233689E+03 -0.87417293118E+03  0.11406069204E+04  0.91514709404E+02 0.  0.
    5000000    2    1    2    0    0 -0.90935318000E+02  0.72122233689E+03  0.17567903262E+03  0.95919131862E+03  0.60062798131E+03 0.  0.
         23    2    4    4    0    0  0.11348733440E+03  0.67214594773E+03  0.22584558391E+03  0.72438292501E+03  0.95209475096E+02 0.  0.
         23    2    4    4    0    0 -0.20442265240E+03  0.49076389156E+02 -0.50166551283E+02  0.23480839361E+03  0.91767020533E+02 0.  0.
          3    1    3    3  502    0  0.84346165260E+02 -0.33537817441E+03 -0.44216681184E+03  0.56134150476E+03  0.00000000000E+00 0. -1.
         -3    1    3    3    0  502  0.65891527391E+01 -0.38584416248E+03 -0.43200611933E+03  0.57926541567E+03  0.00000000000E+00 0.  1.
         15    1    5    5    0    0  0.10193953203E+03  0.44929621026E+03  0.11326641848E+03  0.47443776412E+03  0.17770000000E+01 0. -1.
        -15    1    5    5    0    0  0.11547802374E+02  0.22284973748E+03  0.11257916542E+03  0.24994516088E+03  0.17770000000E+01 0.  1.
          4    1    6    6  503    0 -0.49280859426E+02  0.47426738124E+02  0.85319472335E+01  0.68925269085E+02  0.00000000000E+00 0. -1.
         -4    1    6    6    0  503 -0.15514179297E+03  0.16496510323E+01 -0.58698498517E+02  0.16588312453E+03  0.00000000000E+00 0.  1.
<mgrwt>
<rscale>  0 0.81957139E+03</rscale>
<asrwt>0</asrwt>
<pdfrwt beam="1">  1        3 0.21525324E+00 0.81957139E+03</pdfrwt>
<pdfrwt beam="2">  1       -3 0.10779264E+00 0.81957139E+03</pdfrwt>
<totfact> 0.22414444E-01</totfact>
</mgrwt>
</event>
<event>
12    1  0.9321077E-008  0.6992394E+03  0.7818608E-02  0.9718534E-01
          1   -1    0    0  501    0  0.00000000000E+00  0.00000000000E+00  0.79613912822E+03  0.79613912822E+03  0.00000000000E+00 0. -1.
         -1   -1    0    0    0  501 -0.00000000000E+00 -0.00000000000E+00 -0.88989582963E+03  0.88989582963E+03  0.00000000000E+00 0.  1.
         23    2    1    2    0    0 -0.33975817903E+03  0.50679681727E+03  0.36342213623E+03  0.71581134310E+03  0.89619169810E+02 0.  0.
    5000000    2    1    2    0    0  0.33975817903E+03 -0.50679681727E+03 -0.45717883765E+03  0.97022361475E+03  0.60003561462E+03 0.  0.
         23    2    4    4    0    0  0.44785552069E+03 -0.42882110690E+03 -0.50143843131E+03  0.80193546659E+03  0.84840338559E+02 0.  0.
         23    2    4    4    0    0 -0.10809734166E+03 -0.77975710370E+02  0.44259593663E+02  0.16828814816E+03  0.92718620021E+02 0.  0.
          3    1    3    3  502    0 -0.25559868331E+03  0.33862068901E+03  0.29013282947E+03  0.51397637754E+03  0.00000000000E+00 0. -1.
         -3    1    3    3    0  502 -0.84159495718E+02  0.16817612826E+03  0.73289306762E+02  0.20183496556E+03  0.00000000000E+00 0.  1.
         15    1    5    5    0    0  0.35306151797E+03 -0.37623474108E+03 -0.39286044682E+03  0.64849634098E+03  0.17770000000E+01 0. -1.
        -15    1    5    5    0    0  0.94794002721E+02 -0.52586365822E+02 -0.10857798449E+03  0.15343912561E+03  0.17770000000E+01 0.  1.
          3    1    6    6  503    0  0.45602262072E+01  0.15027689565E+02  0.86291825958E+01  0.17918981807E+02  0.00000000000E+00 0. -1.
         -3    1    6    6    0  503 -0.11265756787E+03 -0.93003399935E+02  0.35630411067E+02  0.15036916635E+03  0.00000000000E+00 0.  1.
<mgrwt>
<rscale>  0 0.69923942E+03</rscale>
<asrwt>0</asrwt>
<pdfrwt beam="1">  1        1 0.12248294E+00 0.69923942E+03</pdfrwt>
<pdfrwt beam="2">  1       -1 0.13690705E+00 0.69923942E+03</pdfrwt>
<totfact> 0.10277946E+01</totfact>
</mgrwt>
</event>
<event>
12    1  0.9321077E-008  0.7617165E+03  0.7818608E-02  0.9617146E-01
          1   -1    0    0  501    0  0.00000000000E+00  0.00000000000E+00  0.17428755734E+04  0.17428755734E+04  0.00000000000E+00 0.  1.
         -1   -1    0    0    0  501 -0.00000000000E+00 -0.00000000000E+00 -0.40218345303E+03  0.40218345303E+03  0.00000000000E+00 0. -1.
         23    2    1    2    0    0  0.36911857008E+03 -0.61779397992E+03  0.71595375126E+03  0.10191523257E+04  0.90353575679E+02 0.  0.
    5000000    2    1    2    0    0 -0.36911857008E+03  0.61779397992E+03  0.62473836907E+03  0.11259067007E+04  0.59954144848E+03 0.  0.
         23    2    4    4    0    0 -0.22739423495E+03  0.60384271979E+03  0.21878076983E+03  0.68734685834E+03  0.90810297264E+02 0.  0.
         23    2    4    4    0    0 -0.14172433514E+03  0.13951260124E+02  0.40595759924E+03  0.43855984234E+03  0.85163009024E+02 0.  0.
          3    1    3    3  502    0  0.83608175718E+02 -0.14650374378E+03  0.11699699870E+03  0.20528509857E+03  0.00000000000E+00 0. -1.
         -3    1    3    3    0  502  0.28551039437E+03 -0.47129023614E+03  0.59895675255E+03  0.81386722713E+03  0.00000000000E+00 0.  1.
         15    1    5    5    0    0 -0.11154518608E+03  0.30314468262E+03  0.61728961659E+02  0.32886570143E+03  0.17770000000E+01 0. -1.
        -15    1    5    5    0    0 -0.11584904887E+03  0.30069803717E+03  0.15705180817E+03  0.35848115691E+03  0.17770000000E+01 0.  1.
          1    1    6    6  503    0 -0.97113867456E+02 -0.23831682999E+02  0.18849417420E+03  0.21337550486E+03  0.00000000000E+00 0. -1.
         -1    1    6    6    0  503 -0.44610467680E+02  0.37782943123E+02  0.21746342504E+03  0.22518433748E+03  0.00000000000E+00 0.  1.
<mgrwt>
<rscale>  0 0.76171646E+03</rscale>
<asrwt>0</asrwt>
<pdfrwt beam="1">  1        1 0.26813470E+00 0.76171646E+03</pdfrwt>
<pdfrwt beam="2">  1       -1 0.61874378E-01 0.76171646E+03</pdfrwt>
<totfact> 0.12264569E+01</totfact>
</mgrwt>
</event>
<event>
12    1  0.9321077E-008  0.8424801E+03  0.7818608E-02  0.9500486E-01
         -2   -1    0    0    0  501 -0.00000000000E+00  0.00000000000E+00  0.27472957086E+03  0.27472957086E+03  0.00000000000E+00 0.  1.
          2   -1    0    0  501    0  0.00000000000E+00 -0.00000000000E+00 -0.31819341411E+04  0.31819341411E+04  0.00000000000E+00 0. -1.
         23    2    1    2    0    0  0.48280891944E+03 -0.67664117487E+03 -0.11428339576E+04  0.14160843335E+04  0.90981606659E+02 0.  0.
    5000000    2    1    2    0    0 -0.48280891944E+03  0.67664117487E+03 -0.17643706126E+04  0.20405793784E+04  0.60001067391E+03 0.  0.
         23    2    4    4    0    0 -0.11584673717E+03  0.28592418123E+03 -0.12552589802E+04  0.12960230388E+04  0.93954807290E+02 0.  0.
         23    2    4    4    0    0 -0.36696218226E+03  0.39071699364E+03 -0.50911163244E+03  0.74455633965E+03  0.88591626557E+02 0.  0.
          2    1    3    3  502    0  0.45671942575E+03 -0.62800496327E+03 -0.10246473329E+04  0.12856457617E+04  0.00000000000E+00 0. -1.
         -2    1    3    3    0  502  0.26089493691E+02 -0.48636211594E+02 -0.11818662466E+03  0.13043857178E+03  0.00000000000E+00 0.  1.
         15    1    5    5    0    0 -0.90755256184E+02  0.13899492459E+03 -0.79781051596E+03  0.81489930832E+03  0.17770000000E+01 0.  1.
        -15    1    5    5    0    0 -0.25091480990E+02  0.14692925664E+03 -0.45744846423E+03  0.48112373048E+03  0.17770000000E+01 0. -1.
          1    1    6    6  503    0 -0.21673988087E+03  0.19581307791E+03 -0.22509176287E+03  0.36876176477E+03  0.00000000000E+00 0. -1.
         -1    1    6    6    0  503 -0.15022230139E+03  0.19490391573E+03 -0.28401986957E+03  0.37579457488E+03  0.00000000000E+00 0.  1.
<mgrwt>
<rscale>  0 0.84248009E+03</rscale>
<asrwt>0</asrwt>
<pdfrwt beam="1">  1        2 0.48952832E+00 0.84248009E+03</pdfrwt>
<pdfrwt beam="2">  1       -2 0.42266088E-01 0.84248009E+03</pdfrwt>
<totfact> 0.74435398E+00</totfact>
</mgrwt>
</event>
<event>
12    1  0.9321077E-008  0.1167312E+04  0.7818608E-02  0.9141960E-01
         -1   -1    0    0    0  501 -0.00000000000E+00  0.00000000000E+00  0.29920117495E+04  0.29920117495E+04  0.00000000000E+00 0.  1.
          1   -1    0    0  501    0  0.00000000000E+00 -0.00000000000E+00 -0.53931133241E+03  0.53931133241E+03  0.00000000000E+00 0. -1.
         23    2    1    2    0    0 -0.51081226395E+03 -0.10027314792E+04  0.17288739536E+04  0.20649584387E+04  0.92997945444E+02 0.  0.
    5000000    2    1    2    0    0  0.51081226395E+03  0.10027314792E+04  0.72382646349E+03  0.14663646432E+04  0.59991743530E+03 0.  0.
         23    2    4    4    0    0  0.57449953765E+03  0.98680389290E+03  0.57297418634E+03  0.12809793706E+04  0.93686114198E+02 0.  0.
         23    2    4    4    0    0 -0.63687273698E+02  0.15927586282E+02  0.15085227714E+03  0.18538527254E+03  0.85449007714E+02 0.  0.
          3    1    3    3  502    0 -0.19802783352E+03 -0.34055485390E+03  0.67662821839E+03  0.78295490119E+03  0.00000000000E+00 0. -1.
         -3    1    3    3    0  502 -0.31278443043E+03 -0.66217662528E+03  0.10522457352E+04  0.12820035375E+04  0.00000000000E+00 0.  1.
         15    1    5    5    0    0  0.46866557269E+03  0.80465674378E+03  0.50672806486E+03  0.10601397945E+04  0.17770000000E+01 0.  1.
        -15    1    5    5    0    0  0.10583396495E+03  0.18214714912E+03  0.66246121486E+02  0.22083957619E+03  0.17770000000E+01 0. -1.
          4    1    6    6  503    0 -0.18514005456E+02  0.96387611942E+01 -0.62564220718E+01  0.21790294457E+02  0.00000000000E+00 0. -1.
         -4    1    6    6    0  503 -0.45173268242E+02  0.62888250877E+01  0.15710869921E+03  0.16359497808E+03  0.00000000000E+00 0.  1.
<mgrwt>
<rscale>  0 0.11673118E+04</rscale>
<asrwt>0</asrwt>
<pdfrwt beam="1">  1        1 0.82970976E-01 0.11673118E+04</pdfrwt>
<pdfrwt beam="2">  1       -1 0.46030949E+00 0.11673118E+04</pdfrwt>
<totfact> 0.10963949E-01</totfact>
</mgrwt>
</event>
<event>
12    1  0.9321077E-008  0.5429849E+03  0.7818608E-02  0.1003131E+00
         -2   -1    0    0    0  501 -0.00000000000E+00  0.00000000000E+00  0.18892707039E+03  0.18892707039E+03  0.00000000000E+00 0.  1.
          2   -1    0    0  501    0  0.00000000000E+00 -0.00000000000E+00 -0.21477378513E+04  0.21477378513E+04  0.00000000000E+00 0. -1.
         23    2    1    2    0    0 -0.20575518619E+03 -0.42444607859E+03 -0.52288317570E+03  0.71058460166E+03  0.95047306163E+02 0.  0.
    5000000    2    1    2    0    0  0.20575518619E+03  0.42444607859E+03 -0.14359276052E+04  0.16260803201E+04  0.59979950779E+03 0.  0.
         23    2    4    4    0    0  0.28969949015E+03  0.33362753720E+03 -0.13959273793E+04  0.14669770397E+04  0.90417136494E+02 0.  0.
         23    2    4    4    0    0 -0.83944303962E+02  0.90818541387E+02 -0.40000225969E+02  0.15910328039E+03  0.91756101300E+02 0.  0.
          1    1    3    3  502    0  0.92479868765E+01 -0.36197517638E+02 -0.41312776018E+02  0.55700368102E+02  0.00000000000E+00 0. -1.
         -1    1    3    3    0  502 -0.21500317307E+03 -0.38824856095E+03 -0.48157039968E+03  0.65488423356E+03  0.00000000000E+00 0.  1.
         15    1    5    5    0    0  0.80774226654E+02  0.38843569397E+02 -0.28576930713E+03  0.29950050618E+03  0.17770000000E+01 0.  1.
        -15    1    5    5    0    0  0.20892526350E+03  0.29478396781E+03 -0.11101580721E+04  0.11674765335E+04  0.17770000000E+01 0. -1.
          1    1    6    6  503    0 -0.99480976077E+01  0.78133826809E+02 -0.16936516903E+02  0.80564912602E+02  0.00000000000E+00 0. -1.
         -1    1    6    6    0  503 -0.73996206355E+02  0.12684714578E+02 -0.23063709066E+02  0.78538367787E+02  0.00000000000E+00 0.  1.
<mgrwt>
<rscale>  0 0.54298494E+03</rscale>
<asrwt>0</asrwt>
<pdfrwt beam="1">  1        2 0.33042122E+00 0.54298494E+03</pdfrwt>
<pdfrwt beam="2">  1       -2 0.29065702E-01 0.54298494E+03</pdfrwt>
<totfact> 0.63799307E+01</totfact>
</mgrwt>
</event>
<event>
12    1  0.9321077E-008  0.3280666E+03  0.7818608E-02  0.1071996E+00
         -1   -1    0    0    0  501 -0.00000000000E+00  0.00000000000E+00  0.20768862271E+03  0.20768862271E+03  0.00000000000E+00 0.  1.
          1   -1    0    0  501    0  0.00000000000E+00 -0.00000000000E+00 -0.19827827250E+04  0.19827827250E+04  0.00000000000E+00 0. -1.
         23    2    1    2    0    0  0.29686556507E+03 -0.35171543971E+02 -0.13745051566E+04  0.14095428452E+04  0.90445595110E+02 0.  0.
    5000000    2    1    2    0    0 -0.29686556507E+03  0.35171543971E+02 -0.40058894571E+03  0.78092850255E+03  0.60000968445E+03 0.  0.
         23    2    4    4    0    0 -0.15007098334E+03  0.77981143372E+02  0.12246467528E+03  0.22786198464E+03  0.91220220304E+02 0.  0.
         23    2    4    4    0    0 -0.14679458173E+03 -0.42809599401E+02 -0.52305362099E+03  0.55306651791E+03  0.94425482652E+02 0.  0.
          2    1    3    3  502    0  0.21491955347E+03 -0.54916130255E+02 -0.85833144737E+03  0.88653204644E+03  0.00000000000E+00 0. -1.
         -2    1    3    3    0  502  0.81946011596E+02  0.19744586283E+02 -0.51617370924E+03  0.52301079876E+03  0.00000000000E+00 0.  1.
         15    1    5    5    0    0 -0.99573072961E+01  0.46033598390E+02  0.42109687393E+02  0.63203035138E+02  0.17770000000E+01 0.  1.
        -15    1    5    5    0    0 -0.14011367605E+03  0.31947544983E+02  0.80354987883E+02  0.16465894951E+03  0.17770000000E+01 0. -1.
          4    1    6    6  503    0 -0.69342725879E+01 -0.15057883749E+02 -0.19067820015E+03  0.19139749217E+03  0.00000000000E+00 0.  1.
         -4    1    6    6    0  503 -0.13986030914E+03 -0.27751715652E+02 -0.33237542084E+03  0.36166902573E+03  0.00000000000E+00 0. -1.
<mgrwt>
<rscale>  0 0.32806656E+03</rscale>
<asrwt>0</asrwt>
<pdfrwt beam="1">  1        1 0.30504349E+00 0.32806656E+03</pdfrwt>
<pdfrwt beam="2">  1       -1 0.31952097E-01 0.32806656E+03</pdfrwt>
<totfact> 0.31487999E+01</totfact>
</mgrwt>
</event>
<event>
12    1  0.9321077E-008  0.5637894E+03  0.7818608E-02  0.9983517E-01
          1   -1    0    0  501    0  0.00000000000E+00  0.00000000000E+00  0.80245851621E+03  0.80245851621E+03  0.00000000000E+00 0. -1.
         -1   -1    0    0    0  501 -0.00000000000E+00 -0.00000000000E+00 -0.53531995006E+03  0.53531995006E+03  0.00000000000E+00 0.  1.
         23    2    1    2    0    0  0.27004699060E+03 -0.31802461652E+03 -0.19953816500E+03  0.47124046096E+03  0.90482367934E+02 0.  0.
    5000000    2    1    2    0    0 -0.27004699060E+03  0.31802461652E+03  0.46667673115E+03  0.86653800531E+03  0.59919605257E+03 0.  0.
         23    2    4    4    0    0 -0.43083111622E+03  0.13727935486E+03  0.35491213809E+03  0.58364530648E+03  0.10108484578E+03 0.  0.
         23    2    4    4    0    0  0.16078412561E+03  0.18074526166E+03  0.11176459306E+03  0.28289269883E+03  0.94955621891E+02 0.  0.
          2    1    3    3  502    0  0.16314170790E+03 -0.12434612506E+03 -0.10805335643E+03  0.23184629285E+03  0.00000000000E+00 0. -1.
         -2    1    3    3    0  502  0.10690528270E+03 -0.19367849146E+03 -0.91484808579E+02  0.23939416811E+03  0.00000000000E+00 0.  1.
         15    1    5    5    0    0 -0.61427953245E+02  0.12036877829E+02  0.10912202882E+02  0.63565035739E+02  0.17770000000E+01 0. -1.
        -15    1    5    5    0    0 -0.36940316297E+03  0.12524247703E+03  0.34399993521E+03  0.52008027074E+03  0.17770000000E+01 0.  1.
          1    1    6    6  503    0  0.11778031809E+03  0.16505342005E+03  0.55242974590E+02  0.21015856167E+03  0.00000000000E+00 0. -1.
         -1    1    6    6    0  503  0.43003807523E+02  0.15691841605E+02  0.56521618469E+02  0.72734137162E+02  0.00000000000E+00 0.  1.
<mgrwt>
<rscale>  0 0.56378943E+03</rscale>
<asrwt>0</asrwt>
<pdfrwt beam="1">  1        1 0.12345516E+00 0.56378943E+03</pdfrwt>
<pdfrwt beam="2">  1       -1 0.82356915E-01 0.56378943E+03</pdfrwt>
<totfact> 0.33797269E+01</totfact>
</mgrwt>
</event>
<event>
12    1  0.9321077E-008  0.1133681E+04  0.7818608E-02  0.9172972E-01
         -1   -1    0    0    0  501 -0.00000000000E+00  0.00000000000E+00  0.15382501409E+04  0.15382501409E+04  0.00000000000E+00 0.  1.
          1   -1    0    0  501    0  0.00000000000E+00 -0.00000000000E+00 -0.99558311428E+03  0.99558311428E+03  0.00000000000E+00 0. -1.
         23    2    1    2    0    0  0.12055566329E+03 -0.11240256696E+04  0.53486713443E+03  0.12540185868E+04  0.92262617934E+02 0.  0.
    5000000    2    1    2    0    0 -0.12055566329E+03  0.11240256696E+04  0.77998921519E+01  0.12798146683E+04  0.59991447133E+03 0.  0.
         23    2    4    4    0    0 -0.58043039566E+02  0.60006213732E+03 -0.27976849252E+03  0.67129479195E+03  0.94460177913E+02 0.  0.
         23    2    4    4    0    0 -0.62512623724E+02  0.52396353233E+03  0.28756838467E+03  0.60851987635E+03  0.95683084823E+02 0.  0.
          3    1    3    3  502    0  0.55331512757E+02 -0.84037860498E+03  0.42008537912E+03  0.94115328282E+03  0.00000000000E+00 0. -1.
         -3    1    3    3    0  502  0.65224150533E+02 -0.28364706467E+03  0.11478175531E+03  0.31286530402E+03  0.00000000000E+00 0.  1.
         15    1    5    5    0    0 -0.25787702621E+02  0.37073946381E+03 -0.22093389717E+03  0.43235136207E+03  0.17770000000E+01 0.  1.
        -15    1    5    5    0    0 -0.32255336944E+02  0.22932267350E+03 -0.58834595341E+02  0.23894342988E+03  0.17770000000E+01 0. -1.
          1    1    6    6  503    0 -0.73867741935E+02  0.43941657895E+03  0.20751527506E+03  0.49153429436E+03  0.00000000000E+00 0. -1.
         -1    1    6    6    0  503  0.11355118211E+02  0.84546953382E+02  0.80053109606E+02  0.11698558199E+03  0.00000000000E+00 0.  1.
<mgrwt>
<rscale>  0 0.11336811E+04</rscale>
<asrwt>0</asrwt>
<pdfrwt beam="1">  1        1 0.15316663E+00 0.11336811E+04</pdfrwt>
<pdfrwt beam="2">  1       -1 0.23665387E+00 0.11336811E+04</pdfrwt>
<totfact> 0.12872795E+00</totfact>
</mgrwt>
</event>
<event>
12    1  0.9321077E-008  0.7514169E+03  0.7818608E-02  0.9633130E-01
         -2   -1    0    0    0  501 -0.00000000000E+00  0.00000000000E+00  0.43333202206E+03  0.43333202206E+03  0.00000000000E+00 0.  1.
          2   -1    0    0  501    0  0.00000000000E+00 -0.00000000000E+00 -0.17010300243E+04  0.17010300243E+04  0.00000000000E+00 0. -1.
         23    2    1    2    0    0  0.41328222920E+02  0.69462552763E+03 -0.90786794835E+03  0.11475683146E+04  0.92066167927E+02 0.  0.
    5000000    2    1    2    0    0 -0.41328222920E+02 -0.69462552763E+03 -0.35983005390E+03  0.98679373182E+03  0.60005962689E+03 0.  0.
         23    2    4    4    0    0 -0.17382189531E+03 -0.63428285975E+03 -0.44043285626E+03  0.79712035889E+03  0.94291930798E+02 0.  0.
         23    2    4    4    0    0  0.13249367239E+03 -0.60342667883E+02  0.80602802357E+02  0.18967337294E+03  0.91012998318E+02 0.  0.
          3    1    3    3  502    0  0.35024377558E+02  0.60592065732E+03 -0.73528015832E+03  0.95341673008E+03  0.00000000000E+00 0. -1.
         -3    1    3    3    0  502  0.63038453623E+01  0.88704870316E+02 -0.17258779003E+03  0.19415158447E+03  0.00000000000E+00 0.  1.
         15    1    5    5    0    0 -0.12241688525E+03 -0.32449826749E+03 -0.27208431099E+03  0.44081521006E+03  0.17770000000E+01 0.  1.
        -15    1    5    5    0    0 -0.51405010061E+02 -0.30978459226E+03 -0.16834854527E+03  0.35630514883E+03  0.17770000000E+01 0. -1.
          3    1    6    6  503    0  0.98223680563E+02 -0.38599459825E+02  0.71797978474E+01  0.10577976753E+03  0.00000000000E+00 0. -1.
         -3    1    6    6    0  503  0.34269991825E+02 -0.21743208058E+02  0.73423004509E+02  0.83893605403E+02  0.00000000000E+00 0.  1.
<mgrwt>
<rscale>  0 0.75141686E+03</rscale>
<asrwt>0</asrwt>
<pdfrwt beam="1">  1        2 0.26169693E+00 0.75141686E+03</pdfrwt>
<pdfrwt beam="2">  1       -2 0.66666464E-01 0.75141686E+03</pdfrwt>
<totfact> 0.20801671E+01</totfact>
</mgrwt>
</event>
<event>
12    1  0.9321077E-008  0.6163651E+03  0.7818608E-02  0.9872024E-01
         -2   -1    0    0    0  501 -0.00000000000E+00  0.00000000000E+00  0.19973664661E+03  0.19973664661E+03  0.00000000000E+00 0.  1.
          2   -1    0    0  501    0  0.00000000000E+00 -0.00000000000E+00 -0.24149940006E+04  0.24149940006E+04  0.00000000000E+00 0. -1.
         23    2    1    2    0    0 -0.19827639655E+03 -0.51604233895E+03 -0.10796958937E+04  0.12164897369E+04  0.92145711123E+02 0.  0.
    5000000    2    1    2    0    0  0.19827639655E+03  0.51604233895E+03 -0.11355614603E+04  0.13982409103E+04  0.59997048940E+03 0.  0.
         23    2    4    4    0    0 -0.10499633179E+03  0.80057995048E+02 -0.65766965462E+03  0.67698576304E+03  0.91361022829E+02 0.  0.
         23    2    4    4    0    0  0.30327272834E+03  0.43598434390E+03 -0.47789180564E+03  0.72125514724E+03  0.98851978466E+02 0.  0.
          3    1    3    3  502    0 -0.15802834344E+03 -0.47872274486E+03 -0.94550329040E+03  0.10715059010E+04  0.00000000000E+00 0. -1.
         -3    1    3    3    0  502 -0.40248053114E+02 -0.37319594089E+02 -0.13419260332E+03  0.14498383588E+03  0.00000000000E+00 0.  1.
         15    1    5    5    0    0 -0.69029646782E+02  0.64383167514E+02 -0.24677401688E+03  0.26421744365E+03  0.17770000000E+01 0.  1.
        -15    1    5    5    0    0 -0.35966685004E+02  0.15674827534E+02 -0.41089563774E+03  0.41276831939E+03  0.17770000000E+01 0. -1.
          2    1    6    6  503    0  0.11680413824E+03  0.25352921716E+03 -0.25646416825E+03  0.37907009940E+03  0.00000000000E+00 0. -1.
         -2    1    6    6    0  503  0.18646859009E+03  0.18245512674E+03 -0.22142763739E+03  0.34218504784E+03  0.00000000000E+00 0.  1.
<mgrwt>
<rscale>  0 0.61636508E+03</rscale>
<asrwt>0</asrwt>
<pdfrwt beam="1">  1        2 0.37153757E+00 0.61636508E+03</pdfrwt>
<pdfrwt beam="2">  1       -2 0.30728712E-01 0.61636508E+03</pdfrwt>
<totfact> 0.40530647E+01</totfact>
</mgrwt>
</event>
<event>
12    1  0.9321077E-008  0.7536580E+03  0.7818608E-02  0.9629629E-01
          1   -1    0    0  501    0  0.00000000000E+00  0.00000000000E+00  0.15119603736E+04  0.15119603736E+04  0.00000000000E+00 0. -1.
         -1   -1    0    0    0  501 -0.00000000000E+00 -0.00000000000E+00 -0.84528994146E+03  0.84528994146E+03  0.00000000000E+00 0.  1.
         23    2    1    2    0    0  0.66943843194E+03 -0.33086516074E+03  0.10780993018E+04  0.13148978574E+04  0.95072088956E+02 0.  0.
    5000000    2    1    2    0    0 -0.66943843194E+03  0.33086516074E+03 -0.41142886968E+03  0.10423524576E+04  0.59967104516E+03 0.  0.
         23    2    4    4    0    0 -0.38060366790E+03  0.17406503099E+03  0.90160859431E+02  0.43562079132E+03  0.80490410731E+02 0.  0.
         23    2    4    4    0    0 -0.28883476404E+03  0.15680012974E+03 -0.50158972911E+03  0.60673166633E+03  0.92299821083E+02 0.  0.
          4    1    3    3  502    0  0.23161362027E+03 -0.12499664646E+03  0.45993157490E+03  0.52991139288E+03  0.00000000000E+00 0. -1.
         -4    1    3    3    0  502  0.43782481167E+03 -0.20586851428E+03  0.61816772691E+03  0.78498646452E+03  0.00000000000E+00 0.  1.
         15    1    5    5    0    0 -0.20063578416E+03  0.81440184407E+02  0.86487111234E+02  0.23317461195E+03  0.17770000000E+01 0. -1.
        -15    1    5    5    0    0 -0.17996788374E+03  0.92624846587E+02  0.36737481975E+01  0.20244617936E+03  0.17770000000E+01 0.  1.
          3    1    6    6  503    0 -0.50830487595E+02  0.73166078202E+02 -0.13242012943E+03  0.15959982502E+03  0.00000000000E+00 0. -1.
         -3    1    6    6    0  503 -0.23800427644E+03  0.83634051542E+02 -0.36916959968E+03  0.44713184130E+03  0.00000000000E+00 0.  1.
<mgrwt>
<rscale>  0 0.75365805E+03</rscale>
<asrwt>0</asrwt>
<pdfrwt beam="1">  1        1 0.23260929E+00 0.75365805E+03</pdfrwt>
<pdfrwt beam="2">  1       -1 0.13004461E+00 0.75365805E+03</pdfrwt>
<totfact> 0.33933745E+00</totfact>
</mgrwt>
</event>
<event>
12    1  0.9321077E-008  0.3900954E+03  0.7818608E-02  0.1047264E+00
          2   -1    0    0  501    0  0.00000000000E+00  0.00000000000E+00  0.31708707946E+03  0.31708707946E+03  0.00000000000E+00 0. -1.
         -2   -1    0    0    0  501 -0.00000000000E+00 -0.00000000000E+00 -0.21211055392E+04  0.21211055392E+04  0.00000000000E+00 0.  1.
         23    2    1    2    0    0  0.11185553105E+03  0.13922552286E+03  0.23228875601E+03  0.30782402842E+03  0.94351260008E+02 0.  0.
    5000000    2    1    2    0    0 -0.11185553105E+03 -0.13922552286E+03 -0.20363072157E+04  0.21303685902E+04  0.60002320568E+03 0.  0.
         23    2    4    4    0    0  0.87766410880E+02  0.17077171879E+03 -0.42827239398E+03  0.47781285475E+03  0.89565383365E+02 0.  0.
         23    2    4    4    0    0 -0.19962194193E+03 -0.30999724165E+03 -0.16080348217E+04  0.16525557355E+04  0.96006569456E+02 0.  0.
          4    1    3    3  502    0  0.10746882191E+03  0.61485416742E+02  0.13428123240E+03  0.18265117993E+03  0.00000000000E+00 0. -1.
         -4    1    3    3    0  502  0.43867091382E+01  0.77740106115E+02  0.98007523605E+02  0.12517284849E+03  0.00000000000E+00 0.  1.
         15    1    5    5    0    0  0.66022419527E+02  0.72332048633E+02 -0.12873959653E+03  0.16176503511E+03  0.17770000000E+01 0. -1.
        -15    1    5    5    0    0  0.21743991352E+02  0.98439670162E+02 -0.29953279745E+03  0.31604781964E+03  0.17770000000E+01 0.  1.
          2    1    6    6  503    0  0.34881019889E+01 -0.48495396609E+02 -0.16464998662E+03  0.17167873614E+03  0.00000000000E+00 0. -1.
         -2    1    6    6    0  503 -0.20311004392E+03 -0.26150184504E+03 -0.14433848351E+04  0.14808769993E+04  0.00000000000E+00 0.  1.
<mgrwt>
<rscale>  0 0.39009544E+03</rscale>
<asrwt>0</asrwt>
<pdfrwt beam="1">  1        2 0.48782628E-01 0.39009544E+03</pdfrwt>
<pdfrwt beam="2">  1       -2 0.32632393E+00 0.39009544E+03</pdfrwt>
<totfact> 0.25464002E+00</totfact>
</mgrwt>
</event>
<event>
12    1  0.9321077E-008  0.6408919E+03  0.7818608E-02  0.9824022E-01
          2   -1    0    0  501    0  0.00000000000E+00  0.00000000000E+00  0.35654838289E+03  0.35654838289E+03  0.00000000000E+00 0.  1.
         -2   -1    0    0    0  501 -0.00000000000E+00 -0.00000000000E+00 -0.14227125157E+04  0.14227125157E+04  0.00000000000E+00 0. -1.
         23    2    1    2    0    0  0.40026786423E+03  0.30354275404E+03 -0.79241612677E+02  0.51894377480E+03  0.10329976549E+03 0.  0.
    5000000    2    1    2    0    0 -0.40026786423E+03 -0.30354275404E+03 -0.98692252017E+03  0.12603171238E+04  0.60168980808E+03 0.  0.
         23    2    4    4    0    0 -0.17573503971E+03  0.16401779700E+03 -0.29869678680E+03  0.39411144515E+03  0.91210848257E+02 0.  0.
         23    2    4    4    0    0 -0.22453282453E+03 -0.46756055105E+03 -0.68822573337E+03  0.86620567868E+03  0.87348494717E+02 0.  0.
          3    1    3    3  502    0  0.18046627934E+03  0.99439701548E+02 -0.74037808705E+02  0.21894732092E+03  0.00000000000E+00 0.  1.
         -3    1    3    3    0  502  0.21980158490E+03  0.20410305250E+03 -0.52038039723E+01  0.29999645387E+03  0.00000000000E+00 0. -1.
         15    1    5    5    0    0 -0.15041925260E+03  0.82192708130E+02 -0.19701648243E+03  0.26115176603E+03  0.17770000000E+01 0. -1.
        -15    1    5    5    0    0 -0.25315787104E+02  0.81825088873E+02 -0.10168030437E+03  0.13295967912E+03  0.17770000000E+01 0.  1.
          4    1    6    6  503    0 -0.76613792376E+02 -0.16375362501E+03 -0.31132367043E+03  0.36001020910E+03  0.00000000000E+00 0. -1.
         -4    1    6    6    0  503 -0.14791903215E+03 -0.30380692603E+03 -0.37690206293E+03  0.50619546958E+03  0.00000000000E+00 0.  1.
<mgrwt>
<rscale>  0 0.64089191E+03</rscale>
<asrwt>0</asrwt>
<pdfrwt beam="1">  1        2 0.54853598E-01 0.64089191E+03</pdfrwt>
<pdfrwt beam="2">  1       -2 0.21887885E+00 0.64089191E+03</pdfrwt>
<totfact> 0.94041859E+00</totfact>
</mgrwt>
</event>
<event>
12    1  0.9321077E-008  0.7350256E+03  0.7818608E-02  0.9659140E-01
          2   -1    0    0  501    0  0.00000000000E+00  0.00000000000E+00  0.77087087766E+03  0.77087087766E+03  0.00000000000E+00 0. -1.
         -2   -1    0    0    0  501 -0.00000000000E+00 -0.00000000000E+00 -0.10690210399E+04  0.10690210399E+04  0.00000000000E+00 0.  1.
         23    2    1    2    0    0 -0.34180500114E+03 -0.52877501531E+03  0.37666561676E+03  0.73910782796E+03  0.89273282072E+02 0.  0.
    5000000    2    1    2    0    0  0.34180500114E+03  0.52877501531E+03 -0.67481577904E+03  0.11007840896E+04  0.59992966315E+03 0.  0.
         23    2    4    4    0    0  0.15181148907E+03  0.60797480636E+03 -0.42046973495E+03  0.76003759174E+03  0.90455787378E+02 0.  0.
         23    2    4    4    0    0  0.18999351207E+03 -0.79199791046E+02 -0.25434604409E+03  0.34074649789E+03  0.95111114778E+02 0.  0.
          2    1    3    3  502    0 -0.28367810135E+03 -0.47180513847E+03  0.29839457247E+03  0.62618900881E+03  0.00000000000E+00 0. -1.
         -2    1    3    3    0  502 -0.58126899787E+02 -0.56969876843E+02  0.78271044285E+02  0.11291881916E+03  0.00000000000E+00 0.  1.
         15    1    5    5    0    0  0.64983745473E+02  0.42280771299E+03 -0.30257249835E+03  0.52396805611E+03  0.17770000000E+01 0. -1.
        -15    1    5    5    0    0  0.86827743602E+02  0.18516709336E+03 -0.11789723661E+03  0.23606953563E+03  0.17770000000E+01 0.  1.
          4    1    6    6  503    0  0.10200481208E+03 -0.41948402141E+02 -0.20598725312E+03  0.23365658257E+03  0.00000000000E+00 0. -1.
         -4    1    6    6    0  503  0.87988699985E+02 -0.37251388904E+02 -0.48358790969E+02  0.10708991533E+03  0.00000000000E+00 0.  1.
<mgrwt>
<rscale>  0 0.73502565E+03</rscale>
<asrwt>0</asrwt>
<pdfrwt beam="1">  1        2 0.11859552E+00 0.73502565E+03</pdfrwt>
<pdfrwt beam="2">  1       -2 0.16446477E+00 0.73502565E+03</pdfrwt>
<totfact> 0.86111097E+00</totfact>
</mgrwt>
</event>
<event>
12    1  0.9321077E-008  0.1214447E+04  0.7818608E-02  0.9100304E-01
          1   -1    0    0  501    0  0.00000000000E+00  0.00000000000E+00  0.20214184255E+04  0.20214184255E+04  0.00000000000E+00 0. -1.
         -1   -1    0    0    0  501 -0.00000000000E+00 -0.00000000000E+00 -0.75527987663E+03  0.75527987663E+03  0.00000000000E+00 0.  1.
         23    2    1    2    0    0 -0.10742431606E+03  0.11408251760E+04  0.38820971856E+03  0.12131385220E+04  0.89309698104E+02 0.  0.
    5000000    2    1    2    0    0  0.10742431606E+03 -0.11408251760E+04  0.87792883034E+03  0.15635597801E+04  0.60078123232E+03 0.  0.
         23    2    4    4    0    0 -0.20530099907E+03 -0.23776563114E+03  0.16005024808E+03  0.36447695611E+03  0.92446601123E+02 0.  0.
         23    2    4    4    0    0  0.31272531512E+03 -0.90305954484E+03  0.71787858226E+03  0.11990828240E+04  0.95583972301E+02 0.  0.
          4    1    3    3  502    0 -0.32604646225E+02  0.68952022974E+03  0.26461706116E+03  0.73927220916E+03  0.00000000000E+00 0. -1.
         -4    1    3    3    0  502 -0.74819669832E+02  0.45130494624E+03  0.12359265739E+03  0.47386631286E+03  0.00000000000E+00 0.  1.
         15    1    5    5    0    0 -0.12478574054E+03 -0.19625217503E+03  0.14072918342E+03  0.27183498310E+03  0.17770000000E+01 0.  1.
        -15    1    5    5    0    0 -0.80515258532E+02 -0.41513456109E+02  0.19321064663E+02  0.92641973010E+02  0.17770000000E+01 0. -1.
          4    1    6    6  503    0  0.69617752611E+01 -0.73810031940E+02  0.33962415807E+02  0.81546507081E+02  0.00000000000E+00 0.  1.
         -4    1    6    6    0  503  0.30576353986E+03 -0.82924951291E+03  0.68391616645E+03  0.11175363169E+04  0.00000000000E+00 0. -1.
<mgrwt>
<rscale>  0 0.12144472E+04</rscale>
<asrwt>0</asrwt>
<pdfrwt beam="1">  1        1 0.31098745E+00 0.12144472E+04</pdfrwt>
<pdfrwt beam="2">  1       -1 0.11619690E+00 0.12144472E+04</pdfrwt>
<totfact> 0.18972918E+00</totfact>
</mgrwt>
</event>
<event>
12    1  0.9321077E-008  0.1203715E+04  0.7818608E-02  0.9109611E-01
         -1   -1    0    0    0  501 -0.00000000000E+00  0.00000000000E+00  0.10312377476E+04  0.10312377476E+04  0.00000000000E+00 0.  1.
          1   -1    0    0  501    0  0.00000000000E+00 -0.00000000000E+00 -0.18651712572E+04  0.18651712572E+04  0.00000000000E+00 0. -1.
         23    2    1    2    0    0  0.84560319913E+03 -0.79119817694E+03  0.26448355776E+03  0.11912538048E+04  0.89970826397E+02 0.  0.
    5000000    2    1    2    0    0 -0.84560319913E+03  0.79119817694E+03 -0.10984170673E+04  0.17051551999E+04  0.59999573037E+03 0.  0.
         23    2    4    4    0    0 -0.70299495472E+03  0.37466045151E+03 -0.45943612702E+03  0.92407424864E+03  0.90880701489E+02 0.  0.
         23    2    4    4    0    0 -0.14260824441E+03  0.41653772543E+03 -0.63898094031E+03  0.78108095129E+03  0.89162897576E+02 0.  0.
          2    1    3    3  502    0  0.31384096989E+03 -0.25221673936E+03  0.12303561837E+03  0.42100736500E+03  0.00000000000E+00 0. -1.
         -2    1    3    3    0  502  0.53176222923E+03 -0.53898143759E+03  0.14144793940E+03  0.77024643982E+03  0.00000000000E+00 0.  1.
         15    1    5    5    0    0 -0.54225800785E+03  0.31744486344E+03 -0.39205993251E+03  0.74062752906E+03  0.17770000000E+01 0. -1.
        -15    1    5    5    0    0 -0.16073694687E+03  0.57215588072E+02 -0.67376194513E+02  0.18344671958E+03  0.17770000000E+01 0.  1.
          4    1    6    6  503    0 -0.45033385964E+02  0.41772794305E+02 -0.74993681743E+02  0.96938250947E+02  0.00000000000E+00 0.  1.
         -4    1    6    6    0  503 -0.97574858445E+02  0.37476493113E+03 -0.56398725856E+03  0.68414270034E+03  0.00000000000E+00 0. -1.
<mgrwt>
<rscale>  0 0.12037152E+04</rscale>
<asrwt>0</asrwt>
<pdfrwt beam="1">  1        1 0.28694942E+00 0.12037152E+04</pdfrwt>
<pdfrwt beam="2">  1       -1 0.15865196E+00 0.12037152E+04</pdfrwt>
<totfact> 0.10802593E+00</totfact>
</mgrwt>
</event>
<event>
12    1  0.9321077E-008  0.3708592E+03  0.7818608E-02  0.1054365E+00
          1   -1    0    0  501    0  0.00000000000E+00  0.00000000000E+00  0.51353097188E+03  0.51353097188E+03  0.00000000000E+00 0. -1.
         -1   -1    0    0    0  501 -0.00000000000E+00 -0.00000000000E+00 -0.41192991241E+03  0.41192991241E+03  0.00000000000E+00 0.  1.
         23    2    1    2    0    0  0.61585453347E+02  0.11628737688E+03 -0.18849450212E+03  0.24593375031E+03  0.87393993668E+02 0.  0.
    5000000    2    1    2    0    0 -0.61585453347E+02 -0.11628737688E+03  0.29009556159E+03  0.67952713398E+03  0.60023842669E+03 0.  0.
         23    2    4    4    0    0  0.24707773187E+03  0.20690181101E+02  0.12315636491E+03  0.29159490888E+03  0.91567524212E+02 0.  0.
         23    2    4    4    0    0 -0.30866318521E+03 -0.13697755798E+03  0.16693919668E+03  0.38793222510E+03  0.92665541515E+02 0.  0.
          4    1    3    3  502    0  0.35277118427E+01 -0.55059617249E+01 -0.57534522242E+02  0.57904936016E+02  0.00000000000E+00 0.  1.
         -4    1    3    3    0  502  0.58057741504E+02  0.12179333861E+03 -0.13095997987E+03  0.18802881430E+03  0.00000000000E+00 0. -1.
         15    1    5    5    0    0  0.68327911856E+02 -0.26580066849E+02  0.64346962038E+02  0.97564813046E+02  0.17770000000E+01 0.  1.
        -15    1    5    5    0    0  0.17874982001E+03  0.47270247950E+02  0.58809402870E+02  0.19403009584E+03  0.17770000000E+01 0. -1.
          4    1    6    6  503    0 -0.45537461419E+02 -0.42942081259E+02  0.65676446131E+02  0.90725290364E+02  0.00000000000E+00 0. -1.
         -4    1    6    6    0  503 -0.26312572379E+03 -0.94035476725E+02  0.10126275055E+03  0.29720693473E+03  0.00000000000E+00 0.  1.
<mgrwt>
<rscale>  0 0.37085917E+03</rscale>
<asrwt>0</asrwt>
<pdfrwt beam="1">  1        1 0.79004765E-01 0.37085917E+03</pdfrwt>
<pdfrwt beam="2">  1       -1 0.63373833E-01 0.37085917E+03</pdfrwt>
<totfact> 0.11348870E+02</totfact>
</mgrwt>
</event>
<event>
12    1  0.9321077E-008  0.7868590E+03  0.7818608E-02  0.9579235E-01
         -1   -1    0    0    0  501 -0.00000000000E+00  0.00000000000E+00  0.28693793880E+03  0.28693793880E+03  0.00000000000E+00 0.  1.
          1   -1    0    0  501    0  0.00000000000E+00 -0.00000000000E+00 -0.27721959622E+04  0.27721959622E+04  0.00000000000E+00 0. -1.
         23    2    1    2    0    0  0.52598978524E+03 -0.51893581812E+03 -0.63572049781E+03  0.97906676466E+03  0.92040973664E+02 0.  0.
    5000000    2    1    2    0    0 -0.52598978524E+03  0.51893581812E+03 -0.18495375256E+04  0.20800671364E+04  0.59994216022E+03 0.  0.
         23    2    4    4    0    0 -0.52469969219E+03  0.52398402996E+03 -0.11322386449E+04  0.13563541367E+04  0.88674485556E+02 0.  0.
         23    2    4    4    0    0 -0.12900930473E+01 -0.50482118391E+01 -0.71729888074E+03  0.72371299973E+03  0.95998296223E+02 0.  0.
          1    1    3    3  502    0  0.28376022506E+03 -0.27026218253E+03 -0.39652408290E+03  0.55748799176E+03  0.00000000000E+00 0. -1.
         -1    1    3    3    0  502  0.24222956017E+03 -0.24867363559E+03 -0.23919641490E+03  0.42157877290E+03  0.00000000000E+00 0.  1.
         15    1    5    5    0    0 -0.38985038990E+03  0.35691162012E+03 -0.86280578915E+03  0.10118330982E+04  0.17770000000E+01 0.  1.
        -15    1    5    5    0    0 -0.13484930229E+03  0.16707240984E+03 -0.26943285575E+03  0.34452103846E+03  0.17770000000E+01 0. -1.
          3    1    6    6  503    0 -0.41480431003E+02 -0.22980568758E+02 -0.48254689123E+03  0.48487135916E+03  0.00000000000E+00 0. -1.
         -3    1    6    6    0  503  0.40190337956E+02  0.17932356919E+02 -0.23475198952E+03  0.23884164057E+03  0.00000000000E+00 0.  1.
<mgrwt>
<rscale>  0 0.78685900E+03</rscale>
<asrwt>0</asrwt>
<pdfrwt beam="1">  1        1 0.42649167E+00 0.78685900E+03</pdfrwt>
<pdfrwt beam="2">  1       -1 0.44144299E-01 0.78685900E+03</pdfrwt>
<totfact> 0.46804985E+00</totfact>
</mgrwt>
</event>
<event>
12    1  0.9321077E-008  0.1042579E+04  0.7818608E-02  0.9263039E-01
          2   -1    0    0  501    0  0.00000000000E+00  0.00000000000E+00  0.38249117872E+04  0.38249117872E+04  0.00000000000E+00 0.  1.
         -2   -1    0    0    0  501 -0.00000000000E+00 -0.00000000000E+00 -0.35499283532E+03  0.35499283532E+03  0.00000000000E+00 0. -1.
         23    2    1    2    0    0 -0.90163422242E+03  0.50083819048E+03  0.22293498068E+04  0.24586042369E+04  0.10464735305E+03 0.  0.
    5000000    2    1    2    0    0  0.90163422242E+03 -0.50083819048E+03  0.12405691451E+04  0.17213003856E+04  0.60006670444E+03 0.  0.
         23    2    4    4    0    0  0.33946429063E+03 -0.29177994739E+03  0.93669457871E+03  0.10423537770E+04  0.93451165710E+02 0.  0.
         23    2    4    4    0    0  0.56216993179E+03 -0.20905824308E+03  0.30387456639E+03  0.67894660862E+03  0.94278120781E+02 0.  0.
          4    1    3    3  502    0 -0.50297636581E+03  0.33000786693E+03  0.12318254259E+04  0.13708699051E+04  0.00000000000E+00 0. -1.
         -4    1    3    3    0  502 -0.39865785661E+03  0.17083032355E+03  0.99752438093E+03  0.10877343318E+04  0.00000000000E+00 0.  1.
         15    1    5    5    0    0  0.43977242504E+02 -0.19470202755E+02  0.17075363606E+03  0.17740645030E+03  0.17770000000E+01 0.  1.
        -15    1    5    5    0    0  0.29548704813E+03 -0.27230974464E+03  0.76594094265E+03  0.86494732672E+03  0.17770000000E+01 0. -1.
          3    1    6    6  503    0  0.44213502470E+03 -0.16976046648E+03  0.28068175663E+03  0.55053087521E+03  0.00000000000E+00 0. -1.
         -3    1    6    6    0  503  0.12003490708E+03 -0.39297776601E+02  0.23192809751E+02  0.12841573341E+03  0.00000000000E+00 0.  1.
<mgrwt>
<rscale>  0 0.10425795E+04</rscale>
<asrwt>0</asrwt>
<pdfrwt beam="1">  1        2 0.58844794E+00 0.10425795E+04</pdfrwt>
<pdfrwt beam="2">  1       -2 0.54614285E-01 0.10425795E+04</pdfrwt>
<totfact> 0.15428110E+00</totfact>
</mgrwt>
</event>
<event>
12    1  0.9321077E-008  0.1280598E+04  0.7818608E-02  0.9045094E-01
          2   -1    0    0  501    0  0.00000000000E+00  0.00000000000E+00  0.20282795290E+04  0.20282795290E+04  0.00000000000E+00 0.  1.
         -2   -1    0    0    0  501 -0.00000000000E+00 -0.00000000000E+00 -0.13560149424E+04  0.13560149424E+04  0.00000000000E+00 0. -1.
         23    2    1    2    0    0  0.59929848505E+03 -0.10562731154E+04  0.13926338054E+04  0.18501446938E+04  0.93460705898E+02 0.  0.
    5000000    2    1    2    0    0 -0.59929848505E+03  0.10562731154E+04 -0.72036921878E+03  0.15341497775E+04  0.59984344632E+03 0.  0.
         23    2    4    4    0    0 -0.64496963858E+03  0.61589698458E+03 -0.54750172111E+03  0.10503511572E+04  0.90357559716E+02 0.  0.
         23    2    4    4    0    0  0.45671153533E+02  0.44037613082E+03 -0.17286749767E+03  0.48379862030E+03  0.90337934431E+02 0.  0.
          3    1    3    3  502    0  0.13308228987E+03 -0.31492998108E+03  0.41210294528E+03  0.53546300187E+03  0.00000000000E+00 0. -1.
         -3    1    3    3    0  502  0.46621619518E+03 -0.74134313432E+03  0.98053086014E+03  0.13146816919E+04  0.00000000000E+00 0.  1.
         15    1    5    5    0    0 -0.40453869868E+03  0.36896092407E+03 -0.38480058496E+03  0.66922221282E+03  0.17770000000E+01 0. -1.
        -15    1    5    5    0    0 -0.24043093991E+03  0.24693606051E+03 -0.16270113615E+03  0.38112894442E+03  0.17770000000E+01 0.  1.
          4    1    6    6  503    0 -0.20805751945E+02  0.22501804248E+03 -0.97899790281E+02  0.24627295363E+03  0.00000000000E+00 0. -1.
         -4    1    6    6    0  503  0.66476905478E+02  0.21535808834E+03 -0.74967707386E+02  0.23752566667E+03  0.00000000000E+00 0.  1.
<mgrwt>
<rscale>  0 0.12805980E+04</rscale>
<asrwt>0</asrwt>
<pdfrwt beam="1">  1        2 0.31204300E+00 0.12805980E+04</pdfrwt>
<pdfrwt beam="2">  1       -2 0.20861768E+00 0.12805980E+04</pdfrwt>
<totfact> 0.72436484E-01</totfact>
</mgrwt>
</event>
<event>
12    1  0.9321077E-008  0.5875863E+03  0.7818608E-02  0.9931501E-01
         -2   -1    0    0    0  501 -0.00000000000E+00  0.00000000000E+00  0.55874019062E+03  0.55874019062E+03  0.00000000000E+00 0.  1.
          2   -1    0    0  501    0  0.00000000000E+00 -0.00000000000E+00 -0.71112661387E+03  0.71112661387E+03  0.00000000000E+00 0. -1.
         23    2    1    2    0    0 -0.18405463055E+03 -0.40197015327E+03 -0.25523430470E+03  0.51779111291E+03  0.86642802151E+02 0.  0.
    5000000    2    1    2    0    0  0.18405463055E+03  0.40197015327E+03  0.10284788145E+03  0.75207569158E+03  0.59965327315E+03 0.  0.
         23    2    4    4    0    0  0.29055928657E+03 -0.14993200586E+02  0.24480496490E+02  0.30522164462E+03  0.88946402749E+02 0.  0.
         23    2    4    4    0    0 -0.10650465602E+03  0.41696335386E+03  0.78367384964E+02  0.44685404696E+03  0.91298477774E+02 0.  0.
          4    1    3    3  502    0 -0.92874426962E+02 -0.22070167595E+03 -0.88895189123E+02  0.25541582488E+03  0.00000000000E+00 0.  1.
         -4    1    3    3    0  502 -0.91180203592E+02 -0.18126847732E+03 -0.16633911558E+03  0.26237528803E+03  0.00000000000E+00 0. -1.
         15    1    5    5    0    0  0.21208746883E+03 -0.44855737687E+02  0.38204572109E+02  0.22012696040E+03  0.17770000000E+01 0.  1.
        -15    1    5    5    0    0  0.78471817740E+02  0.29862537101E+02 -0.13724075619E+02  0.85094684218E+02  0.17770000000E+01 0. -1.
          1    1    6    6  503    0 -0.36939376577E+02  0.22188075929E+03 -0.13192676998E+01  0.22493850127E+03  0.00000000000E+00 0. -1.
         -1    1    6    6    0  503 -0.69565279439E+02  0.19508259457E+03  0.79686652664E+02  0.22191554569E+03  0.00000000000E+00 0.  1.
<mgrwt>
<rscale>  0 0.58758626E+03</rscale>
<asrwt>0</asrwt>
<pdfrwt beam="1">  1        2 0.10940409E+00 0.58758626E+03</pdfrwt>
<pdfrwt beam="2">  1       -2 0.85960030E-01 0.58758626E+03</pdfrwt>
<totfact> 0.48450341E+01</totfact>
</mgrwt>
</event>
<event>
12    1  0.9321077E-008  0.9283613E+03  0.7818608E-02  0.9390807E-01
         -1   -1    0    0    0  501 -0.00000000000E+00  0.00000000000E+00  0.37110520349E+03  0.37110520349E+03  0.00000000000E+00 0.  1.
          1   -1    0    0  501    0  0.00000000000E+00 -0.00000000000E+00 -0.29037849707E+04  0.29037849707E+04  0.00000000000E+00 0. -1.
         23    2    1    2    0    0 -0.70599870247E+03 -0.49966270036E+03 -0.54654487648E+03  0.10270353772E+04  0.89405715347E+02 0.  0.
    5000000    2    1    2    0    0  0.70599870247E+03  0.49966270036E+03 -0.19861348907E+04  0.22478547970E+04  0.60001866828E+03 0.  0.
         23    2    4    4    0    0  0.24592566367E+03 -0.66805048620E+02 -0.86823657602E+03  0.90956289593E+03  0.92344805710E+02 0.  0.
         23    2    4    4    0    0  0.46007303880E+03  0.56646774898E+03 -0.11178983147E+04  0.13382919011E+04  0.93678486428E+02 0.  0.
          1    1    3    3  502    0 -0.46334666175E+03 -0.35882642344E+03 -0.40838797677E+03  0.71430194644E+03  0.00000000000E+00 0. -1.
         -1    1    3    3    0  502 -0.24265204072E+03 -0.14083627692E+03 -0.13815689971E+03  0.31273343073E+03  0.00000000000E+00 0.  1.
         15    1    5    5    0    0  0.66705529813E+02 -0.42420731139E+02 -0.39713074812E+03  0.40492608581E+03  0.17770000000E+01 0.  1.
        -15    1    5    5    0    0  0.17922013385E+03 -0.24384317481E+02 -0.47110582790E+03  0.50463681012E+03  0.17770000000E+01 0. -1.
          1    1    6    6  503    0  0.28987438955E+03  0.33812156268E+03 -0.59970721568E+03  0.74699537978E+03  0.00000000000E+00 0. -1.
         -1    1    6    6    0  503  0.17019864925E+03  0.22834618629E+03 -0.51819109899E+03  0.59129652128E+03  0.00000000000E+00 0.  1.
<mgrwt>
<rscale>  0 0.92836131E+03</rscale>
<asrwt>0</asrwt>
<pdfrwt beam="1">  1        1 0.44673615E+00 0.92836131E+03</pdfrwt>
<pdfrwt beam="2">  1       -1 0.57093109E-01 0.92836131E+03</pdfrwt>
<totfact> 0.22627852E+00</totfact>
</mgrwt>
</event>
<event>
12    1  0.9829807E-008  0.1041858E+04  0.7818608E-02  0.9263791E-01
          1   -1    0    0  501    0  0.00000000000E+00  0.00000000000E+00  0.66342576955E+03  0.66342576955E+03  0.00000000000E+00 0. -1.
         -1   -1    0    0    0  501 -0.00000000000E+00 -0.00000000000E+00 -0.18733079596E+04  0.18733079596E+04  0.00000000000E+00 0.  1.
         23    2    1    2    0    0 -0.92642520771E+03 -0.42955301851E+03 -0.39146066762E+03  0.10971185064E+04  0.87453425909E+02 0.  0.
    5000000    2    1    2    0    0  0.92642520771E+03  0.42955301851E+03 -0.81842152242E+03  0.14396152227E+04  0.59991561064E+03 0.  0.
         23    2    4    4    0    0  0.74322619128E+03  0.42206036494E+03 -0.87566213411E+03  0.12270909082E+04  0.91911918450E+02 0.  0.
         23    2    4    4    0    0  0.18319901642E+03  0.74926535636E+01  0.57240611683E+02  0.21252431453E+03  0.90950960210E+02 0.  0.
          3    1    3    3  502    0 -0.21976068323E+03 -0.14280298420E+03 -0.90855359811E+02  0.27738447433E+03  0.00000000000E+00 0. -1.
         -3    1    3    3    0  502 -0.70666452447E+03 -0.28675003430E+03 -0.30060530781E+03  0.81973403211E+03  0.00000000000E+00 0.  1.
         15    1    5    5    0    0  0.36115839551E+03  0.19710896294E+03 -0.35690919143E+03  0.54467849102E+03  0.17770000000E+01 0. -1.
        -15    1    5    5    0    0  0.38206779578E+03  0.22495140200E+03 -0.51875294267E+03  0.68241241716E+03  0.17770000000E+01 0.  1.
          4    1    6    6  503    0  0.37572699731E+02 -0.36165299933E+02  0.21106630318E+02  0.56259457229E+02  0.00000000000E+00 0. -1.
         -4    1    6    6    0  503  0.14562631669E+03  0.43657953497E+02  0.36133981365E+02  0.15626485730E+03  0.00000000000E+00 0.  1.
<mgrwt>
<rscale>  0 0.10418575E+04</rscale>
<asrwt>0</asrwt>
<pdfrwt beam="1">  1        1 0.10206551E+00 0.10418575E+04</pdfrwt>
<pdfrwt beam="2">  1       -1 0.28820122E+00 0.10418575E+04</pdfrwt>
<totfact> 0.11713454E+00</totfact>
</mgrwt>
</event>
<event>
12    1  0.9321077E-008  0.1054523E+04  0.7818608E-02  0.9250686E-01
         -1   -1    0    0    0  501 -0.00000000000E+00  0.00000000000E+00  0.76822214889E+03  0.76822214889E+03  0.00000000000E+00 0.  1.
          1   -1    0    0  501    0  0.00000000000E+00 -0.00000000000E+00 -0.15526078315E+04  0.15526078315E+04  0.00000000000E+00 0. -1.
         23    2    1    2    0    0  0.24264743235E+00 -0.99695830921E+03 -0.51818154543E+03  0.11272201041E+04  0.90482704574E+02 0.  0.
    5000000    2    1    2    0    0 -0.24264743235E+00  0.99695830921E+03 -0.26620413720E+03  0.11936098763E+04  0.59992829992E+03 0.  0.
         23    2    4    4    0    0 -0.90250876833E+02 -0.93899464130E+01 -0.10565843087E+03  0.16648973747E+03  0.91223554015E+02 0.  0.
         23    2    4    4    0    0  0.90008229400E+02  0.10063482556E+04 -0.16054570633E+03  0.10271201389E+04  0.91447049635E+02 0.  0.
          1    1    3    3  502    0 -0.29787973093E+02 -0.38214959051E+03 -0.23548882588E+03  0.44986733598E+03  0.00000000000E+00 0. -1.
         -1    1    3    3    0  502  0.30030620525E+02 -0.61480871870E+03 -0.28269271955E+03  0.67735276810E+03  0.00000000000E+00 0.  1.
         15    1    5    5    0    0 -0.22278127215E+02 -0.16241584730E+02 -0.92961566753E+02  0.96979970349E+02  0.17770000000E+01 0. -1.
        -15    1    5    5    0    0 -0.67972749617E+02  0.68516383171E+01 -0.12696864117E+02  0.69509767124E+02  0.17770000000E+01 0.  1.
          4    1    6    6  503    0  0.66475492997E+02  0.29110501812E+03 -0.36553234976E+02  0.30082762793E+03  0.00000000000E+00 0. -1.
         -4    1    6    6    0  503  0.23532736403E+02  0.71524323751E+03 -0.12399247135E+03  0.72629251093E+03  0.00000000000E+00 0.  1.
<mgrwt>
<rscale>  0 0.10545234E+04</rscale>
<asrwt>0</asrwt>
<pdfrwt beam="1">  1        1 0.23886274E+00 0.10545234E+04</pdfrwt>
<pdfrwt beam="2">  1       -1 0.11818802E+00 0.10545234E+04</pdfrwt>
<totfact> 0.38619728E+00</totfact>
</mgrwt>
</event>
<event>
12    1  0.9321077E-008  0.4562917E+03  0.7818608E-02  0.1025862E+00
         -2   -1    0    0    0  501 -0.00000000000E+00  0.00000000000E+00  0.12132045475E+03  0.12132045475E+03  0.00000000000E+00 0.  1.
          2   -1    0    0  501    0  0.00000000000E+00 -0.00000000000E+00 -0.25784195091E+04  0.25784195091E+04  0.00000000000E+00 0. -1.
         23    2    1    2    0    0  0.26672320771E+03 -0.99514880581E+02 -0.21669656727E+03  0.36296937216E+03  0.61195439949E+02 0.  0.
    5000000    2    1    2    0    0 -0.26672320771E+03  0.99514880581E+02 -0.22404024871E+04  0.23367705917E+04  0.60004084290E+03 0.  0.
         23    2    4    4    0    0 -0.31424524983E+02  0.30089582942E+03 -0.79015756481E+03  0.85160239606E+03  0.96705029958E+02 0.  0.
         23    2    4    4    0    0 -0.23529868272E+03 -0.20138094884E+03 -0.14502449222E+04  0.14851681956E+04  0.81206392211E+02 0.  0.
          1    1    3    3  502    0  0.21592754400E+03 -0.82909717246E+02 -0.14299129718E+03  0.27192873431E+03  0.00000000000E+00 0. -1.
         -1    1    3    3    0  502  0.50795663704E+02 -0.16605163336E+02 -0.73705270098E+02  0.91040637853E+02  0.00000000000E+00 0.  1.
         15    1    5    5    0    0  0.32429518202E+02  0.15464170663E+03 -0.39187502519E+03  0.42253393257E+03  0.17770000000E+01 0.  1.
        -15    1    5    5    0    0 -0.63854043185E+02  0.14625412278E+03 -0.39828253962E+03  0.42906846349E+03  0.17770000000E+01 0. -1.
          4    1    6    6  503    0 -0.98093370376E+02 -0.72364344577E+02 -0.75897108990E+03  0.76869761479E+03  0.00000000000E+00 0. -1.
         -4    1    6    6    0  503 -0.13720531235E+03 -0.12901660426E+03 -0.69127383235E+03  0.71647058084E+03  0.00000000000E+00 0.  1.
<mgrwt>
<rscale>  0 0.45629170E+03</rscale>
<asrwt>0</asrwt>
<pdfrwt beam="1">  1        2 0.39667989E+00 0.45629170E+03</pdfrwt>
<pdfrwt beam="2">  1       -2 0.18664687E-01 0.45629170E+03</pdfrwt>
<totfact> 0.82318376E+01</totfact>
</mgrwt>
</event>
<event>
12    1  0.9321077E-008  0.1654225E+04  0.7818608E-02  0.8787911E-01
          2   -1    0    0  501    0  0.00000000000E+00  0.00000000000E+00  0.34904189221E+04  0.34904189221E+04  0.00000000000E+00 0. -1.
         -2   -1    0    0    0  501 -0.00000000000E+00 -0.00000000000E+00 -0.83163305317E+03  0.83163305317E+03  0.00000000000E+00 0.  1.
         23    2    1    2    0    0  0.11995795793E+04  0.10958304882E+04  0.92807243070E+03  0.18735495049E+04  0.95045698852E+02 0.  0.
    5000000    2    1    2    0    0 -0.11995795793E+04 -0.10958304882E+04  0.17307134382E+04  0.24485024703E+04  0.59996642904E+03 0.  0.
         23    2    4    4    0    0 -0.45284659542E+03 -0.17695708002E+03  0.26278811471E+03  0.56034323440E+03  0.92428891319E+02 0.  0.
         23    2    4    4    0    0 -0.74673298391E+03 -0.91887340816E+03  0.14679253235E+04  0.18881592359E+04  0.91662725893E+02 0.  0.
          1    1    3    3  502    0  0.39626778479E+03  0.42173278833E+03  0.31721928754E+03  0.65993543503E+03  0.00000000000E+00 0. -1.
         -1    1    3    3    0  502  0.80331179454E+03  0.67409769986E+03  0.61085314316E+03  0.12136140699E+04  0.00000000000E+00 0.  1.
         15    1    5    5    0    0 -0.30777396863E+03 -0.16463399640E+03  0.17725934121E+03  0.39147567014E+03  0.17770000000E+01 0. -1.
        -15    1    5    5    0    0 -0.14507262679E+03 -0.12323083627E+02  0.85528773495E+02  0.16886756426E+03  0.17770000000E+01 0.  1.
          2    1    6    6  503    0 -0.91140653487E+02 -0.15491034673E+03  0.19359251494E+03  0.26416263189E+03  0.00000000000E+00 0. -1.
         -2    1    6    6    0  503 -0.65559233042E+03 -0.76396306143E+03  0.12743328086E+04  0.16239966040E+04  0.00000000000E+00 0.  1.
<mgrwt>
<rscale>  0 0.16542248E+04</rscale>
<asrwt>0</asrwt>
<pdfrwt beam="1">  1        2 0.53698752E+00 0.16542248E+04</pdfrwt>
<pdfrwt beam="2">  1       -2 0.12794355E+00 0.16542248E+04</pdfrwt>
<totfact> 0.35080259E-01</totfact>
</mgrwt>
</event>
<event>
12    1  0.9321077E-008  0.1435332E+04  0.7818608E-02  0.8928633E-01
          2   -1    0    0  501    0  0.00000000000E+00  0.00000000000E+00  0.78964024138E+03  0.78964024138E+03  0.00000000000E+00 0. -1.
         -2   -1    0    0    0  501 -0.00000000000E+00 -0.00000000000E+00 -0.27205096232E+04  0.27205096232E+04  0.00000000000E+00 0.  1.
         23    2    1    2    0    0 -0.55498837907E+03  0.12878817098E+04 -0.88765414655E+03  0.16622140251E+04  0.91510558071E+02 0.  0.
    5000000    2    1    2    0    0  0.55498837907E+03 -0.12878817098E+04 -0.10432152353E+04  0.18479358395E+04  0.59993119633E+03 0.  0.
         23    2    4    4    0    0  0.61699719013E+03 -0.10714030952E+04 -0.10170940365E+04  0.16035665840E+04  0.91407794940E+02 0.  0.
         23    2    4    4    0    0 -0.62008811054E+02 -0.21647861453E+03 -0.26121198777E+02  0.24436925549E+03  0.91246549559E+02 0.  0.
          3    1    3    3  502    0 -0.28099025032E+03  0.53753104447E+03 -0.38275804099E+03  0.71721605008E+03  0.00000000000E+00 0. -1.
         -3    1    3    3    0  502 -0.27399812875E+03  0.75035066530E+03 -0.50489610556E+03  0.94499797507E+03  0.00000000000E+00 0.  1.
         15    1    5    5    0    0  0.39261996504E+03 -0.59352161990E+03 -0.57096755238E+03  0.91237352759E+03  0.17770000000E+01 0. -1.
        -15    1    5    5    0    0  0.22437722508E+03 -0.47788147534E+03 -0.44612648415E+03  0.69119305639E+03  0.17770000000E+01 0.  1.
          4    1    6    6  503    0 -0.65071192277E+01 -0.10010162432E+02  0.22174216874E+02  0.25184158643E+02  0.00000000000E+00 0. -1.
         -4    1    6    6    0  503 -0.55501691826E+02 -0.20646845210E+03 -0.48295415651E+02  0.21918509685E+03  0.00000000000E+00 0.  1.
<mgrwt>
<rscale>  0 0.14353324E+04</rscale>
<asrwt>0</asrwt>
<pdfrwt beam="1">  1        2 0.12148311E+00 0.14353324E+04</pdfrwt>
<pdfrwt beam="2">  1       -2 0.41853994E+00 0.14353324E+04</pdfrwt>
<totfact> 0.18879653E-01</totfact>
</mgrwt>
</event>
<event>
12    1  0.9321077E-008  0.3720141E+03  0.7818608E-02  0.1053925E+00
          1   -1    0    0  501    0  0.00000000000E+00  0.00000000000E+00  0.72239828485E+03  0.72239828485E+03  0.00000000000E+00 0. -1.
         -1   -1    0    0    0  501 -0.00000000000E+00 -0.00000000000E+00 -0.22348778101E+03  0.22348778101E+03  0.00000000000E+00 0.  1.
         23    2    1    2    0    0 -0.60652922114E+02 -0.13031090605E+03  0.28699311630E+02  0.17014080219E+03  0.86397528236E+02 0.  0.
    5000000    2    1    2    0    0  0.60652922114E+02  0.13031090605E+03  0.47021119221E+03  0.77574526367E+03  0.60001869940E+03 0.  0.
         23    2    4    4    0    0 -0.24842831589E+03  0.10243326647E+03  0.28677542589E+03  0.40441826278E+03  0.95418992641E+02 0.  0.
         23    2    4    4    0    0  0.30908123800E+03  0.27877639578E+02  0.18343576632E+03  0.37132700089E+03  0.89031942319E+02 0.  0.
          3    1    3    3  502    0 -0.66382886513E+01 -0.68468348708E+02 -0.23674512354E+02  0.72749324301E+02  0.00000000000E+00 0. -1.
         -3    1    3    3    0  502 -0.54014633463E+02 -0.61842557343E+02  0.52373823984E+02  0.97391477890E+02  0.00000000000E+00 0.  1.
         15    1    5    5    0    0 -0.23614424735E+03  0.89334780690E+02  0.29162081588E+03  0.38573393237E+03  0.17770000000E+01 0.  1.
        -15    1    5    5    0    0 -0.12284068539E+02  0.13098485783E+02 -0.48453899877E+01  0.18684330408E+02  0.17770000000E+01 0. -1.
          3    1    6    6  503    0  0.28247442221E+03  0.51368443341E+02  0.15852214916E+03  0.32796308931E+03  0.00000000000E+00 0. -1.
         -3    1    6    6    0  503  0.26606815797E+02 -0.23490803763E+02  0.24913617156E+02  0.43363911587E+02  0.00000000000E+00 0.  1.
<mgrwt>
<rscale>  0 0.37201414E+03</rscale>
<asrwt>0</asrwt>
<pdfrwt beam="1">  1        1 0.11113820E+00 0.37201414E+03</pdfrwt>
<pdfrwt beam="2">  1       -1 0.34382736E-01 0.37201414E+03</pdfrwt>
<totfact> 0.21659535E+02</totfact>
</mgrwt>
</event>
<event>
12    1  0.9321077E-008  0.3818192E+03  0.7818608E-02  0.1050263E+00
         -1   -1    0    0    0  501 -0.00000000000E+00  0.00000000000E+00  0.56170828346E+03  0.56170828346E+03  0.00000000000E+00 0.  1.
          1   -1    0    0  501    0  0.00000000000E+00 -0.00000000000E+00 -0.56556036902E+03  0.56556036902E+03  0.00000000000E+00 0. -1.
         23    2    1    2    0    0 -0.32844580880E+03 -0.11955066607E+03  0.18777369756E+03  0.40685228871E+03  0.90004512405E+02 0.  0.
    5000000    2    1    2    0    0  0.32844580880E+03  0.11955066607E+03 -0.19162578312E+03  0.72041636378E+03  0.60009189743E+03 0.  0.
         23    2    4    4    0    0  0.27073541930E+03 -0.30136232438E+01 -0.37711302967E+03  0.47295368928E+03  0.90355995238E+02 0.  0.
         23    2    4    4    0    0  0.57710389508E+02  0.12256428931E+03  0.18548724654E+03  0.24746267449E+03  0.92085626272E+02 0.  0.
          1    1    3    3  502    0 -0.23811357867E+03 -0.10883108202E+03  0.17520430651E+03  0.31502195127E+03  0.00000000000E+00 0. -1.
         -1    1    3    3    0  502 -0.90332230133E+02 -0.10719584049E+02  0.12569391050E+02  0.91830337440E+02  0.00000000000E+00 0.  1.
         15    1    5    5    0    0  0.19192980495E+03  0.58904172078E+01 -0.19195065650E+03  0.27151419724E+03  0.17770000000E+01 0. -1.
        -15    1    5    5    0    0  0.78805614344E+02 -0.89040404516E+01 -0.18516237316E+03  0.20143949204E+03  0.17770000000E+01 0.  1.
          1    1    6    6  503    0  0.48174420692E+02  0.12047401829E+03  0.10645999234E+03  0.16783472186E+03  0.00000000000E+00 0. -1.
         -1    1    6    6    0  503  0.95359688163E+01  0.20902710217E+01  0.79027254205E+02  0.79627952638E+02  0.00000000000E+00 0.  1.
<mgrwt>
<rscale>  0 0.38181921E+03</rscale>
<asrwt>0</asrwt>
<pdfrwt beam="1">  1        1 0.87009287E-01 0.38181921E+03</pdfrwt>
<pdfrwt beam="2">  1       -1 0.86416659E-01 0.38181921E+03</pdfrwt>
<totfact> 0.52541673E+01</totfact>
</mgrwt>
</event>
<event>
12    1  0.9321077E-008  0.4909420E+03  0.7818608E-02  0.1016171E+00
          1   -1    0    0  501    0  0.00000000000E+00  0.00000000000E+00  0.81450239009E+03  0.81450239009E+03  0.00000000000E+00 0. -1.
         -1   -1    0    0    0  501 -0.00000000000E+00 -0.00000000000E+00 -0.38853398972E+03  0.38853398972E+03  0.00000000000E+00 0.  1.
         23    2    1    2    0    0 -0.32926801474E+03  0.69883386024E+02  0.37648967088E+03  0.51349992658E+03  0.92933251048E+02 0.  0.
    5000000    2    1    2    0    0  0.32926801474E+03 -0.69883386024E+02  0.49478729491E+02  0.68953645323E+03  0.59975933715E+03 0.  0.
         23    2    4    4    0    0  0.35908865175E+03 -0.24491515391E+03 -0.80301124876E+02  0.45133226341E+03  0.91238417887E+02 0.  0.
         23    2    4    4    0    0 -0.29820637018E+02  0.17503176789E+03  0.12977985437E+03  0.23820418983E+03  0.91504291102E+02 0.  0.
          4    1    3    3  502    0 -0.70146038767E+02 -0.11264911546E+02  0.41477410265E+02  0.82266278323E+02  0.00000000000E+00 0. -1.
         -4    1    3    3    0  502 -0.25912197597E+03  0.81148297570E+02  0.33501226062E+03  0.43123364826E+03  0.00000000000E+00 0.  1.
         15    1    5    5    0    0  0.31871340374E+03 -0.17871996851E+03 -0.78554940103E+02  0.37375539757E+03  0.17770000000E+01 0. -1.
        -15    1    5    5    0    0  0.40375248015E+02 -0.66195185403E+02 -0.17461847734E+01  0.77576865837E+02  0.17770000000E+01 0.  1.
          4    1    6    6  503    0 -0.59254407874E+02  0.10946969086E+03  0.60574892441E+02  0.13843415642E+03  0.00000000000E+00 0. -1.
         -4    1    6    6    0  503  0.29433770856E+02  0.65562077025E+02  0.69204961926E+02  0.99770033405E+02  0.00000000000E+00 0.  1.
<mgrwt>
<rscale>  0 0.49094201E+03</rscale>
<asrwt>0</asrwt>
<pdfrwt beam="1">  1        1 0.12530806E+00 0.49094201E+03</pdfrwt>
<pdfrwt beam="2">  1       -1 0.59774460E-01 0.49094201E+03</pdfrwt>
<totfact> 0.64023790E+01</totfact>
</mgrwt>
</event>
<event>
12    1  0.9577133E-008  0.6299445E+03  0.7818608E-02  0.9845157E-01
          2   -1    0    0  501    0  0.00000000000E+00  0.00000000000E+00  0.19421809814E+04  0.19421809814E+04  0.00000000000E+00 0. -1.
         -2   -1    0    0    0  501 -0.00000000000E+00 -0.00000000000E+00 -0.42949601080E+03  0.42949601080E+03  0.00000000000E+00 0.  1.
         23    2    1    2    0    0 -0.36773046364E+03 -0.37495257228E+03  0.14818526198E+04  0.15738626730E+04  0.73084891006E+02 0.  0.
    5000000    2    1    2    0    0  0.36773046364E+03  0.37495257228E+03  0.30832350814E+02  0.79781431922E+03  0.59978490206E+03 0.  0.
         23    2    4    4    0    0 -0.65104914109E+02  0.26833972099E+03  0.15215939054E+03  0.32677019019E+03  0.85915198685E+02 0.  0.
         23    2    4    4    0    0  0.43283537775E+03  0.10661285129E+03 -0.12132703973E+03  0.47104412903E+03  0.91921469894E+02 0.  0.
          2    1    3    3  502    0 -0.21237856883E+03 -0.18239292680E+03  0.86787870182E+03  0.91191297684E+03  0.00000000000E+00 0. -1.
         -2    1    3    3    0  502 -0.15535189481E+03 -0.19255964549E+03  0.61397391796E+03  0.66194969615E+03  0.00000000000E+00 0.  1.
         15    1    5    5    0    0 -0.43914366682E+02  0.10164273037E+03  0.10409856029E+03  0.15198481576E+03  0.17770000000E+01 0. -1.
        -15    1    5    5    0    0 -0.21190547427E+02  0.16669699061E+03  0.48060830252E+02  0.17478537443E+03  0.17770000000E+01 0.  1.
          2    1    6    6  503    0  0.33919243413E+03  0.46257811778E+02 -0.10731371247E+03  0.35875831057E+03  0.00000000000E+00 0. -1.
         -2    1    6    6    0  503  0.93642943621E+02  0.60355039515E+02 -0.14013327259E+02  0.11228581845E+03  0.00000000000E+00 0.  1.
<mgrwt>
<rscale>  0 0.62994450E+03</rscale>
<asrwt>0</asrwt>
<pdfrwt beam="1">  1        2 0.29879707E+00 0.62994450E+03</pdfrwt>
<pdfrwt beam="2">  1       -2 0.66076310E-01 0.62994450E+03</pdfrwt>
<totfact> 0.15959498E+01</totfact>
</mgrwt>
</event>
<event>
12    1  0.9321077E-008  0.8888890E+03  0.7818608E-02  0.9439578E-01
          2   -1    0    0  501    0  0.00000000000E+00  0.00000000000E+00  0.15362754259E+04  0.15362754259E+04  0.00000000000E+00 0. -1.
         -2   -1    0    0    0  501 -0.00000000000E+00 -0.00000000000E+00 -0.81535263944E+03  0.81535263944E+03  0.00000000000E+00 0.  1.
         23    2    1    2    0    0  0.32173994141E+01  0.87353414246E+03 -0.25068734907E+03  0.91379558873E+03  0.95425265457E+02 0.  0.
    5000000    2    1    2    0    0 -0.32173994141E+01 -0.87353414246E+03  0.97161013552E+03  0.14378324766E+04  0.60021973110E+03 0.  0.
         23    2    4    4    0    0 -0.26040551939E+02 -0.14844766832E+03 -0.48914507403E+02  0.18236000308E+03  0.90264727966E+02 0.  0.
         23    2    4    4    0    0  0.22823152525E+02 -0.72508647414E+03  0.10205246429E+04  0.12554724735E+04  0.92028765388E+02 0.  0.
          1    1    3    3  502    0 -0.48770370433E+00  0.45261814800E+03 -0.80303436729E+02  0.45968692358E+03  0.00000000000E+00 0.  1.
         -1    1    3    3    0  502  0.37051031184E+01  0.42091599446E+03 -0.17038391234E+03  0.45410866515E+03  0.00000000000E+00 0. -1.
         15    1    5    5    0    0  0.26307427061E+02 -0.16216685739E+02 -0.21036443160E+02  0.37426611986E+02  0.17770000000E+01 0. -1.
        -15    1    5    5    0    0 -0.52347979000E+02 -0.13223098258E+03 -0.27878064242E+02  0.14493339110E+03  0.17770000000E+01 0.  1.
          1    1    6    6  503    0  0.49924059774E+02 -0.23671504639E+03  0.32351382128E+03  0.40396487160E+03  0.00000000000E+00 0. -1.
         -1    1    6    6    0  503 -0.27100907249E+02 -0.48837142776E+03  0.69701082165E+03  0.85150760191E+03  0.00000000000E+00 0.  1.
<mgrwt>
<rscale>  0 0.88888896E+03</rscale>
<asrwt>0</asrwt>
<pdfrwt beam="1">  1        2 0.23635006E+00 0.88888896E+03</pdfrwt>
<pdfrwt beam="2">  1       -2 0.12543887E+00 0.88888896E+03</pdfrwt>
<totfact> 0.57950200E+00</totfact>
</mgrwt>
</event>
<event>
12    1  0.9321077E-008  0.5032694E+03  0.7818608E-02  0.1012929E+00
         -1   -1    0    0    0  501 -0.00000000000E+00  0.00000000000E+00  0.82735569176E+03  0.82735569176E+03  0.00000000000E+00 0.  1.
          1   -1    0    0  501    0  0.00000000000E+00 -0.00000000000E+00 -0.46326385933E+03  0.46326385933E+03  0.00000000000E+00 0. -1.
         23    2    1    2    0    0 -0.13114647778E+03 -0.33749916899E+03 -0.16919095167E+03  0.40990290375E+03  0.91047925121E+02 0.  0.
    5000000    2    1    2    0    0  0.13114647778E+03  0.33749916899E+03  0.53328278410E+03  0.88071664734E+03  0.60013848184E+03 0.  0.
         23    2    4    4    0    0  0.32621653357E+03  0.25585951953E+03  0.18597584472E+03  0.46282079856E+03  0.87947463001E+02 0.  0.
         23    2    4    4    0    0 -0.19507005579E+03  0.81639649467E+02  0.34730693938E+03  0.41789584879E+03  0.96423395838E+02 0.  0.
          3    1    3    3  502    0 -0.45824480531E+02 -0.21441835178E+03 -0.13075136083E+03  0.25528617462E+03  0.00000000000E+00 0. -1.
         -3    1    3    3    0  502 -0.85321997251E+02 -0.12308081722E+03 -0.38439590837E+02  0.15461672913E+03  0.00000000000E+00 0.  1.
         15    1    5    5    0    0  0.17258823939E+03  0.93179530009E+02  0.11826076524E+03  0.22903687807E+03  0.17770000000E+01 0.  1.
        -15    1    5    5    0    0  0.15362829418E+03  0.16267998952E+03  0.67715079477E+02  0.23378392049E+03  0.17770000000E+01 0. -1.
          1    1    6    6  503    0 -0.19420237166E+03  0.70753596492E+02  0.27106933486E+03  0.34088006231E+03  0.00000000000E+00 0. -1.
         -1    1    6    6    0  503 -0.86768412408E+00  0.10886052976E+02  0.76237604512E+02  0.77015786479E+02  0.00000000000E+00 0.  1.
<mgrwt>
<rscale>  0 0.50326939E+03</rscale>
<asrwt>0</asrwt>
<pdfrwt beam="1">  1        1 0.71271363E-01 0.50326939E+03</pdfrwt>
<pdfrwt beam="2">  1       -1 0.12728549E+00 0.50326939E+03</pdfrwt>
<totfact> 0.27771074E+01</totfact>
</mgrwt>
</event>
<event>
12    1  0.9321077E-008  0.3538821E+03  0.7818608E-02  0.1061033E+00
         -2   -1    0    0    0  501 -0.00000000000E+00  0.00000000000E+00  0.76224151070E+03  0.76224151070E+03  0.00000000000E+00 0.  1.
          2   -1    0    0  501    0  0.00000000000E+00 -0.00000000000E+00 -0.44427646373E+03  0.44427646373E+03  0.00000000000E+00 0. -1.
         23    2    1    2    0    0  0.25917033663E+02 -0.31345728381E+03 -0.17254454574E+03  0.37007271574E+03  0.90857213618E+02 0.  0.
    5000000    2    1    2    0    0 -0.25917033663E+02  0.31345728381E+03  0.49050959272E+03  0.83644525869E+03  0.60009486653E+03 0.  0.
         23    2    4    4    0    0 -0.84028531516E+02  0.13043459580E+03  0.57976121234E+03  0.60724028689E+03  0.92432271425E+02 0.  0.
         23    2    4    4    0    0  0.58111497853E+02  0.18302268801E+03 -0.89251619621E+02  0.22920497180E+03  0.87720105930E+02 0.  0.
          4    1    3    3  502    0 -0.26465215988E+02 -0.14885018728E+03 -0.53873921089E+02  0.16049668309E+03  0.00000000000E+00 0. -1.
         -4    1    3    3    0  502  0.52382249651E+02 -0.16460709653E+03 -0.11867062466E+03  0.20957603265E+03  0.00000000000E+00 0.  1.
         15    1    5    5    0    0 -0.24892483357E+02  0.11448250117E+03  0.33403525761E+03  0.35398953354E+03  0.17770000000E+01 0. -1.
        -15    1    5    5    0    0 -0.59136048159E+02  0.15952094625E+02  0.24572595473E+03  0.25325075335E+03  0.17770000000E+01 0.  1.
          4    1    6    6  503    0 -0.35023450842E+01  0.10911172698E+03 -0.73738283479E+02  0.13173826261E+03  0.00000000000E+00 0.  1.
         -4    1    6    6    0  503  0.61613842938E+02  0.73910961031E+02 -0.15513336142E+02  0.97466709190E+02  0.00000000000E+00 0. -1.
<mgrwt>
<rscale>  0 0.35388207E+03</rscale>
<asrwt>0</asrwt>
<pdfrwt beam="1">  1        2 0.68350225E-01 0.35388207E+03</pdfrwt>
<pdfrwt beam="2">  1       -2 0.11726792E+00 0.35388207E+03</pdfrwt>
<totfact> 0.41696757E+01</totfact>
</mgrwt>
</event>
<event>
12    1  0.9321077E-008  0.6582085E+03  0.7818608E-02  0.9791497E-01
         -2   -1    0    0    0  501 -0.00000000000E+00  0.00000000000E+00  0.53919313969E+03  0.53919313969E+03  0.00000000000E+00 0.  1.
          2   -1    0    0  501    0  0.00000000000E+00 -0.00000000000E+00 -0.10724490749E+04  0.10724490749E+04  0.00000000000E+00 0. -1.
         23    2    1    2    0    0 -0.52267956076E+03 -0.66880874290E+02  0.15593285637E+03  0.55684077865E+03  0.89942328670E+02 0.  0.
    5000000    2    1    2    0    0  0.52267956076E+03  0.66880874290E+02 -0.68918879157E+03  0.10548014359E+04  0.59996491917E+03 0.  0.
         23    2    4    4    0    0  0.11369934898E+02 -0.18785130022E+03 -0.24808708838E+03  0.32712983777E+03  0.10024640106E+03 0.  0.
         23    2    4    4    0    0  0.51130962586E+03  0.25473217451E+03 -0.44110170319E+03  0.72767159816E+03  0.92785925542E+02 0.  0.
          1    1    3    3  502    0 -0.24989484099E+03  0.11812076327E+01  0.10526854787E+03  0.27116469898E+03  0.00000000000E+00 0. -1.
         -1    1    3    3    0  502 -0.27278471977E+03 -0.68062081923E+02  0.50664308504E+02  0.28567607966E+03  0.00000000000E+00 0.  1.
         15    1    5    5    0    0  0.35045825601E+02 -0.26537072524E+02 -0.24354426582E+02  0.50286399089E+02  0.17770000000E+01 0. -1.
        -15    1    5    5    0    0 -0.23675890703E+02 -0.16131422770E+03 -0.22373266180E+03  0.27684343868E+03  0.17770000000E+01 0.  1.
          4    1    6    6  503    0  0.98223416593E+02  0.91237494061E+02 -0.90837972146E+02  0.16193720102E+03  0.00000000000E+00 0. -1.
         -4    1    6    6    0  503  0.41308620927E+03  0.16349468045E+03 -0.35026373105E+03  0.56573439714E+03  0.00000000000E+00 0.  1.
<mgrwt>
<rscale>  0 0.65820847E+03</rscale>
<asrwt>0</asrwt>
<pdfrwt beam="1">  1        2 0.16499216E+00 0.65820847E+03</pdfrwt>
<pdfrwt beam="2">  1       -2 0.82952792E-01 0.65820847E+03</pdfrwt>
<totfact> 0.29641185E+01</totfact>
</mgrwt>
</event>
<event>
12    1  0.9321077E-008  0.1174112E+04  0.7818608E-02  0.9135823E-01
         -2   -1    0    0    0  501 -0.00000000000E+00  0.00000000000E+00  0.87154787957E+03  0.87154787957E+03  0.00000000000E+00 0.  1.
          2   -1    0    0  501    0  0.00000000000E+00 -0.00000000000E+00 -0.16297607476E+04  0.16297607476E+04  0.00000000000E+00 0. -1.
         23    2    1    2    0    0  0.10494015442E+04 -0.36697148532E+03 -0.43465957401E+03  0.11972216388E+04  0.92190210884E+02 0.  0.
    5000000    2    1    2    0    0 -0.10494015442E+04  0.36697148532E+03 -0.32355329407E+03  0.13040869885E+04  0.60003705498E+03 0.  0.
         23    2    4    4    0    0 -0.13062615874E+03  0.27733517452E+03 -0.17532158829E+03  0.36484165126E+03  0.91617568178E+02 0.  0.
         23    2    4    4    0    0 -0.91877538547E+03  0.89636310795E+02 -0.14823170578E+03  0.93924533720E+03  0.89589551289E+02 0.  0.
          3    1    3    3  502    0  0.47424974623E+03 -0.13096736366E+03 -0.15796143456E+03  0.51673696108E+03  0.00000000000E+00 0. -1.
         -3    1    3    3    0  502  0.57515179798E+03 -0.23600412166E+03 -0.27669813945E+03  0.68048467767E+03  0.00000000000E+00 0.  1.
         15    1    5    5    0    0 -0.70888185825E+01  0.36874254420E+02 -0.60273575974E+02  0.71035369202E+02  0.17770000000E+01 0. -1.
        -15    1    5    5    0    0 -0.12353734016E+03  0.24046092010E+03 -0.11504801232E+03  0.29380628206E+03  0.17770000000E+01 0.  1.
          4    1    6    6  503    0 -0.47168714489E+03  0.58340962105E+01 -0.55046406982E+02  0.47492410579E+03  0.00000000000E+00 0. -1.
         -4    1    6    6    0  503 -0.44708824058E+03  0.83802214585E+02 -0.93185298794E+02  0.46432123141E+03  0.00000000000E+00 0.  1.
<mgrwt>
<rscale>  0 0.11741120E+04</rscale>
<asrwt>0</asrwt>
<pdfrwt beam="1">  1        2 0.25073242E+00 0.11741120E+04</pdfrwt>
<pdfrwt beam="2">  1       -2 0.13408429E+00 0.11741120E+04</pdfrwt>
<totfact> 0.42047110E+00</totfact>
</mgrwt>
</event>
<event>
12    1  0.9321077E-008  0.4739527E+03  0.7818608E-02  0.1020810E+00
          1   -1    0    0  501    0  0.00000000000E+00  0.00000000000E+00  0.22689203531E+03  0.22689203531E+03  0.00000000000E+00 0. -1.
         -1   -1    0    0    0  501 -0.00000000000E+00 -0.00000000000E+00 -0.18146000335E+04  0.18146000335E+04  0.00000000000E+00 0.  1.
         23    2    1    2    0    0  0.86240358510E+01  0.28751851977E+03 -0.12674906134E+04  0.13030438458E+04  0.93002881415E+02 0.  0.
    5000000    2    1    2    0    0 -0.86240358510E+01 -0.28751851977E+03 -0.32021738486E+03  0.73844822303E+03  0.60002110906E+03 0.  0.
         23    2    4    4    0    0 -0.14693477244E+03 -0.41847494412E+03 -0.24975929478E+03  0.51796364595E+03  0.95893310437E+02 0.  0.
         23    2    4    4    0    0  0.13831073659E+03  0.13095642434E+03 -0.70458090078E+02  0.22048457708E+03  0.85846731686E+02 0.  0.
          1    1    3    3  502    0 -0.32026236151E+02  0.65652575548E+02 -0.23017273078E+03  0.24148587220E+03  0.00000000000E+00 0. -1.
         -1    1    3    3    0  502  0.40650272002E+02  0.22186594423E+03 -0.10373178826E+04  0.10615579736E+04  0.00000000000E+00 0.  1.
         15    1    5    5    0    0 -0.96344997720E+01 -0.14214509900E+03 -0.10580320342E+03  0.17746979557E+03  0.17770000000E+01 0. -1.
        -15    1    5    5    0    0 -0.13730027266E+03 -0.27632984512E+03 -0.14395609136E+03  0.34049385038E+03  0.17770000000E+01 0.  1.
          4    1    6    6  503    0  0.95108443661E+02  0.52373867441E+02 -0.36108371720E+01  0.10863551993E+03  0.00000000000E+00 0.  1.
         -4    1    6    6    0  503  0.43202292924E+02  0.78582556904E+02 -0.66847252906E+02  0.11184905715E+03  0.00000000000E+00 0. -1.
<mgrwt>
<rscale>  0 0.47395268E+03</rscale>
<asrwt>0</asrwt>
<pdfrwt beam="1">  1        1 0.34906466E-01 0.47395268E+03</pdfrwt>
<pdfrwt beam="2">  1       -1 0.27916924E+00 0.47395268E+03</pdfrwt>
<totfact> 0.62025034E+00</totfact>
</mgrwt>
</event>
<event>
12    1  0.9321077E-008  0.1224343E+04  0.7818608E-02  0.9091812E-01
         -2   -1    0    0    0  501 -0.00000000000E+00  0.00000000000E+00  0.10386108287E+04  0.10386108287E+04  0.00000000000E+00 0.  1.
          2   -1    0    0  501    0  0.00000000000E+00 -0.00000000000E+00 -0.19915282169E+04  0.19915282169E+04  0.00000000000E+00 0. -1.
         23    2    1    2    0    0  0.54546163316E+03 -0.10378654301E+04  0.29874455476E+03  0.12131710856E+04  0.88559188198E+02 0.  0.
    5000000    2    1    2    0    0 -0.54546163316E+03  0.10378654301E+04 -0.12516619429E+04  0.18169679600E+04  0.60001825315E+03 0.  0.
         23    2    4    4    0    0 -0.11690530683E+03  0.72291209522E+03 -0.49999570749E+03  0.89159147348E+03  0.93117666830E+02 0.  0.
         23    2    4    4    0    0 -0.42855632633E+03  0.31495333484E+03 -0.75166623542E+03  0.92537648651E+03  0.91996654064E+02 0.  0.
          3    1    3    3  502    0  0.30676514086E+02 -0.25088759523E+02  0.12717725692E+02  0.41620126353E+02  0.00000000000E+00 0. -1.
         -3    1    3    3    0  502  0.51478511907E+03 -0.10127766705E+04  0.28602682906E+03  0.11715509593E+04  0.00000000000E+00 0.  1.
         15    1    5    5    0    0 -0.59807260897E+02  0.20605938656E+03 -0.10687363130E+03  0.23971339145E+03  0.17770000000E+01 0. -1.
        -15    1    5    5    0    0 -0.57098045937E+02  0.51685270866E+03 -0.39312207619E+03  0.65187808202E+03  0.17770000000E+01 0. -1.
          2    1    6    6  503    0 -0.30054805979E+03  0.17114722480E+03 -0.51371814688E+03  0.61929544099E+03  0.00000000000E+00 0. -1.
         -2    1    6    6    0  503 -0.12800826654E+03  0.14380611004E+03 -0.23794808854E+03  0.30608104552E+03  0.00000000000E+00 0.  1.
<mgrwt>
<rscale>  0 0.12243435E+04</rscale>
<asrwt>0</asrwt>
<pdfrwt beam="1">  1        2 0.30638895E+00 0.12243435E+04</pdfrwt>
<pdfrwt beam="2">  1       -2 0.15978628E+00 0.12243435E+04</pdfrwt>
<totfact> 0.16561435E+00</totfact>
</mgrwt>
</event>
<event>
12    1  0.9321077E-008  0.8199325E+03  0.7818608E-02  0.9531605E-01
          1   -1    0    0  501    0  0.00000000000E+00  0.00000000000E+00  0.29699000939E+04  0.29699000939E+04  0.00000000000E+00 0. -1.
         -1   -1    0    0    0  501 -0.00000000000E+00 -0.00000000000E+00 -0.27698614213E+03  0.27698614213E+03  0.00000000000E+00 0.  1.
         23    2    1    2    0    0  0.56954737199E+03  0.46196958529E+03  0.17956987952E+04  0.19419928035E+04  0.94877705760E+02 0.  0.
    5000000    2    1    2    0    0 -0.56954737199E+03 -0.46196958529E+03  0.89721515658E+03  0.13048934326E+04  0.59995977070E+03 0.  0.
         23    2    4    4    0    0  0.44907358985E+02  0.70732033257E+02  0.17200431587E+03  0.21153185884E+03  0.90225003233E+02 0.  0.
         23    2    4    4    0    0 -0.61445473097E+03 -0.53270161854E+03  0.72521084071E+03  0.10933615737E+04  0.90460690761E+02 0.  0.
          3    1    3    3  502    0  0.39783700320E+03  0.26779942579E+03  0.11253354230E+04  0.12232622890E+04  0.00000000000E+00 0. -1.
         -3    1    3    3    0  502  0.17171036879E+03  0.19417015950E+03  0.67036337224E+03  0.71873051447E+03  0.00000000000E+00 0.  1.
         15    1    5    5    0    0  0.37214005938E+02  0.36743562596E+02  0.16852890264E+03  0.17646563514E+03  0.17770000000E+01 0. -1.
        -15    1    5    5    0    0  0.76933530475E+01  0.33988470661E+02  0.34754132295E+01  0.35066223707E+02  0.17770000000E+01 0.  1.
          3    1    6    6  503    0 -0.43364461031E+03 -0.35606708090E+03  0.55076729613E+03  0.78624171134E+03  0.00000000000E+00 0. -1.
         -3    1    6    6    0  503 -0.18081012066E+03 -0.17663453764E+03  0.17444354457E+03  0.30711986237E+03  0.00000000000E+00 0.  1.
<mgrwt>
<rscale>  0 0.81993253E+03</rscale>
<asrwt>0</asrwt>
<pdfrwt beam="1">  1        1 0.45690769E+00 0.81993253E+03</pdfrwt>
<pdfrwt beam="2">  1       -1 0.42613255E-01 0.81993253E+03</pdfrwt>
<totfact> 0.35991432E+00</totfact>
</mgrwt>
</event>
<event>
12    1  0.9321077E-008  0.1609606E+04  0.7818608E-02  0.8814668E-01
          2   -1    0    0  501    0  0.00000000000E+00  0.00000000000E+00  0.14218067383E+04  0.14218067383E+04  0.00000000000E+00 0. -1.
         -2   -1    0    0    0  501 -0.00000000000E+00 -0.00000000000E+00 -0.19624915726E+04  0.19624915726E+04  0.00000000000E+00 0.  1.
         23    2    1    2    0    0  0.12670977924E+04 -0.91301811815E+03 -0.68051971627E+03  0.17052611219E+04  0.75296148095E+02 0.  0.
    5000000    2    1    2    0    0 -0.12670977924E+04  0.91301811815E+03  0.13983488192E+03  0.16790371890E+04  0.60039419410E+03 0.  0.
         23    2    4    4    0    0 -0.10101078411E+04  0.95989206874E+03  0.12960217118E+03  0.14023535481E+04  0.89933958038E+02 0.  0.
         23    2    4    4    0    0 -0.25698995133E+03 -0.46873950587E+02  0.10232710746E+02  0.27668364093E+03  0.90598711162E+02 0.  0.
          1    1    3    3  502    0  0.54296173124E+03 -0.39335269155E+03 -0.33286359638E+03  0.74855324149E+03  0.00000000000E+00 0. -1.
         -1    1    3    3    0  502  0.72413606117E+03 -0.51966542660E+03 -0.34765611989E+03  0.95670788038E+03  0.00000000000E+00 0.  1.
         15    1    5    5    0    0 -0.73329339371E+03  0.66274572090E+03  0.59154171209E+02  0.99017850185E+03  0.17770000000E+01 0. -1.
        -15    1    5    5    0    0 -0.27681444737E+03  0.29714634784E+03  0.70447999969E+02  0.41217504623E+03  0.17770000000E+01 0.  1.
          4    1    6    6  503    0 -0.17448348182E+03 -0.17601359180E+02 -0.33943474414E+02  0.17862377425E+03  0.00000000000E+00 0. -1.
         -4    1    6    6    0  503 -0.82506469513E+02 -0.29272591407E+02  0.44176185160E+02  0.98059866686E+02  0.00000000000E+00 0.  1.
<mgrwt>
<rscale>  0 0.16096063E+04</rscale>
<asrwt>0</asrwt>
<pdfrwt beam="1">  1        2 0.21873950E+00 0.16096063E+04</pdfrwt>
<pdfrwt beam="2">  1       -2 0.30192178E+00 0.16096063E+04</pdfrwt>
<totfact> 0.40509886E-01</totfact>
</mgrwt>
</event>
<event>
12    1  0.9321077E-008  0.4239003E+03  0.7818608E-02  0.1035804E+00
          1   -1    0    0  501    0  0.00000000000E+00  0.00000000000E+00  0.82685335536E+03  0.82685335536E+03  0.00000000000E+00 0. -1.
         -1   -1    0    0    0  501 -0.00000000000E+00 -0.00000000000E+00 -0.76582167596E+03  0.76582167596E+03  0.00000000000E+00 0.  1.
         23    2    1    2    0    0  0.78821916781E+02  0.22215810049E+03 -0.61059345010E+03  0.66182820199E+03  0.98107550556E+02 0.  0.
    5000000    2    1    2    0    0 -0.78821916781E+02 -0.22215810049E+03  0.67162512950E+03  0.93084682933E+03  0.59985697372E+03 0.  0.
         23    2    4    4    0    0  0.23383235122E+03 -0.10044588876E+03  0.42586683929E+03  0.50446235433E+03  0.91393419254E+02 0.  0.
         23    2    4    4    0    0 -0.31265426800E+03 -0.12171221173E+03  0.24575829021E+03  0.42638447500E+03  0.94021431243E+02 0.  0.
          4    1    3    3  502    0  0.36310951070E+02  0.18387359446E+03 -0.37295907413E+03  0.41740442605E+03  0.00000000000E+00 0. -1.
         -4    1    3    3    0  502  0.42510965712E+02  0.38284506031E+02 -0.23763437597E+03  0.24442377595E+03  0.00000000000E+00 0.  1.
         15    1    5    5    0    0  0.82421509329E+02 -0.56654089685E+02  0.24449765960E+03  0.26416898825E+03  0.17770000000E+01 0. -1.
        -15    1    5    5    0    0  0.15141084189E+03 -0.43791799078E+02  0.18136917969E+03  0.24029336607E+03  0.17770000000E+01 0.  1.
          1    1    6    6  503    0 -0.10477544567E+03 -0.30732739816E+00  0.10071475127E+03  0.14533220424E+03  0.00000000000E+00 0. -1.
         -1    1    6    6    0  503 -0.20787882233E+03 -0.12140488433E+03  0.14504353894E+03  0.28105227076E+03  0.00000000000E+00 0.  1.
<mgrwt>
<rscale>  0 0.42390034E+03</rscale>
<asrwt>0</asrwt>
<pdfrwt beam="1">  1        1 0.12720821E+00 0.42390034E+03</pdfrwt>
<pdfrwt beam="2">  1       -1 0.11781872E+00 0.42390034E+03</pdfrwt>
<totfact> 0.14747150E+01</totfact>
</mgrwt>
</event>
<event>
12    1  0.9321077E-008  0.8262038E+03  0.7818608E-02  0.9522844E-01
          2   -1    0    0  501    0  0.00000000000E+00  0.00000000000E+00  0.11638133651E+04  0.11638133651E+04  0.00000000000E+00 0. -1.
         -2   -1    0    0    0  501 -0.00000000000E+00 -0.00000000000E+00 -0.87580915604E+03  0.87580915604E+03  0.00000000000E+00 0.  1.
         23    2    1    2    0    0  0.31519378063E+03 -0.75023591917E+03 -0.29741480667E+03  0.87123559370E+03  0.91623352593E+02 0.  0.
    5000000    2    1    2    0    0 -0.31519378063E+03  0.75023591917E+03  0.58541901575E+03  0.11683869275E+04  0.60017625287E+03 0.  0.
         23    2    4    4    0    0 -0.13217364752E+03  0.20989746036E+03 -0.90879809128E+02  0.27891888621E+03  0.89497421256E+02 0.  0.
         23    2    4    4    0    0 -0.18302013311E+03  0.54033845881E+03  0.67629882488E+03  0.88946804126E+03  0.91166203692E+02 0.  0.
          3    1    3    3  502    0  0.90821482458E+02 -0.32659895724E+03 -0.13853748197E+03  0.36620766576E+03  0.00000000000E+00 0. -1.
         -3    1    3    3    0  502  0.22437229817E+03 -0.42363696193E+03 -0.15887732470E+03  0.50502792794E+03  0.00000000000E+00 0.  1.
         15    1    5    5    0    0 -0.34048422180E+02  0.11459339875E+03 -0.99490159444E+01  0.11997117461E+03  0.17770000000E+01 0.  1.
        -15    1    5    5    0    0 -0.98125225342E+02  0.95304061610E+02 -0.80930793183E+02  0.15894771160E+03  0.17770000000E+01 0. -1.
          1    1    6    6  503    0 -0.18353322025E+03  0.43249792572E+03  0.55502957406E+03  0.72718410789E+03  0.00000000000E+00 0. -1.
         -1    1    6    6    0  503  0.51308713827E+00  0.10784053309E+03  0.12126925082E+03  0.16228393337E+03  0.00000000000E+00 0.  1.
<mgrwt>
<rscale>  0 0.82620379E+03</rscale>
<asrwt>0</asrwt>
<pdfrwt beam="1">  1        2 0.17904821E+00 0.82620379E+03</pdfrwt>
<pdfrwt beam="2">  1       -2 0.13473987E+00 0.82620379E+03</pdfrwt>
<totfact> 0.79766753E+00</totfact>
</mgrwt>
</event>
<event>
12    1  0.9321077E-008  0.8500157E+03  0.7818608E-02  0.9490316E-01
         -2   -1    0    0    0  501 -0.00000000000E+00  0.00000000000E+00  0.70045241151E+03  0.70045241151E+03  0.00000000000E+00 0.  1.
          2   -1    0    0  501    0  0.00000000000E+00 -0.00000000000E+00 -0.16642324321E+04  0.16642324321E+04  0.00000000000E+00 0. -1.
         23    2    1    2    0    0 -0.71079659424E+03  0.34197920071E+03  0.21702767289E+03  0.82309517506E+03  0.90570880031E+02 0.  0.
    5000000    2    1    2    0    0  0.71079659424E+03 -0.34197920071E+03 -0.11808076935E+04  0.15415896685E+04  0.60000860417E+03 0.  0.
         23    2    4    4    0    0  0.12948090422E+03  0.10315912605E+03 -0.61592022732E+02  0.20116257879E+03  0.96258485316E+02 0.  0.
         23    2    4    4    0    0  0.58131569002E+03 -0.44513832676E+03 -0.11192156707E+04  0.13404270898E+04  0.89582386112E+02 0.  0.
          2    1    3    3  502    0 -0.17046367776E+03  0.11154726526E+03  0.25846096002E+02  0.20535013635E+03  0.00000000000E+00 0. -1.
         -2    1    3    3    0  502 -0.54033291649E+03  0.23043193545E+03  0.19118157688E+03  0.61774503871E+03  0.00000000000E+00 0.  1.
         15    1    5    5    0    0  0.60421167901E+02  0.85211466262E+02 -0.74909771792E+02  0.12855482547E+03  0.17770000000E+01 0. -1.
        -15    1    5    5    0    0  0.69059736322E+02  0.17947659784E+02  0.13317749060E+02  0.72607753316E+02  0.17770000000E+01 0.  1.
          1    1    6    6  503    0  0.38078331490E+03 -0.26989309093E+03 -0.78251160335E+03  0.91113260441E+03  0.00000000000E+00 0. -1.
         -1    1    6    6    0  503  0.20053237512E+03 -0.17524523582E+03 -0.33670406740E+03  0.42929448535E+03  0.00000000000E+00 0.  1.
<mgrwt>
<rscale>  0 0.85001569E+03</rscale>
<asrwt>0</asrwt>
<pdfrwt beam="1">  1        2 0.25603576E+00 0.85001569E+03</pdfrwt>
<pdfrwt beam="2">  1       -2 0.10776191E+00 0.85001569E+03</pdfrwt>
<totfact> 0.71895852E+00</totfact>
</mgrwt>
</event>
<event>
12    1  0.9321077E-008  0.9379137E+03  0.7818608E-02  0.9379390E-01
          2   -1    0    0  501    0  0.00000000000E+00  0.00000000000E+00  0.12178790798E+04  0.12178790798E+04  0.00000000000E+00 0. -1.
         -2   -1    0    0    0  501 -0.00000000000E+00 -0.00000000000E+00 -0.75044300316E+03  0.75044300316E+03  0.00000000000E+00 0.  1.
         23    2    1    2    0    0  0.75317535107E+03  0.38360481265E+03  0.52317935183E+02  0.85178539091E+03  0.91517343068E+02 0.  0.
    5000000    2    1    2    0    0 -0.75317535107E+03 -0.38360481265E+03  0.41511814147E+03  0.11165366921E+04  0.59992112114E+03 0.  0.
         23    2    4    4    0    0 -0.90148780329E+02 -0.34202405010E+03  0.16308370600E+03  0.39992238522E+03  0.90743405274E+02 0.  0.
         23    2    4    4    0    0 -0.66302657074E+03 -0.41580762552E+02  0.25203443547E+03  0.71661430683E+03  0.93174646621E+02 0.  0.
          1    1    3    3  502    0  0.55521972069E+03  0.27307871302E+03 -0.15903037484E+01  0.61874344506E+03  0.00000000000E+00 0. -1.
         -1    1    3    3    0  502  0.19795563038E+03  0.11052609963E+03  0.53908238931E+02  0.23304194585E+03  0.00000000000E+00 0.  1.
         15    1    5    5    0    0  0.55534295816E+01 -0.10309523285E+03  0.75954399603E+02  0.12818617774E+03  0.17770000000E+01 0. -1.
        -15    1    5    5    0    0 -0.95702209911E+02 -0.23892881725E+03  0.87129306392E+02  0.27173620748E+03  0.17770000000E+01 0.  1.
          1    1    6    6  503    0 -0.33692742644E+03  0.21338094119E+02  0.14769901682E+03  0.36849749595E+03  0.00000000000E+00 0. -1.
         -1    1    6    6    0  503 -0.32609914429E+03 -0.62918856670E+02  0.10433541865E+03  0.34811681088E+03  0.00000000000E+00 0.  1.
<mgrwt>
<rscale>  0 0.93791370E+03</rscale>
<asrwt>0</asrwt>
<pdfrwt beam="1">  1        2 0.18736601E+00 0.93791370E+03</pdfrwt>
<pdfrwt beam="2">  1       -2 0.11545277E+00 0.93791370E+03</pdfrwt>
<totfact> 0.10781814E+01</totfact>
</mgrwt>
</event>
<event>
12    1  0.9321077E-008  0.5454024E+03  0.7818608E-02  0.1002564E+00
         -2   -1    0    0    0  501 -0.00000000000E+00  0.00000000000E+00  0.32698541313E+03  0.32698541313E+03  0.00000000000E+00 0.  1.
          2   -1    0    0  501    0  0.00000000000E+00 -0.00000000000E+00 -0.13054376790E+04  0.13054376790E+04  0.00000000000E+00 0. -1.
         23    2    1    2    0    0 -0.24188900875E+03  0.33547285596E+03 -0.13211819848E+02  0.42344358690E+03  0.89875410746E+02 0.  0.
    5000000    2    1    2    0    0  0.24188900875E+03 -0.33547285596E+03 -0.96524044601E+03  0.12089795052E+04  0.59907428238E+03 0.  0.
         23    2    4    4    0    0 -0.15897509021E+03 -0.16094378771E+03 -0.53697488195E+03  0.58993094734E+03  0.92198246584E+02 0.  0.
         23    2    4    4    0    0  0.40086409896E+03 -0.17452906825E+03 -0.42826556406E+03  0.61904855789E+03  0.93044624597E+02 0.  0.
          4    1    3    3  502    0 -0.21465962863E+03  0.28443431729E+03  0.19699445372E+02  0.35688892552E+03  0.00000000000E+00 0. -1.
         -4    1    3    3    0  502 -0.27229380126E+02  0.51038538675E+02 -0.32911265220E+02  0.66554661373E+02  0.00000000000E+00 0.  1.
         15    1    5    5    0    0 -0.11062595391E+03 -0.69768405525E+02 -0.21344479360E+03  0.25033491513E+03  0.17770000000E+01 0.  1.
        -15    1    5    5    0    0 -0.48349136303E+02 -0.91175382189E+02 -0.32353008835E+03  0.33959603222E+03  0.17770000000E+01 0. -1.
          1    1    6    6  503    0  0.14376166257E+03 -0.99262283906E+02 -0.12752742922E+03  0.21629531163E+03  0.00000000000E+00 0. -1.
         -1    1    6    6    0  503  0.25710243639E+03 -0.75266784340E+02 -0.30073813483E+03  0.40275324625E+03  0.00000000000E+00 0.  1.
<mgrwt>
<rscale>  0 0.54540236E+03</rscale>
<asrwt>0</asrwt>
<pdfrwt beam="1">  1        2 0.20083656E+00 0.54540236E+03</pdfrwt>
<pdfrwt beam="2">  1       -2 0.50305449E-01 0.54540236E+03</pdfrwt>
<totfact> 0.63869542E+01</totfact>
</mgrwt>
</event>
<event>
12    1  0.9321077E-008  0.5811422E+03  0.7818608E-02  0.9945321E-01
          1   -1    0    0  501    0  0.00000000000E+00  0.00000000000E+00  0.71636529892E+03  0.71636529892E+03  0.00000000000E+00 0. -1.
         -1   -1    0    0    0  501 -0.00000000000E+00 -0.00000000000E+00 -0.60217057725E+03  0.60217057725E+03  0.00000000000E+00 0.  1.
         23    2    1    2    0    0 -0.28019157538E+03  0.38598793884E+03  0.23948522096E+03  0.54166039298E+03  0.92459734011E+02 0.  0.
    5000000    2    1    2    0    0  0.28019157538E+03 -0.38598793884E+03 -0.12529049930E+03  0.77687548319E+03  0.60028643107E+03 0.  0.
         23    2    4    4    0    0  0.15734219540E+03 -0.49462566840E+03  0.38872117309E+02  0.52794791378E+03  0.88356323313E+02 0.  0.
         23    2    4    4    0    0  0.12284937998E+03  0.10863772956E+03 -0.16416261661E+03  0.24892756942E+03  0.90119052802E+02 0.  0.
          3    1    3    3  502    0 -0.17202241844E+03  0.20665739465E+03  0.18130964857E+03  0.32430260541E+03  0.00000000000E+00 0. -1.
         -3    1    3    3    0  502 -0.10816915694E+03  0.17933054419E+03  0.58175572391E+02  0.21735778756E+03  0.00000000000E+00 0.  1.
         15    1    5    5    0    0  0.77044543850E+02 -0.28119177727E+03 -0.20559432824E+02  0.29228500706E+03  0.17770000000E+01 0.  1.
        -15    1    5    5    0    0  0.80297651551E+02 -0.21343389112E+03  0.59431550133E+02  0.23566290672E+03  0.17770000000E+01 0. -1.
          2    1    6    6  503    0  0.86662051830E+02  0.69750570326E+02 -0.16102451085E+03  0.19571496208E+03  0.00000000000E+00 0. -1.
         -2    1    6    6    0  503  0.36187328153E+02  0.38887159231E+02 -0.31381057629E+01  0.53212607338E+02  0.00000000000E+00 0.  1.
<mgrwt>
<rscale>  0 0.58114220E+03</rscale>
<asrwt>0</asrwt>
<pdfrwt beam="1">  1        1 0.11021005E+00 0.58114220E+03</pdfrwt>
<pdfrwt beam="2">  1       -1 0.92641628E-01 0.58114220E+03</pdfrwt>
<totfact> 0.31138821E+01</totfact>
</mgrwt>
</event>
<event>
12    1  0.9321077E-008  0.4578214E+03  0.7818608E-02  0.1025415E+00
         -2   -1    0    0    0  501 -0.00000000000E+00  0.00000000000E+00  0.14116215457E+03  0.14116215457E+03  0.00000000000E+00 0.  1.
          2   -1    0    0  501    0  0.00000000000E+00 -0.00000000000E+00 -0.16294701542E+04  0.16294701542E+04  0.00000000000E+00 0. -1.
         23    2    1    2    0    0  0.25338107721E+03  0.11847248430E+03 -0.52194307210E+03  0.59925553949E+03  0.91896307114E+02 0.  0.
    5000000    2    1    2    0    0 -0.25338107721E+03 -0.11847248430E+03 -0.96636492748E+03  0.11713767692E+04  0.60002055185E+03 0.  0.
         23    2    4    4    0    0 -0.42809995118E+03 -0.95739712261E+02 -0.76557194645E+03  0.88738884875E+03  0.94461118951E+02 0.  0.
         23    2    4    4    0    0  0.17471887397E+03 -0.22732772043E+02 -0.20079298103E+03  0.28398792050E+03  0.96373512478E+02 0.  0.
          2    1    3    3  502    0  0.84173343311E+02  0.48109863252E+02 -0.27609669551E+03  0.29262449648E+03  0.00000000000E+00 0.  1.
         -2    1    3    3    0  502  0.16920773390E+03  0.70362621052E+02 -0.24584637659E+03  0.30663104301E+03  0.00000000000E+00 0. -1.
         15    1    5    5    0    0 -0.35551982726E+03 -0.41177561884E+02 -0.60821494477E+03  0.70570426947E+03  0.17770000000E+01 0.  1.
        -15    1    5    5    0    0 -0.72580123921E+02 -0.54562150377E+02 -0.15735700168E+03  0.18168457928E+03  0.17770000000E+01 0. -1.
          3    1    6    6  503    0  0.67504706600E+02  0.21339748118E+02 -0.13037180087E+03  0.14835456422E+03  0.00000000000E+00 0. -1.
         -3    1    6    6    0  503  0.10721416737E+03 -0.44072520161E+02 -0.70421180166E+02  0.13563335628E+03  0.00000000000E+00 0.  1.
<mgrwt>
<rscale>  0 0.45782142E+03</rscale>
<asrwt>0</asrwt>
<pdfrwt beam="1">  1        2 0.25068771E+00 0.45782142E+03</pdfrwt>
<pdfrwt beam="2">  1       -2 0.21717255E-01 0.45782142E+03</pdfrwt>
<totfact> 0.20734123E+02</totfact>
</mgrwt>
</event>
<event>
12    1  0.9321077E-008  0.4876795E+03  0.7818608E-02  0.1017046E+00
          1   -1    0    0  501    0  0.00000000000E+00  0.00000000000E+00  0.16867151121E+04  0.16867151121E+04  0.00000000000E+00 0. -1.
         -1   -1    0    0    0  501 -0.00000000000E+00 -0.00000000000E+00 -0.53743442197E+03  0.53743442197E+03  0.00000000000E+00 0.  1.
         23    2    1    2    0    0  0.36916386763E+03 -0.17311699039E+03 -0.35867185342E+03  0.55078663193E+03  0.92026963194E+02 0.  0.
    5000000    2    1    2    0    0 -0.36916386763E+03  0.17311699039E+03  0.15079525436E+04  0.16733629022E+04  0.59997589547E+03 0.  0.
         23    2    4    4    0    0  0.38164823953E+01  0.15562404705E+03  0.85755212359E+02  0.20016269686E+03  0.92074639338E+02 0.  0.
         23    2    4    4    0    0 -0.37298035003E+03  0.17492943332E+02  0.14221973312E+04  0.14732002053E+04  0.90847407303E+02 0.  0.
          4    1    3    3  502    0  0.18220295591E+03 -0.13242488414E+03 -0.17126659591E+03  0.28296026922E+03  0.00000000000E+00 0. -1.
         -4    1    3    3    0  502  0.18696091172E+03 -0.40692106249E+02 -0.18740525751E+03  0.26782636271E+03  0.00000000000E+00 0.  1.
         15    1    5    5    0    0  0.34380587802E+02  0.13454385108E+03  0.47384150543E+02  0.14673952478E+03  0.17770000000E+01 0.  1.
        -15    1    5    5    0    0 -0.30564105407E+02  0.21080195978E+02  0.38371061817E+02  0.53423172086E+02  0.17770000000E+01 0. -1.
          2    1    6    6  503    0 -0.22193436146E+03 -0.31000878655E+02  0.76649964018E+03  0.79858475673E+03  0.00000000000E+00 0. -1.
         -2    1    6    6    0  503 -0.15104598857E+03  0.48493821987E+02  0.65569769102E+03  0.67461544856E+03  0.00000000000E+00 0.  1.
<mgrwt>
<rscale>  0 0.48767954E+03</rscale>
<asrwt>0</asrwt>
<pdfrwt beam="1">  1        1 0.25949463E+00 0.48767954E+03</pdfrwt>
<pdfrwt beam="2">  1       -1 0.82682220E-01 0.48767954E+03</pdfrwt>
<totfact> 0.77722956E+00</totfact>
</mgrwt>
</event>
<event>
12    1  0.9321077E-008  0.7940819E+03  0.7818608E-02  0.9568623E-01
          2   -1    0    0  501    0  0.00000000000E+00  0.00000000000E+00  0.83377173682E+03  0.83377173682E+03  0.00000000000E+00 0. -1.
         -2   -1    0    0    0  501 -0.00000000000E+00 -0.00000000000E+00 -0.13205581784E+04  0.13205581784E+04  0.00000000000E+00 0.  1.
         23    2    1    2    0    0  0.44749043342E+03  0.63761954414E+03 -0.80102305697E+03  0.11219156713E+04  0.10124457834E+03 0.  0.
    5000000    2    1    2    0    0 -0.44749043342E+03 -0.63761954414E+03  0.31423661539E+03  0.10324142439E+04  0.60027339565E+03 0.  0.
         23    2    4    4    0    0 -0.34573564981E+03 -0.56461607255E+03 -0.15996743198E+02  0.66852449471E+03  0.91349084823E+02 0.  0.
         23    2    4    4    0    0 -0.10175478361E+03 -0.73003471589E+02  0.33023335859E+03  0.36388974921E+03  0.87624971376E+02 0.  0.
          4    1    3    3  502    0  0.12629651685E+03  0.22918984380E+03 -0.21468836182E+03  0.33848173861E+03  0.00000000000E+00 0. -1.
         -4    1    3    3    0  502  0.32119391657E+03  0.40842970034E+03 -0.58633469515E+03  0.78343393269E+03  0.00000000000E+00 0.  1.
         15    1    5    5    0    0 -0.14011749162E+03 -0.30438033097E+03 -0.30983535542E+02  0.33651661852E+03  0.17770000000E+01 0. -1.
        -15    1    5    5    0    0 -0.20561815819E+03 -0.26023574158E+03  0.14986792344E+02  0.33200787619E+03  0.17770000000E+01 0.  1.
          2    1    6    6  503    0 -0.18042508734E+02 -0.50229157755E+02  0.20296484909E+03  0.20986479070E+03  0.00000000000E+00 0. -1.
         -2    1    6    6    0  503 -0.83712274873E+02 -0.22774313834E+02  0.12726850949E+03  0.15402495851E+03  0.00000000000E+00 0.  1.
<mgrwt>
<rscale>  0 0.79408191E+03</rscale>
<asrwt>0</asrwt>
<pdfrwt beam="1">  1        2 0.12827258E+00 0.79408191E+03</pdfrwt>
<pdfrwt beam="2">  1       -2 0.20316279E+00 0.79408191E+03</pdfrwt>
<totfact> 0.42009202E+00</totfact>
</mgrwt>
</event>
<event>
12    1  0.9321077E-008  0.1513672E+04  0.7818608E-02  0.8875412E-01
         -1   -1    0    0    0  501 -0.00000000000E+00  0.00000000000E+00  0.11322083232E+04  0.11322083232E+04  0.00000000000E+00 0.  1.
          1   -1    0    0  501    0  0.00000000000E+00 -0.00000000000E+00 -0.22171090022E+04  0.22171090022E+04  0.00000000000E+00 0. -1.
         23    2    1    2    0    0 -0.43917585948E+03 -0.14174114520E+04 -0.89977649130E+03  0.17378823107E+04  0.93308797619E+02 0.  0.
    5000000    2    1    2    0    0  0.43917585948E+03  0.14174114520E+04 -0.18512418774E+03  0.16114350147E+04  0.60043416131E+03 0.  0.
         23    2    4    4    0    0  0.17866273254E+03  0.11494208377E+04 -0.30856837923E+03  0.12073820573E+04  0.97305464235E+02 0.  0.
         23    2    4    4    0    0  0.26051312693E+03  0.26799061424E+03  0.12344419149E+03  0.40405295745E+03  0.91292197818E+02 0.  0.
          2    1    3    3  502    0 -0.24949415710E+03 -0.73186062282E+03 -0.42037972101E+03  0.88010591153E+03  0.00000000000E+00 0. -1.
         -2    1    3    3    0  502 -0.18968170238E+03 -0.68555082915E+03 -0.47939677029E+03  0.85777639915E+03  0.00000000000E+00 0.  1.
         15    1    5    5    0    0  0.82561125428E+02  0.69734393081E+03 -0.14440198420E+03  0.71691002785E+03  0.17770000000E+01 0. -1.
        -15    1    5    5    0    0  0.96101607115E+02  0.45207690693E+03 -0.16416639503E+03  0.49047202943E+03  0.17770000000E+01 0.  1.
          4    1    6    6  503    0  0.15590896060E+03  0.20028950296E+03  0.11644789392E+03  0.27925544039E+03  0.00000000000E+00 0. -1.
         -4    1    6    6    0  503  0.10460416633E+03  0.67701111284E+02  0.69962975688E+01  0.12479751705E+03  0.00000000000E+00 0.  1.
<mgrwt>
<rscale>  0 0.15136722E+04</rscale>
<asrwt>0</asrwt>
<pdfrwt beam="1">  1        1 0.34109369E+00 0.15136722E+04</pdfrwt>
<pdfrwt beam="2">  1       -1 0.17418590E+00 0.15136722E+04</pdfrwt>
<totfact> 0.45989468E-01</totfact>
</mgrwt>
</event>
<event>
12    1  0.9321077E-008  0.4218958E+03  0.7818608E-02  0.1036451E+00
          1   -1    0    0  501    0  0.00000000000E+00  0.00000000000E+00  0.65873433641E+03  0.65873433641E+03  0.00000000000E+00 0. -1.
         -1   -1    0    0    0  501 -0.00000000000E+00 -0.00000000000E+00 -0.41844114256E+03  0.41844114256E+03  0.00000000000E+00 0.  1.
         23    2    1    2    0    0  0.22185259160E+03 -0.78735175538E+02 -0.17895027145E+03  0.30897448380E+03  0.89578076092E+02 0.  0.
    5000000    2    1    2    0    0 -0.22185259160E+03  0.78735175538E+02  0.41924346530E+03  0.76820099517E+03  0.59912426550E+03 0.  0.
         23    2    4    4    0    0 -0.23325201866E+03  0.28295562122E+03  0.38238458304E+03  0.53923451140E+03  0.10042659586E+03 0.  0.
         23    2    4    4    0    0  0.11399427055E+02 -0.20422044568E+03  0.36858882267E+02  0.22896648376E+03  0.96078801578E+02 0.  0.
          2    1    3    3  502    0  0.10976123139E+03 -0.85309616150E+02 -0.10934736927E+03  0.17686748059E+03  0.00000000000E+00 0. -1.
         -2    1    3    3    0  502  0.11209136022E+03  0.65744406122E+01 -0.69602902180E+02  0.13210700321E+03  0.00000000000E+00 0.  1.
         15    1    5    5    0    0 -0.88242970368E+02  0.68297550508E+02  0.17425915389E+03  0.20693184305E+03  0.17770000000E+01 0. -1.
        -15    1    5    5    0    0 -0.14500904829E+03  0.21465807071E+03  0.20812542915E+03  0.33230266836E+03  0.17770000000E+01 0.  1.
          4    1    6    6  503    0 -0.37534031588E+02 -0.81783079698E+02 -0.63626492298E+01  0.90209528085E+02  0.00000000000E+00 0. -1.
         -4    1    6    6    0  503  0.48933458643E+02 -0.12243736599E+03  0.43221531497E+02  0.13875695568E+03  0.00000000000E+00 0.  1.
<mgrwt>
<rscale>  0 0.42189577E+03</rscale>
<asrwt>0</asrwt>
<pdfrwt beam="1">  1        1 0.10134374E+00 0.42189577E+03</pdfrwt>
<pdfrwt beam="2">  1       -1 0.64375560E-01 0.42189577E+03</pdfrwt>
<totfact> 0.77085063E+01</totfact>
</mgrwt>
</event>
<event>
12    1  0.9321077E-008  0.4812939E+03  0.7818608E-02  0.1018780E+00
          2   -1    0    0  501    0  0.00000000000E+00  0.00000000000E+00  0.76362763817E+03  0.76362763817E+03  0.00000000000E+00 0. -1.
         -2   -1    0    0    0  501 -0.00000000000E+00 -0.00000000000E+00 -0.58363668490E+03  0.58363668490E+03  0.00000000000E+00 0.  1.
         23    2    1    2    0    0 -0.12636149226E+03  0.34954259934E+03 -0.30711953901E+03  0.48967600428E+03  0.85515626906E+02 0.  0.
    5000000    2    1    2    0    0  0.12636149226E+03 -0.34954259934E+03  0.48711049228E+03  0.85758831879E+03  0.60002819714E+03 0.  0.
         23    2    4    4    0    0  0.24550188412E+03 -0.36181549848E+03  0.53723740478E+03  0.69839784396E+03  0.89184579956E+02 0.  0.
         23    2    4    4    0    0 -0.11914039186E+03  0.12272899143E+02 -0.50126912498E+02  0.15919047483E+03  0.92107778689E+02 0.  0.
          3    1    3    3  502    0 -0.94651964855E+02  0.30179116498E+03 -0.29183076916E+03  0.43035113516E+03  0.00000000000E+00 0. -1.
         -3    1    3    3    0  502 -0.31709527407E+02  0.47751434361E+02 -0.15288769853E+02  0.59324869115E+02  0.00000000000E+00 0.  1.
         15    1    5    5    0    0  0.57213080163E+02 -0.12341904951E+03  0.11445175657E+03  0.17778627797E+03  0.17770000000E+01 0. -1.
        -15    1    5    5    0    0  0.18828880396E+03 -0.23839644897E+03  0.42278564821E+03  0.52061156599E+03  0.17770000000E+01 0.  1.
          1    1    6    6  503    0 -0.12027983234E+03 -0.15564356918E+02 -0.30344889798E+02  0.12502119665E+03  0.00000000000E+00 0. -1.
         -1    1    6    6    0  503  0.11394404809E+01  0.27837256061E+02 -0.19782022701E+02  0.34169278186E+02  0.00000000000E+00 0.  1.
<mgrwt>
<rscale>  0 0.48129388E+03</rscale>
<asrwt>0</asrwt>
<pdfrwt beam="1">  1        2 0.11748118E+00 0.48129388E+03</pdfrwt>
<pdfrwt beam="2">  1       -2 0.89790259E-01 0.48129388E+03</pdfrwt>
<totfact> 0.40541109E+01</totfact>
</mgrwt>
</event>
<event>
12    1  0.9321077E-008  0.7851494E+03  0.7818608E-02  0.9581765E-01
         -1   -1    0    0    0  501 -0.00000000000E+00  0.00000000000E+00  0.21653450273E+04  0.21653450273E+04  0.00000000000E+00 0.  1.
          1   -1    0    0  501    0  0.00000000000E+00 -0.00000000000E+00 -0.34441894345E+03  0.34441894345E+03  0.00000000000E+00 0. -1.
         23    2    1    2    0    0  0.72525471158E+03  0.13978399229E+03  0.56785651918E+03  0.93631924881E+03  0.93267079645E+02 0.  0.
    5000000    2    1    2    0    0 -0.72525471158E+03 -0.13978399229E+03  0.12530695647E+04  0.15734447220E+04  0.60000916488E+03 0.  0.
         23    2    4    4    0    0 -0.44496485676E+03  0.97120072663E+02  0.10362685969E+04  0.11356097929E+04  0.91274117558E+02 0.  0.
         23    2    4    4    0    0 -0.28028985482E+03 -0.23690406495E+03  0.21680096781E+03  0.43783492908E+03  0.10005411922E+03 0.  0.
          1    1    3    3  502    0  0.61059223734E+03  0.14618393490E+03  0.50255652996E+03  0.80421122159E+03  0.00000000000E+00 0. -1.
         -1    1    3    3    0  502  0.11466247424E+03 -0.63999426079E+01  0.65299989217E+02  0.13210802722E+03  0.00000000000E+00 0.  1.
         15    1    5    5    0    0 -0.36004404983E+03  0.63289556350E+02  0.90102610822E+03  0.97236232506E+03  0.17770000000E+01 0.  1.
        -15    1    5    5    0    0 -0.84920806928E+02  0.33830516314E+02  0.13524248867E+03  0.16324746784E+03  0.17770000000E+01 0. -1.
          3    1    6    6  503    0 -0.98728518286E+02 -0.52462174321E+02  0.22100129311E+02  0.11396497608E+03  0.00000000000E+00 0. -1.
         -3    1    6    6    0  503 -0.18156133654E+03 -0.18444189063E+03  0.19470083850E+03  0.32386995300E+03  0.00000000000E+00 0.  1.
<mgrwt>
<rscale>  0 0.78514944E+03</rscale>
<asrwt>0</asrwt>
<pdfrwt beam="1">  1        1 0.52987531E-01 0.78514944E+03</pdfrwt>
<pdfrwt beam="2">  1       -1 0.33313000E+00 0.78514944E+03</pdfrwt>
<totfact> 0.15437852E+00</totfact>
</mgrwt>
</event>
<event>
12    1  0.9321077E-008  0.8003815E+03  0.7818608E-02  0.9559465E-01
         -3   -1    0    0    0  501 -0.00000000000E+00  0.00000000000E+00  0.93035891506E+03  0.93035891506E+03  0.00000000000E+00 0.  1.
          3   -1    0    0  501    0  0.00000000000E+00 -0.00000000000E+00 -0.80774478103E+03  0.80774478103E+03  0.00000000000E+00 0. -1.
         23    2    1    2    0    0 -0.65609480439E+03 -0.21161778728E+03 -0.26665814186E+03  0.74472374249E+03  0.90908788160E+02 0.  0.
    5000000    2    1    2    0    0  0.65609480439E+03  0.21161778728E+03  0.38927227589E+03  0.99337995360E+03  0.60002362220E+03 0.  0.
         23    2    4    4    0    0  0.56942316510E+03  0.38830470150E+03  0.31876842186E+03  0.76495034495E+03  0.92262892363E+02 0.  0.
         23    2    4    4    0    0  0.86671639288E+02 -0.17668691422E+03  0.70503854027E+02  0.22842960865E+03  0.92081778664E+02 0.  0.
          4    1    3    3  502    0 -0.51962581528E+03 -0.14633629965E+03 -0.24138557278E+03  0.59134786314E+03  0.00000000000E+00 0. -1.
         -4    1    3    3    0  502 -0.13646898911E+03 -0.65281487634E+02 -0.25272569077E+02  0.15337587934E+03  0.00000000000E+00 0.  1.
         15    1    5    5    0    0  0.16826173265E+03  0.77112788047E+02  0.11472232415E+03  0.21776767929E+03  0.17770000000E+01 0.  1.
        -15    1    5    5    0    0  0.40116143245E+03  0.31119191345E+03  0.20404609771E+03  0.54718266566E+03  0.17770000000E+01 0. -1.
          2    1    6    6  503    0  0.75579804015E+02 -0.52204351877E+02  0.22670096819E+02  0.94612548954E+02  0.00000000000E+00 0.  1.
         -2    1    6    6    0  503  0.11091835273E+02 -0.12448256234E+03  0.47833757208E+02  0.13381705969E+03  0.00000000000E+00 0. -1.
<mgrwt>
<rscale>  0 0.80038154E+03</rscale>
<asrwt>0</asrwt>
<pdfrwt beam="1">  1        3 0.12426843E+00 0.80038154E+03</pdfrwt>
<pdfrwt beam="2">  1       -3 0.14313214E+00 0.80038154E+03</pdfrwt>
<totfact> 0.48834740E-01</totfact>
</mgrwt>
</event>
<event>
12    1  0.9321077E-008  0.2386827E+04  0.7818608E-02  0.8444452E-01
          2   -1    0    0  501    0  0.00000000000E+00  0.00000000000E+00  0.30605966575E+04  0.30605966575E+04  0.00000000000E+00 0.  1.
         -2   -1    0    0    0  501 -0.00000000000E+00 -0.00000000000E+00 -0.19147632506E+04  0.19147632506E+04  0.00000000000E+00 0. -1.
         23    2    1    2    0    0  0.21663149433E+04  0.99193863872E+03  0.53983676841E+03  0.24447436795E+04  0.92115284075E+02 0.  0.
    5000000    2    1    2    0    0 -0.21663149433E+04 -0.99193863872E+03  0.60599663857E+03  0.25306162286E+04  0.59993655821E+03 0.  0.
         23    2    4    4    0    0 -0.15521504626E+04 -0.65772732132E+03  0.68364270362E+03  0.18213932685E+04  0.91267762896E+02 0.  0.
         23    2    4    4    0    0 -0.61416448071E+03 -0.33421131740E+03 -0.77646065049E+02  0.70922296010E+03  0.89850329283E+02 0.  0.
          3    1    3    3  502    0  0.14536586501E+04  0.62043282504E+03  0.37263717748E+03  0.16238592388E+04  0.00000000000E+00 0.  1.
         -3    1    3    3    0  502  0.71265629319E+03  0.37150581368E+03  0.16719959092E+03  0.82088444072E+03  0.00000000000E+00 0. -1.
         15    1    5    5    0    0 -0.44712626036E+03 -0.22901441604E+03  0.18169614750E+03  0.53421544643E+03  0.17770000000E+01 0.  1.
        -15    1    5    5    0    0 -0.11050242022E+04 -0.42871290528E+03  0.50194655612E+03  0.12871778220E+04  0.17770000000E+01 0. -1.
          2    1    6    6  503    0 -0.11886089213E+03 -0.92854614331E+02 -0.44450111288E+02  0.15724408884E+03  0.00000000000E+00 0. -1.
         -2    1    6    6    0  503 -0.49530358858E+03 -0.24135670307E+03 -0.33195953761E+02  0.55197887126E+03  0.00000000000E+00 0.  1.
<mgrwt>
<rscale>  0 0.23868270E+04</rscale>
<asrwt>0</asrwt>
<pdfrwt beam="1">  1        2 0.47086102E+00 0.23868270E+04</pdfrwt>
<pdfrwt beam="2">  1       -2 0.29457896E+00 0.23868270E+04</pdfrwt>
<totfact> 0.46614470E-02</totfact>
</mgrwt>
</event>
<event>
12    1  0.9321077E-008  0.1256128E+04  0.7818608E-02  0.9065098E-01
          1   -1    0    0  501    0  0.00000000000E+00  0.00000000000E+00  0.24945373086E+04  0.24945373086E+04  0.00000000000E+00 0. -1.
         -1   -1    0    0    0  501 -0.00000000000E+00 -0.00000000000E+00 -0.66428528114E+03  0.66428528114E+03  0.00000000000E+00 0.  1.
         23    2    1    2    0    0  0.11806310123E+04  0.25327670705E+03  0.10369768946E+04  0.15944570043E+04  0.94516564870E+02 0.  0.
    5000000    2    1    2    0    0 -0.11806310123E+04 -0.25327670705E+03  0.79327513288E+03  0.15643655854E+04  0.59992963827E+03 0.  0.
         23    2    4    4    0    0 -0.19191775736E+02  0.51991466916E+02  0.19012154761E+03  0.21743589181E+03  0.89781553195E+02 0.  0.
         23    2    4    4    0    0 -0.11614392366E+04 -0.30526817397E+03  0.60315358527E+03  0.13469296936E+04  0.91080150670E+02 0.  0.
          1    1    3    3  502    0  0.26548583097E+03  0.44309481870E+02  0.18344160124E+03  0.32572515669E+03  0.00000000000E+00 0. -1.
         -1    1    3    3    0  502  0.91514518135E+03  0.20896722518E+03  0.85353529334E+03  0.12687318476E+04  0.00000000000E+00 0.  1.
         15    1    5    5    0    0 -0.51532963465E+02  0.41164791573E+02  0.89606009326E+02  0.11127704626E+03  0.17770000000E+01 0. -1.
        -15    1    5    5    0    0  0.32341187729E+02  0.10826675343E+02  0.10051553828E+03  0.10615884554E+03  0.17770000000E+01 0.  1.
          2    1    6    6  503    0 -0.29704880929E+03 -0.37821235399E+02  0.14374100435E+03  0.33215947567E+03  0.00000000000E+00 0. -1.
         -2    1    6    6    0  503 -0.86439042730E+03 -0.26744693857E+03  0.45941258092E+03  0.10147702180E+04  0.00000000000E+00 0.  1.
<mgrwt>
<rscale>  0 0.12561281E+04</rscale>
<asrwt>0</asrwt>
<pdfrwt beam="1">  1        1 0.38377497E+00 0.12561281E+04</pdfrwt>
<pdfrwt beam="2">  1       -1 0.10219774E+00 0.12561281E+04</pdfrwt>
<totfact> 0.12177654E+00</totfact>
</mgrwt>
</event>
<event>
12    1  0.9321077E-008  0.3969058E+03  0.7818608E-02  0.1044856E+00
         -2   -1    0    0    0  501 -0.00000000000E+00  0.00000000000E+00  0.26421011143E+03  0.26421011143E+03  0.00000000000E+00 0. -1.
          2   -1    0    0  501    0  0.00000000000E+00 -0.00000000000E+00 -0.75879491379E+03  0.75879491379E+03  0.00000000000E+00 0.  1.
         23    2    1    2    0    0 -0.54842096972E+02 -0.17303180491E+03 -0.30820772021E+03  0.36903650193E+03  0.90820040988E+02 0.  0.
    5000000    2    1    2    0    0  0.54842096972E+02  0.17303180491E+03 -0.18637708215E+03  0.65396852329E+03  0.59999229295E+03 0.  0.
         23    2    4    4    0    0  0.19500165284E+03  0.33064358057E+03 -0.80098702106E+02  0.40256555069E+03  0.91062607807E+02 0.  0.
         23    2    4    4    0    0 -0.14015955586E+03 -0.15761177566E+03 -0.10627838004E+03  0.25140297260E+03  0.86152119192E+02 0.  0.
          1    1    3    3  502    0 -0.19374378212E+02 -0.10737354460E+03 -0.10053805472E+03  0.14836557909E+03  0.00000000000E+00 0. -1.
         -1    1    3    3    0  502 -0.35467718760E+02 -0.65658260308E+02 -0.20766966549E+03  0.22067092284E+03  0.00000000000E+00 0.  1.
         15    1    5    5    0    0  0.41409790867E+02  0.91323159613E+02  0.17713725535E+02  0.10184117076E+03  0.17770000000E+01 0.  1.
        -15    1    5    5    0    0  0.15359186197E+03  0.23932042096E+03 -0.97812427641E+02  0.30072437993E+03  0.17770000000E+01 0. -1.
          1    1    6    6  503    0 -0.66757333054E+02 -0.20398654589E+02 -0.16421415793E+02  0.71709898355E+02  0.00000000000E+00 0. -1.
         -1    1    6    6    0  503 -0.73402222811E+02 -0.13721312107E+03 -0.89856964249E+02  0.17969307425E+03  0.00000000000E+00 0.  1.
<mgrwt>
<rscale>  0 0.39690585E+03</rscale>
<asrwt>0</asrwt>
<pdfrwt beam="1">  1        2 0.11673768E+00 0.39690585E+03</pdfrwt>
<pdfrwt beam="2">  1       -2 0.40647709E-01 0.39690585E+03</pdfrwt>
<totfact> 0.21848478E+02</totfact>
</mgrwt>
</event>
<event>
12    1  0.9321077E-008  0.1116597E+04  0.7818608E-02  0.9189164E-01
          1   -1    0    0  501    0  0.00000000000E+00  0.00000000000E+00  0.39360233718E+04  0.39360233718E+04  0.00000000000E+00 0. -1.
         -1   -1    0    0    0  501 -0.00000000000E+00 -0.00000000000E+00 -0.58068407179E+03  0.58068407179E+03  0.00000000000E+00 0.  1.
         23    2    1    2    0    0 -0.10569781693E+04 -0.23729271524E+03  0.30551349243E+04  0.32426048639E+04  0.84416907214E+02 0.  0.
    5000000    2    1    2    0    0  0.10569781693E+04  0.23729271524E+03  0.30020437570E+03  0.12741025797E+04  0.59975331040E+03 0.  0.
         23    2    4    4    0    0  0.38399908147E+03  0.27111553907E+03 -0.94667805054E+02  0.48772652516E+03  0.89197757502E+02 0.  0.
         23    2    4    4    0    0  0.67297908787E+03 -0.33822823827E+02  0.39487218076E+03  0.78637605457E+03  0.91751969705E+02 0.  0.
          1    1    3    3  502    0 -0.40529191876E+03 -0.49159071511E+02  0.11411914666E+04  0.12120215003E+04  0.00000000000E+00 0. -1.
         -1    1    3    3    0  502 -0.65168625057E+03 -0.18813364373E+03  0.19139434578E+04  0.20305833636E+04  0.00000000000E+00 0.  1.
         15    1    5    5    0    0  0.17066806080E+03  0.14665942132E+03 -0.84998203498E+02  0.24055025496E+03  0.17770000000E+01 0. -1.
        -15    1    5    5    0    0  0.21333102067E+03  0.12445611775E+03 -0.96696015558E+01  0.24717627020E+03  0.17770000000E+01 0.  1.
          4    1    6    6  503    0  0.17692650379E+03 -0.23260009370E+02  0.14978504086E+03  0.23297977218E+03  0.00000000000E+00 0. -1.
         -4    1    6    6    0  503  0.49605258408E+03 -0.10562814457E+02  0.24508713990E+03  0.55339628239E+03  0.00000000000E+00 0.  1.
<mgrwt>
<rscale>  0 0.11165974E+04</rscale>
<asrwt>0</asrwt>
<pdfrwt beam="1">  1        1 0.60554204E+00 0.11165974E+04</pdfrwt>
<pdfrwt beam="2">  1       -1 0.89336013E-01 0.11165974E+04</pdfrwt>
<totfact> 0.13790928E-01</totfact>
</mgrwt>
</event>
<event>
12    1  0.9321077E-008  0.7794376E+03  0.7818608E-02  0.9590267E-01
          1   -1    0    0  501    0  0.00000000000E+00  0.00000000000E+00  0.94449824851E+03  0.94449824851E+03  0.00000000000E+00 0. -1.
         -1   -1    0    0    0  501 -0.00000000000E+00 -0.00000000000E+00 -0.83709979274E+03  0.83709979274E+03  0.00000000000E+00 0.  1.
         23    2    1    2    0    0  0.59944769012E+03  0.42996805756E+03  0.31673653844E+03  0.80795377300E+03  0.90869141137E+02 0.  0.
    5000000    2    1    2    0    0 -0.59944769012E+03 -0.42996805756E+03 -0.20933808268E+03  0.97364426825E+03  0.59995888569E+03 0.  0.
         23    2    4    4    0    0 -0.49638549793E+03 -0.16775594505E+03 -0.35885481901E+03  0.64149689072E+03  0.90558599976E+02 0.  0.
         23    2    4    4    0    0 -0.10306219220E+03 -0.26221211251E+03  0.14951673633E+03  0.33214737752E+03  0.92680195015E+02 0.  0.
          4    1    3    3  502    0  0.23020932027E+03  0.19826156002E+03  0.91562818908E+02  0.31731329491E+03  0.00000000000E+00 0. -1.
         -4    1    3    3    0  502  0.36923836985E+03  0.23170649753E+03  0.22517371953E+03  0.49064047809E+03  0.00000000000E+00 0.  1.
         15    1    5    5    0    0 -0.89665694041E+02  0.28704015783E+01 -0.46765480483E+02  0.10118470135E+03  0.17770000000E+01 0.  1.
        -15    1    5    5    0    0 -0.40671980389E+03 -0.17062634663E+03 -0.31208933853E+03  0.54031218938E+03  0.17770000000E+01 0. -1.
          2    1    6    6  503    0 -0.85846011467E+02 -0.13504774760E+03  0.12118702826E+03  0.20073297596E+03  0.00000000000E+00 0. -1.
         -2    1    6    6    0  503 -0.17216180729E+02 -0.12716436490E+03  0.28329708068E+02  0.13141440157E+03  0.00000000000E+00 0.  1.
<mgrwt>
<rscale>  0 0.77943756E+03</rscale>
<asrwt>0</asrwt>
<pdfrwt beam="1">  1        1 0.14530742E+00 0.77943756E+03</pdfrwt>
<pdfrwt beam="2">  1       -1 0.12878458E+00 0.77943756E+03</pdfrwt>
<totfact> 0.89439801E+00</totfact>
</mgrwt>
</event>
<event>
12    1  0.9321077E-008  0.4737066E+03  0.7818608E-02  0.1020879E+00
         -2   -1    0    0    0  501 -0.00000000000E+00  0.00000000000E+00  0.22690753181E+03  0.22690753181E+03  0.00000000000E+00 0.  1.
          2   -1    0    0  501    0  0.00000000000E+00 -0.00000000000E+00 -0.10907310225E+04  0.10907310225E+04  0.00000000000E+00 0. -1.
         23    2    1    2    0    0  0.20970762410E+03  0.21036200144E+03 -0.38557985867E+03  0.49479751650E+03  0.89012896120E+02 0.  0.
    5000000    2    1    2    0    0 -0.20970762410E+03 -0.21036200144E+03 -0.47824363199E+03  0.82284103778E+03  0.60010077708E+03 0.  0.
         23    2    4    4    0    0 -0.88135982040E+01  0.18608740023E+03 -0.86843129762E+02  0.22355502256E+03  0.87914270098E+02 0.  0.
         23    2    4    4    0    0 -0.20089402589E+03 -0.39644940167E+03 -0.39140050223E+03  0.59928601522E+03  0.91754221516E+02 0.  0.
          2    1    3    3  502    0  0.94397836968E+02  0.88322101282E+02 -0.23987358003E+03  0.27249051285E+03  0.00000000000E+00 0. -1.
         -2    1    3    3    0  502  0.11530978713E+03  0.12203990015E+03 -0.14570627864E+03  0.22230700365E+03  0.00000000000E+00 0.  1.
         15    1    5    5    0    0 -0.47418710274E+02  0.12072982278E+03 -0.61019471759E+02  0.14335535517E+03  0.17770000000E+01 0. -1.
        -15    1    5    5    0    0  0.38605112070E+02  0.65357577448E+02 -0.25823658003E+02  0.80199667390E+02  0.17770000000E+01 0.  1.
          1    1    6    6  503    0 -0.16209814724E+03 -0.30950308476E+03 -0.35287705502E+03  0.49657847796E+03  0.00000000000E+00 0. -1.
         -1    1    6    6    0  503 -0.38795878650E+02 -0.86946316908E+02 -0.38523447212E+02  0.10270753726E+03  0.00000000000E+00 0.  1.
<mgrwt>
<rscale>  0 0.47370659E+03</rscale>
<asrwt>0</asrwt>
<pdfrwt beam="1">  1        2 0.16780478E+00 0.47370659E+03</pdfrwt>
<pdfrwt beam="2">  1       -2 0.34908850E-01 0.47370659E+03</pdfrwt>
<totfact> 0.17577782E+02</totfact>
</mgrwt>
</event>
<event>
12    1  0.9321077E-008  0.5191380E+03  0.7818608E-02  0.1008901E+00
         -1   -1    0    0    0  501 -0.00000000000E+00  0.00000000000E+00  0.77939885529E+03  0.77939885529E+03  0.00000000000E+00 0.  1.
          1   -1    0    0  501    0  0.00000000000E+00 -0.00000000000E+00 -0.31500776060E+04  0.31500776060E+04  0.00000000000E+00 0. -1.
         23    2    1    2    0    0 -0.18178270634E+03  0.32513504999E+03 -0.29753741916E+04  0.29996816631E+04  0.80503086392E+02 0.  0.
    5000000    2    1    2    0    0  0.18178270634E+03 -0.32513504999E+03  0.60469544090E+03  0.92979479818E+03  0.60008669159E+03 0.  0.
         23    2    4    4    0    0 -0.17532062141E+03 -0.16963594209E+03  0.40397365222E+03  0.48234374523E+03  0.99735167987E+02 0.  0.
         23    2    4    4    0    0  0.35710332775E+03 -0.15549910790E+03  0.20072178868E+03  0.44745105295E+03  0.90666692242E+02 0.  0.
          3    1    3    3  502    0 -0.13265623788E+03  0.29427543854E+03 -0.25628024336E+04  0.25830509141E+04  0.00000000000E+00 0. -1.
         -3    1    3    3    0  502 -0.49126468457E+02  0.30859611451E+02 -0.41257175799E+03  0.41663074900E+03  0.00000000000E+00 0.  1.
         15    1    5    5    0    0 -0.20606562397E+02  0.87680329132E+01  0.68484189184E+02  0.72074619057E+02  0.17770000000E+01 0.  1.
        -15    1    5    5    0    0 -0.15471405902E+03 -0.17840397500E+03  0.33548946304E+03  0.41026912618E+03  0.17770000000E+01 0. -1.
          1    1    6    6  503    0  0.21536696251E+03 -0.13859933066E+03  0.14429655557E+03  0.29396292104E+03  0.00000000000E+00 0. -1.
         -1    1    6    6    0  503  0.14173636525E+03 -0.16899777245E+02  0.56425233105E+02  0.15348813190E+03  0.00000000000E+00 0.  1.
<mgrwt>
<rscale>  0 0.51913795E+03</rscale>
<asrwt>0</asrwt>
<pdfrwt beam="1">  1        1 0.48462732E+00 0.51913795E+03</pdfrwt>
<pdfrwt beam="2">  1       -1 0.11990752E+00 0.51913795E+03</pdfrwt>
<totfact> 0.33595440E-01</totfact>
</mgrwt>
</event>
<event>
12    1  0.9321077E-008  0.6265279E+03  0.7818608E-02  0.9851848E-01
         -2   -1    0    0    0  501 -0.00000000000E+00  0.00000000000E+00  0.66430878162E+03  0.66430878162E+03  0.00000000000E+00 0.  1.
          2   -1    0    0  501    0  0.00000000000E+00 -0.00000000000E+00 -0.10607887188E+04  0.10607887188E+04  0.00000000000E+00 0. -1.
         23    2    1    2    0    0  0.46694724309E+03 -0.16161652062E+03  0.37750787358E+03  0.62818097823E+03  0.89103979850E+02 0.  0.
    5000000    2    1    2    0    0 -0.46694724309E+03  0.16161652062E+03 -0.77398781078E+03  0.10969165222E+04  0.60000758150E+03 0.  0.
         23    2    4    4    0    0 -0.39571058832E+03 -0.15497672737E+03 -0.50215275690E+03  0.66413398657E+03  0.91169650234E+02 0.  0.
         23    2    4    4    0    0 -0.71236654773E+02  0.31659324799E+03 -0.27183505388E+03  0.43278253562E+03  0.90002671990E+02 0.  0.
          3    1    3    3  502    0  0.34497671155E+03 -0.86559233455E+02  0.23598470522E+03  0.42683745560E+03  0.00000000000E+00 0. -1.
         -3    1    3    3    0  502  0.12197053155E+03 -0.75057287164E+02  0.14152316836E+03  0.20134352263E+03  0.00000000000E+00 0.  1.
         15    1    5    5    0    0 -0.16720617364E+03 -0.56005040424E+02 -0.14271071823E+03  0.22685672986E+03  0.17770000000E+01 0.  1.
        -15    1    5    5    0    0 -0.22850441468E+03 -0.98971686948E+02 -0.35944203867E+03  0.43727725671E+03  0.17770000000E+01 0. -1.
          1    1    6    6  503    0 -0.28474902855E+01  0.13064565302E+03 -0.63524533370E+02  0.14529886852E+03  0.00000000000E+00 0. -1.
         -1    1    6    6    0  503 -0.68389164488E+02  0.18594759497E+03 -0.20831052051E+03  0.28748366710E+03  0.00000000000E+00 0.  1.
<mgrwt>
<rscale>  0 0.62652787E+03</rscale>
<asrwt>0</asrwt>
<pdfrwt beam="1">  1        2 0.16319827E+00 0.62652787E+03</pdfrwt>
<pdfrwt beam="2">  1       -2 0.10220135E+00 0.62652787E+03</pdfrwt>
<totfact> 0.18658286E+01</totfact>
</mgrwt>
</event>
<event>
12    1  0.9321077E-008  0.5095589E+03  0.7818608E-02  0.1011314E+00
         -3   -1    0    0    0  501 -0.00000000000E+00  0.00000000000E+00  0.56508410771E+03  0.56508410771E+03  0.00000000000E+00 0.  1.
          3   -1    0    0  501    0  0.00000000000E+00 -0.00000000000E+00 -0.66599125384E+03  0.66599125384E+03  0.00000000000E+00 0. -1.
         23    2    1    2    0    0 -0.25895033527E+03  0.37883745268E+03 -0.57218488145E+02  0.47358018504E+03  0.10213297502E+03 0.  0.
    5000000    2    1    2    0    0  0.25895033527E+03 -0.37883745268E+03 -0.43688657982E+02  0.75749517651E+03  0.60109662444E+03 0.  0.
         23    2    4    4    0    0  0.17923463483E+03 -0.24234075081E+02 -0.25669380822E+03  0.32675630814E+03  0.90363870066E+02 0.  0.
         23    2    4    4    0    0  0.79715700439E+02 -0.35460337760E+03  0.21300515024E+03  0.43073886837E+03  0.89814421990E+02 0.  0.
          3    1    3    3  502    0 -0.16973396917E+03  0.16277065033E+03 -0.11916763899E+02  0.23546956101E+03  0.00000000000E+00 0. -1.
         -3    1    3    3    0  502 -0.89216366101E+02  0.21606680235E+03 -0.45301724246E+02  0.23811062403E+03  0.00000000000E+00 0.  1.
         15    1    5    5    0    0  0.53019521862E+02 -0.73793447753E+00 -0.18547750016E+02  0.56203122737E+02  0.17770000000E+01 0.  1.
        -15    1    5    5    0    0  0.12621511297E+03 -0.23496140603E+02 -0.23814605820E+03  0.27055318540E+03  0.17770000000E+01 0. -1.
          1    1    6    6  503    0  0.16189376984E+02 -0.11635917488E+02  0.32171158347E+02  0.37848037364E+02  0.00000000000E+00 0. -1.
         -1    1    6    6    0  503  0.63526323454E+02 -0.34296746011E+03  0.18083399189E+03  0.39289083101E+03  0.00000000000E+00 0.  1.
<mgrwt>
<rscale>  0 0.50955893E+03</rscale>
<asrwt>0</asrwt>
<pdfrwt beam="1">  1        3 0.10246019E+00 0.50955893E+03</pdfrwt>
<pdfrwt beam="2">  1       -3 0.86936016E-01 0.50955893E+03</pdfrwt>
<totfact> 0.26066558E+00</totfact>
</mgrwt>
</event>
<event>
12    1  0.9321077E-008  0.3824220E+03  0.7818608E-02  0.1050042E+00
         -1   -1    0    0    0  501 -0.00000000000E+00  0.00000000000E+00  0.63581061490E+03  0.63581061490E+03  0.00000000000E+00 0.  1.
          1   -1    0    0  501    0  0.00000000000E+00 -0.00000000000E+00 -0.47105379877E+03  0.47105379877E+03  0.00000000000E+00 0. -1.
         23    2    1    2    0    0  0.22274797896E+03  0.48346480683E+02  0.35990469018E+03  0.43601082204E+03  0.92843990612E+02 0.  0.
    5000000    2    1    2    0    0 -0.22274797896E+03 -0.48346480683E+02 -0.19514787405E+03  0.67085359163E+03  0.60000650357E+03 0.  0.
         23    2    4    4    0    0  0.90538700192E+02 -0.16240047129E+03 -0.24442654142E+03  0.32168874908E+03  0.95750445575E+02 0.  0.
         23    2    4    4    0    0 -0.31328667916E+03  0.11405399060E+03  0.49278667366E+02  0.34916484255E+03  0.91273457846E+02 0.  0.
          3    1    3    3  502    0  0.70177218226E+02 -0.18615961131E+02  0.16049257855E+03  0.17615125244E+03  0.00000000000E+00 0. -1.
         -3    1    3    3    0  502  0.15257076074E+03  0.66962441814E+02  0.19941211163E+03  0.25985956960E+03  0.00000000000E+00 0.  1.
         15    1    5    5    0    0 -0.53565877337E+00 -0.12708675835E+02 -0.81214298166E+02  0.82223581334E+02  0.17770000000E+01 0. -1.
        -15    1    5    5    0    0  0.91074358966E+02 -0.14969179545E+03 -0.16321224325E+03  0.23946516774E+03  0.17770000000E+01 0.  1.
          4    1    6    6  503    0 -0.11484472484E+03  0.69261244325E+02 -0.17043998440E+02  0.13519219160E+03  0.00000000000E+00 0. -1.
         -4    1    6    6    0  503 -0.19844195432E+03  0.44792746280E+02  0.66322665805E+02  0.21397265095E+03  0.00000000000E+00 0.  1.
<mgrwt>
<rscale>  0 0.38242199E+03</rscale>
<asrwt>0</asrwt>
<pdfrwt beam="1">  1        1 0.72469814E-01 0.38242199E+03</pdfrwt>
<pdfrwt beam="2">  1       -1 0.97817019E-01 0.38242199E+03</pdfrwt>
<totfact> 0.51370034E+01</totfact>
</mgrwt>
</event>
<event>
12    1  0.9321077E-008  0.4756208E+03  0.7818608E-02  0.1020346E+00
          1   -1    0    0  501    0  0.00000000000E+00  0.00000000000E+00  0.13564919803E+04  0.13564919803E+04  0.00000000000E+00 0. -1.
         -1   -1    0    0    0  501 -0.00000000000E+00 -0.00000000000E+00 -0.47843696270E+03  0.47843696270E+03  0.00000000000E+00 0.  1.
         23    2    1    2    0    0 -0.28769447308E+02 -0.43580514640E+03  0.98641259525E+03  0.10849787331E+04  0.11582416207E+03 0.  0.
    5000000    2    1    2    0    0  0.28769447308E+02  0.43580514640E+03 -0.10835757765E+03  0.74995020989E+03  0.59994178547E+03 0.  0.
         23    2    4    4    0    0  0.10578957692E+03  0.63875686112E+02  0.19966879985E+03  0.25206438034E+03  0.91636697566E+02 0.  0.
         23    2    4    4    0    0 -0.77020129617E+02  0.37192946029E+03 -0.30802637749E+03  0.49788582955E+03  0.93522330175E+02 0.  0.
          1    1    3    3  502    0 -0.16157980289E+02 -0.33104982582E+03  0.85131938557E+03  0.91356431834E+03  0.00000000000E+00 0. -1.
         -1    1    3    3    0  502 -0.12611467019E+02 -0.10475532058E+03  0.13509320968E+03  0.17141441478E+03  0.00000000000E+00 0.  1.
         15    1    5    5    0    0  0.29864048840E+02  0.26370391356E+02  0.14701990150E+03  0.15233275458E+03  0.17770000000E+01 0.  1.
        -15    1    5    5    0    0  0.75925528085E+02  0.37505294756E+02  0.52648898352E+02  0.99731625758E+02  0.17770000000E+01 0. -1.
          2    1    6    6  503    0 -0.22622697854E+02  0.29284203894E+03 -0.21302299680E+03  0.36283197681E+03  0.00000000000E+00 0. -1.
         -2    1    6    6    0  503 -0.54397431763E+02  0.79087421348E+02 -0.95003380697E+02  0.13505385275E+03  0.00000000000E+00 0.  1.
<mgrwt>
<rscale>  0 0.47562084E+03</rscale>
<asrwt>0</asrwt>
<pdfrwt beam="1">  1        1 0.20869107E+00 0.47562084E+03</pdfrwt>
<pdfrwt beam="2">  1       -1 0.73605687E-01 0.47562084E+03</pdfrwt>
<totfact> 0.16611604E+01</totfact>
</mgrwt>
</event>
<event>
12    1  0.9321077E-008  0.7606549E+03  0.7818608E-02  0.9618781E-01
          1   -1    0    0  501    0  0.00000000000E+00  0.00000000000E+00  0.11775943659E+04  0.11775943659E+04  0.00000000000E+00 0.  1.
         -1   -1    0    0    0  501 -0.00000000000E+00 -0.00000000000E+00 -0.79654200807E+03  0.79654200807E+03  0.00000000000E+00 0. -1.
         23    2    1    2    0    0  0.64853429620E+03  0.32343355266E+03 -0.32394164416E+03  0.79844138865E+03  0.85816466658E+02 0.  0.
    5000000    2    1    2    0    0 -0.64853429620E+03 -0.32343355266E+03  0.70499400198E+03  0.11756949853E+04  0.60003013201E+03 0.  0.
         23    2    4    4    0    0 -0.12057322650E+03 -0.19623191760E+03  0.55044426448E+03  0.60336811714E+03  0.89550701015E+02 0.  0.
         23    2    4    4    0    0 -0.52796106969E+03 -0.12720163506E+03  0.15454973750E+03  0.57232686817E+03  0.93537562451E+02 0.  0.
          3    1    3    3  502    0  0.16050233216E+03  0.11887558421E+03 -0.10638066521E+03  0.22629460684E+03  0.00000000000E+00 0. -1.
         -3    1    3    3    0  502  0.48803196403E+03  0.20455796845E+03 -0.21756097895E+03  0.57214678181E+03  0.00000000000E+00 0.  1.
         15    1    5    5    0    0 -0.10707523033E+03 -0.96540476701E+02  0.28275004937E+03  0.31738921963E+03  0.17770000000E+01 0.  1.
        -15    1    5    5    0    0 -0.13497996176E+02 -0.99691440898E+02  0.26769421511E+03  0.28597889751E+03  0.17770000000E+01 0. -1.
          4    1    6    6  503    0 -0.92595018889E+02 -0.50730069998E+02  0.55720484667E+02  0.11938236862E+03  0.00000000000E+00 0. -1.
         -4    1    6    6    0  503 -0.43536605080E+03 -0.76471565065E+02  0.98829252831E+02  0.45294449955E+03  0.00000000000E+00 0.  1.
<mgrwt>
<rscale>  0 0.76065490E+03</rscale>
<asrwt>0</asrwt>
<pdfrwt beam="1">  1        1 0.18116837E+00 0.76065490E+03</pdfrwt>
<pdfrwt beam="2">  1       -1 0.12254492E+00 0.76065490E+03</pdfrwt>
<totfact> 0.67510280E+00</totfact>
</mgrwt>
</event>
<event>
12    1  0.9321077E-008  0.4266531E+03  0.7818608E-02  0.1034922E+00
          1   -1    0    0  501    0  0.00000000000E+00  0.00000000000E+00  0.29882045629E+03  0.29882045629E+03  0.00000000000E+00 0. -1.
         -1   -1    0    0    0  501 -0.00000000000E+00 -0.00000000000E+00 -0.91317859113E+03  0.91317859113E+03  0.00000000000E+00 0.  1.
         23    2    1    2    0    0  0.24129214269E+03 -0.22576322220E+03 -0.10785719359E+03  0.36065820046E+03  0.96178130176E+02 0.  0.
    5000000    2    1    2    0    0 -0.24129214269E+03  0.22576322220E+03 -0.50650094125E+03  0.85134084696E+03  0.59920539350E+03 0.  0.
         23    2    4    4    0    0 -0.32895038881E+03  0.89194067101E+02 -0.47296506387E+02  0.35605789206E+03  0.91522254570E+02 0.  0.
         23    2    4    4    0    0  0.87658246118E+02  0.13656915510E+03 -0.45920443486E+03  0.49528295490E+03  0.90007722896E+02 0.  0.
          1    1    3    3  502    0  0.19556194834E+03 -0.12181012812E+03 -0.77860496712E+02  0.24319629910E+03  0.00000000000E+00 0. -1.
         -1    1    3    3    0  502  0.45730194351E+02 -0.10395309409E+03 -0.29996696882E+02  0.11746190135E+03  0.00000000000E+00 0.  1.
         15    1    5    5    0    0 -0.73798743185E+02  0.37586510666E+02 -0.47984838754E+02  0.95732454053E+02  0.17770000000E+01 0. -1.
        -15    1    5    5    0    0 -0.25515164562E+03  0.51607556435E+02  0.68833236628E+00  0.26032543801E+03  0.17770000000E+01 0.  1.
          2    1    6    6  503    0  0.65886930562E+02  0.69949592964E+02 -0.14929550821E+03  0.17754768922E+03  0.00000000000E+00 0.  1.
         -2    1    6    6    0  503  0.21771315556E+02  0.66619562140E+02 -0.30990892665E+03  0.31773526568E+03  0.00000000000E+00 0. -1.
<mgrwt>
<rscale>  0 0.42665309E+03</rscale>
<asrwt>0</asrwt>
<pdfrwt beam="1">  1        1 0.45972378E-01 0.42665309E+03</pdfrwt>
<pdfrwt beam="2">  1       -1 0.14048901E+00 0.42665309E+03</pdfrwt>
<totfact> 0.38768900E+01</totfact>
</mgrwt>
</event>
<event>
12    1  0.9321077E-008  0.8995059E+03  0.7818608E-02  0.9426199E-01
         -4   -1    0    0    0  501 -0.00000000000E+00  0.00000000000E+00  0.71978930979E+03  0.71978930979E+03  0.00000000000E+00 0.  1.
          4   -1    0    0  501    0  0.00000000000E+00 -0.00000000000E+00 -0.13490005976E+04  0.13490005976E+04  0.00000000000E+00 0. -1.
         23    2    1    2    0    0  0.49858600711E+03  0.66553921773E+03  0.51166772705E+02  0.83812602597E+03  0.91141318582E+02 0.  0.
    5000000    2    1    2    0    0 -0.49858600711E+03 -0.66553921773E+03 -0.68037806053E+03  0.12306638814E+04  0.60007401796E+03 0.  0.
         23    2    4    4    0    0 -0.15556456044E+03 -0.58540801987E+03 -0.60186903235E+03  0.85845636555E+03  0.88306949176E+02 0.  0.
         23    2    4    4    0    0 -0.34302144667E+03 -0.80131197861E+02 -0.78509028181E+02  0.37220751589E+03  0.91049687722E+02 0.  0.
          1    1    3    3  502    0  0.19705378557E+03  0.22720285813E+03 -0.19684896880E+02  0.30139480472E+03  0.00000000000E+00 0. -1.
         -1    1    3    3    0  502  0.30153222154E+03  0.43833635960E+03  0.70851669584E+02  0.53673122124E+03  0.00000000000E+00 0.  1.
         15    1    5    5    0    0 -0.98730884612E+02 -0.20791028775E+03 -0.21571642555E+03  0.31545397336E+03  0.17770000000E+01 0. -1.
        -15    1    5    5    0    0 -0.56833675827E+02 -0.37749773212E+03 -0.38615260680E+03  0.54300239219E+03  0.17770000000E+01 0.  1.
          1    1    6    6  503    0 -0.14562654723E+03 -0.53382373718E+02 -0.76629669718E+02  0.17299963978E+03  0.00000000000E+00 0. -1.
         -1    1    6    6    0  503 -0.19739489944E+03 -0.26748824143E+02 -0.18793584626E+01  0.19920787611E+03  0.00000000000E+00 0.  1.
<mgrwt>
<rscale>  0 0.89950593E+03</rscale>
<asrwt>0</asrwt>
<pdfrwt beam="1">  1        4 0.20753855E+00 0.89950593E+03</pdfrwt>
<pdfrwt beam="2">  1       -4 0.11073682E+00 0.89950593E+03</pdfrwt>
<totfact> 0.14712096E-01</totfact>
</mgrwt>
</event>
<event>
12    1  0.9321077E-008  0.5697763E+03  0.7818608E-02  0.9970174E-01
         -2   -1    0    0    0  501 -0.00000000000E+00  0.00000000000E+00  0.31074490921E+03  0.31074490921E+03  0.00000000000E+00 0.  1.
          2   -1    0    0  501    0  0.00000000000E+00 -0.00000000000E+00 -0.19771037573E+04  0.19771037573E+04  0.00000000000E+00 0. -1.
         23    2    1    2    0    0  0.32310894541E+03 -0.29264422787E+03  0.20669961741E+02  0.44503903836E+03  0.87134744137E+02 0.  0.
    5000000    2    1    2    0    0 -0.32310894541E+03  0.29264422787E+03 -0.16870288098E+04  0.18428096281E+04  0.59986755682E+03 0.  0.
         23    2    4    4    0    0  0.13650712021E+03 -0.28716860869E+01 -0.60891337350E+03  0.63069141953E+03  0.91398740687E+02 0.  0.
         23    2    4    4    0    0 -0.45961606562E+03  0.29551591395E+03 -0.10781154363E+04  0.12121182086E+04  0.91219923519E+02 0.  0.
          1    1    3    3  502    0  0.29811650373E+03 -0.23691578353E+03  0.73732317045E+00  0.38079270204E+03  0.00000000000E+00 0. -1.
         -1    1    3    3    0  502  0.24992441672E+02 -0.55728444338E+02  0.19932638571E+02  0.64246336311E+02  0.00000000000E+00 0.  1.
         15    1    5    5    0    0  0.11832172812E+03  0.19982245360E+02 -0.34737310567E+03  0.36751946037E+03  0.17770000000E+01 0. -1.
        -15    1    5    5    0    0  0.18185392089E+02 -0.22853931447E+02 -0.26154026783E+03  0.26317195917E+03  0.17770000000E+01 0.  1.
          4    1    6    6  503    0 -0.29375856064E+03  0.21509311176E+03 -0.79329945588E+03  0.87285918989E+03  0.00000000000E+00 0. -1.
         -4    1    6    6    0  503 -0.16585750498E+03  0.80422802192E+02 -0.28481598041E+03  0.33925901870E+03  0.00000000000E+00 0.  1.
<mgrwt>
<rscale>  0 0.56977634E+03</rscale>
<asrwt>0</asrwt>
<pdfrwt beam="1">  1        2 0.30416982E+00 0.56977634E+03</pdfrwt>
<pdfrwt beam="2">  1       -2 0.47806908E-01 0.56977634E+03</pdfrwt>
<totfact> 0.30244668E+01</totfact>
</mgrwt>
</event>
<event>
12    1  0.9321077E-008  0.6311112E+03  0.7818608E-02  0.9842883E-01
         -2   -1    0    0    0  501 -0.00000000000E+00  0.00000000000E+00  0.32854692771E+03  0.32854692771E+03  0.00000000000E+00 0.  1.
          2   -1    0    0  501    0  0.00000000000E+00 -0.00000000000E+00 -0.22395987244E+04  0.22395987244E+04  0.00000000000E+00 0. -1.
         23    2    1    2    0    0 -0.55341835807E+03 -0.17766798536E+03 -0.13212209593E+03  0.60283196634E+03  0.90068525774E+02 0.  0.
    5000000    2    1    2    0    0  0.55341835807E+03  0.17766798536E+03 -0.17789297008E+04  0.19653136858E+04  0.60002434216E+03 0.  0.
         23    2    4    4    0    0  0.39713273275E+03  0.25302813500E+03 -0.59106175620E+03  0.76126545511E+03  0.91833811800E+02 0.  0.
         23    2    4    4    0    0  0.15628562532E+03 -0.75360149637E+02 -0.11878679446E+04  0.12040482307E+04  0.92722916281E+02 0.  0.
          2    1    3    3  502    0 -0.26074277474E+03 -0.12215507333E+03 -0.91819886904E+02  0.30222433414E+03  0.00000000000E+00 0. -1.
         -2    1    3    3    0  502 -0.29267558333E+03 -0.55512912034E+02 -0.40302209025E+02  0.30060763219E+03  0.00000000000E+00 0.  1.
         15    1    5    5    0    0  0.14188251206E+03  0.14392322373E+03 -0.24323970375E+03  0.31624871979E+03  0.17770000000E+01 0.  1.
        -15    1    5    5    0    0  0.25525022068E+03  0.10910491127E+03 -0.34782205244E+03  0.44501673532E+03  0.17770000000E+01 0. -1.
          4    1    6    6  503    0 -0.84348550545E+01 -0.21961951455E+02 -0.15039740625E+03  0.15222632459E+03  0.00000000000E+00 0. -1.
         -4    1    6    6    0  503  0.16472048038E+03 -0.53398198182E+02 -0.10374705383E+04  0.10518219061E+04  0.00000000000E+00 0.  1.
<mgrwt>
<rscale>  0 0.63111117E+03</rscale>
<asrwt>0</asrwt>
<pdfrwt beam="1">  1        2 0.34455365E+00 0.63111117E+03</pdfrwt>
<pdfrwt beam="2">  1       -2 0.50545681E-01 0.63111117E+03</pdfrwt>
<totfact> 0.19238019E+01</totfact>
</mgrwt>
</event>
<event>
12    1  0.9321077E-008  0.3897932E+03  0.7818608E-02  0.1047372E+00
         -2   -1    0    0    0  501 -0.00000000000E+00  0.00000000000E+00  0.13276618963E+03  0.13276618963E+03  0.00000000000E+00 0.  1.
          2   -1    0    0  501    0  0.00000000000E+00 -0.00000000000E+00 -0.24823128943E+04  0.24823128943E+04  0.00000000000E+00 0. -1.
         23    2    1    2    0    0  0.25419597080E+03 -0.24983666726E+03 -0.38575379811E+03  0.53098645980E+03  0.78145222848E+02 0.  0.
    5000000    2    1    2    0    0 -0.25419597080E+03  0.24983666726E+03 -0.19637929066E+04  0.20840926242E+04  0.59993794196E+03 0.  0.
         23    2    4    4    0    0 -0.14617400649E+03  0.33435180836E+02 -0.17232091566E+04  0.17320999084E+04  0.90749896649E+02 0.  0.
         23    2    4    4    0    0 -0.10802196432E+03  0.21640148643E+03 -0.24058375002E+03  0.35199271580E+03  0.86717836123E+02 0.  0.
          2    1    3    3  502    0  0.73172337390E+02 -0.12513682607E+03 -0.14702269458E+03  0.20646813052E+03  0.00000000000E+00 0. -1.
         -2    1    3    3    0  502  0.18102363341E+03 -0.12469984119E+03 -0.23873110353E+03  0.32451832928E+03  0.00000000000E+00 0.  1.
         15    1    5    5    0    0 -0.52120086699E+01  0.30564898198E+02 -0.20249486342E+03  0.20486265027E+03  0.17770000000E+01 0. -1.
        -15    1    5    5    0    0 -0.14096199782E+03  0.28702826384E+01 -0.15207142932E+04  0.15272372581E+04  0.17770000000E+01 0.  1.
          2    1    6    6  503    0 -0.40006887712E+02  0.59035322753E+02 -0.12912695997E+03  0.14751099006E+03  0.00000000000E+00 0. -1.
         -2    1    6    6    0  503 -0.68015076606E+02  0.15736616367E+03 -0.11145679005E+03  0.20448172574E+03  0.00000000000E+00 0.  1.
<mgrwt>
<rscale>  0 0.38979324E+03</rscale>
<asrwt>0</asrwt>
<pdfrwt beam="1">  1        2 0.38189424E+00 0.38979324E+03</pdfrwt>
<pdfrwt beam="2">  1       -2 0.20425571E-01 0.38979324E+03</pdfrwt>
<totfact> 0.80913536E+01</totfact>
</mgrwt>
</event>
<event>
12    1  0.9321077E-008  0.1296335E+04  0.7818608E-02  0.9032476E-01
          2   -1    0    0  501    0  0.00000000000E+00  0.00000000000E+00  0.29260583611E+04  0.29260583611E+04  0.00000000000E+00 0. -1.
         -2   -1    0    0    0  501 -0.00000000000E+00 -0.00000000000E+00 -0.74861658857E+03  0.74861658857E+03  0.00000000000E+00 0.  1.
         23    2    1    2    0    0  0.12177670742E+04  0.35986842349E+03  0.18275723137E+04  0.22273661651E+04  0.93153327930E+02 0.  0.
    5000000    2    1    2    0    0 -0.12177670742E+04 -0.35986842349E+03  0.34986945885E+03  0.14473087845E+04  0.59986010889E+03 0.  0.
         23    2    4    4    0    0 -0.73417585245E+03 -0.38551799101E+03 -0.14445116019E+02  0.83466087940E+03  0.93871286881E+02 0.  0.
         23    2    4    4    0    0 -0.48359122178E+03  0.25649567527E+02  0.36431457487E+03  0.61264790514E+03  0.89966527695E+02 0.  0.
          3    1    3    3  502    0  0.58004264942E+03  0.19722842290E+03  0.81225537787E+03  0.10174022434E+04  0.00000000000E+00 0. -1.
         -3    1    3    3    0  502  0.63772442482E+03  0.16264000058E+03  0.10153169358E+04  0.12099639217E+04  0.00000000000E+00 0.  1.
         15    1    5    5    0    0 -0.54472229977E+03 -0.24283483870E+03  0.76867917731E+01  0.59645065785E+03  0.17770000000E+01 0. -1.
        -15    1    5    5    0    0 -0.18945355269E+03 -0.14268315232E+03 -0.22131907792E+02  0.23821022155E+03  0.17770000000E+01 0.  1.
          4    1    6    6  503    0 -0.15748889989E+03 -0.20966245845E+02  0.81914578281E+02  0.17875216135E+03  0.00000000000E+00 0. -1.
         -4    1    6    6    0  503 -0.32610232190E+03  0.46615813372E+02  0.28239999659E+03  0.43389574379E+03  0.00000000000E+00 0.  1.
<mgrwt>
<rscale>  0 0.12963353E+04</rscale>
<asrwt>0</asrwt>
<pdfrwt beam="1">  1        2 0.45016282E+00 0.12963353E+04</pdfrwt>
<pdfrwt beam="2">  1       -2 0.11517178E+00 0.12963353E+04</pdfrwt>
<totfact> 0.11091907E+00</totfact>
</mgrwt>
</event>
<event>
12    1  0.9321077E-008  0.5779836E+03  0.7818608E-02  0.9952166E-01
         -1   -1    0    0    0  501 -0.00000000000E+00  0.00000000000E+00  0.12096461009E+04  0.12096461009E+04  0.00000000000E+00 0.  1.
          1   -1    0    0  501    0  0.00000000000E+00 -0.00000000000E+00 -0.35798569334E+03  0.35798569334E+03  0.00000000000E+00 0. -1.
         23    2    1    2    0    0  0.50777424734E+03 -0.88304637139E+02  0.37749566582E+03  0.64548768486E+03  0.92298312004E+02 0.  0.
    5000000    2    1    2    0    0 -0.50777424734E+03  0.88304637139E+02  0.47416474169E+03  0.92214410933E+03  0.59990429313E+03 0.  0.
         23    2    4    4    0    0 -0.38235355332E+03 -0.10597628964E+03  0.22105493809E+02  0.40779621973E+03  0.91563585938E+02 0.  0.
         23    2    4    4    0    0 -0.12542069402E+03  0.19428092678E+03  0.45205924788E+03  0.51434788960E+03  0.81980235086E+02 0.  0.
          2    1    3    3  502    0  0.28532676864E+03 -0.38703676700E+02  0.15512774498E+03  0.32706873399E+03  0.00000000000E+00 0.  1.
         -2    1    3    3    0  502  0.22244747870E+03 -0.49600960439E+02  0.22236792084E+03  0.31841895088E+03  0.00000000000E+00 0. -1.
         15    1    5    5    0    0 -0.12071093502E+03 -0.55555565051E+02  0.45113552338E+02  0.14034222806E+03  0.17770000000E+01 0.  1.
        -15    1    5    5    0    0 -0.26164261830E+03 -0.50420724587E+02 -0.23008058529E+02  0.26745399168E+03  0.17770000000E+01 0. -1.
          1    1    6    6  503    0 -0.15522431173E+02  0.82710717822E+02  0.20782614020E+03  0.22421800388E+03  0.00000000000E+00 0. -1.
         -1    1    6    6    0  503 -0.10989826285E+03  0.11157020896E+03  0.24423310768E+03  0.29012988572E+03  0.00000000000E+00 0.  1.
<mgrwt>
<rscale>  0 0.57798364E+03</rscale>
<asrwt>0</asrwt>
<pdfrwt beam="1">  1        1 0.55074722E-01 0.57798364E+03</pdfrwt>
<pdfrwt beam="2">  1       -1 0.18609940E+00 0.57798364E+03</pdfrwt>
<totfact> 0.13767634E+01</totfact>
</mgrwt>
</event>
<event>
12    1  0.9321077E-008  0.2240460E+04  0.7818608E-02  0.8501774E-01
         -1   -1    0    0    0  501 -0.00000000000E+00  0.00000000000E+00  0.38648084695E+04  0.38648084695E+04  0.00000000000E+00 0.  1.
          1   -1    0    0  501    0  0.00000000000E+00 -0.00000000000E+00 -0.13817229274E+04  0.13817229274E+04  0.00000000000E+00 0. -1.
         23    2    1    2    0    0  0.19587678089E+04  0.10321058334E+04  0.64761637240E+03  0.23086186500E+04  0.91100629553E+02 0.  0.
    5000000    2    1    2    0    0 -0.19587678089E+04 -0.10321058334E+04  0.18354691697E+04  0.29379127470E+04  0.60030863337E+03 0.  0.
         23    2    4    4    0    0 -0.36508264615E+02 -0.14238192867E+03  0.15909372859E+03  0.23508381385E+03  0.91368036321E+02 0.  0.
         23    2    4    4    0    0 -0.19222595443E+04 -0.88972390471E+03  0.16763754411E+04  0.27028289331E+04  0.91428878571E+02 0.  0.
          1    1    3    3  502    0  0.13933933674E+04  0.72014214040E+03  0.41739185907E+03  0.16230729320E+04  0.00000000000E+00 0. -1.
         -1    1    3    3    0  502  0.56537444154E+03  0.31196369298E+03  0.23022451333E+03  0.68554571796E+03  0.00000000000E+00 0.  1.
         15    1    5    5    0    0 -0.33019850034E+02 -0.88355465380E+02  0.15410167932E+03  0.18068614794E+03  0.17770000000E+01 0. -1.
        -15    1    5    5    0    0 -0.34884145811E+01 -0.54026463288E+02  0.49920492714E+01  0.54397665911E+02  0.17770000000E+01 0.  1.
          4    1    6    6  503    0 -0.10515876189E+04 -0.49068165551E+03  0.86040826517E+03  0.14446132320E+04  0.00000000000E+00 0. -1.
         -4    1    6    6    0  503 -0.87067192540E+03 -0.39904224920E+03  0.81596717595E+03  0.12582157011E+04  0.00000000000E+00 0.  1.
<mgrwt>
<rscale>  0 0.22404601E+04</rscale>
<asrwt>0</asrwt>
<pdfrwt beam="1">  1        1 0.21257276E+00 0.22404601E+04</pdfrwt>
<pdfrwt beam="2">  1       -1 0.59458591E+00 0.22404601E+04</pdfrwt>
<totfact> 0.31220367E-03</totfact>
</mgrwt>
</event>
<event>
12    1  0.9321077E-008  0.8997432E+03  0.7818608E-02  0.9425902E-01
          1   -1    0    0  501    0  0.00000000000E+00  0.00000000000E+00  0.29986172723E+04  0.29986172723E+04  0.00000000000E+00 0. -1.
         -1   -1    0    0    0  501 -0.00000000000E+00 -0.00000000000E+00 -0.47863344044E+03  0.47863344044E+03  0.00000000000E+00 0.  1.
         23    2    1    2    0    0  0.13572416314E+03  0.82383414138E+03  0.97505381375E+02  0.84561865269E+03  0.91868740098E+02 0.  0.
    5000000    2    1    2    0    0 -0.13572416314E+03 -0.82383414138E+03  0.24224784505E+04  0.26316320601E+04  0.59996809538E+03 0.  0.
         23    2    4    4    0    0  0.16613476542E+03 -0.46006435370E+03  0.83608708496E+03  0.97366044881E+03  0.98554990321E+02 0.  0.
         23    2    4    4    0    0 -0.30185892856E+03 -0.36376978768E+03  0.15863913656E+04  0.16579716113E+04  0.93728479579E+02 0.  0.
          4    1    3    3  502    0  0.11041185297E+03  0.77117653869E+03  0.10724265568E+03  0.78638732078E+03  0.00000000000E+00 0. -1.
         -4    1    3    3    0  502  0.25312310173E+02  0.52657602699E+02 -0.97372743011E+01  0.59231331904E+02  0.00000000000E+00 0.  1.
         15    1    5    5    0    0  0.18893001014E+02 -0.56142698240E+02  0.49366098466E+02  0.77130522231E+02  0.17770000000E+01 0.  1.
        -15    1    5    5    0    0  0.14724176441E+03 -0.40392165546E+03  0.78672098650E+03  0.89652992658E+03  0.17770000000E+01 0. -1.
          1    1    6    6  503    0 -0.13971088797E+03 -0.17703058156E+03  0.91794038425E+03  0.94523727607E+03  0.00000000000E+00 0. -1.
         -1    1    6    6    0  503 -0.16214804060E+03 -0.18673920613E+03  0.66845098130E+03  0.71273433520E+03  0.00000000000E+00 0.  1.
<mgrwt>
<rscale>  0 0.89974321E+03</rscale>
<asrwt>0</asrwt>
<pdfrwt beam="1">  1        1 0.46132572E+00 0.89974321E+03</pdfrwt>
<pdfrwt beam="2">  1       -1 0.73635916E-01 0.89974321E+03</pdfrwt>
<totfact> 0.11642698E+00</totfact>
</mgrwt>
</event>
<event>
12    1  0.9321077E-008  0.7845649E+03  0.7818608E-02  0.9582631E-01
         -2   -1    0    0    0  501 -0.00000000000E+00  0.00000000000E+00  0.60908726435E+03  0.60908726435E+03  0.00000000000E+00 0. -1.
          2   -1    0    0  501    0  0.00000000000E+00 -0.00000000000E+00 -0.13818306540E+04  0.13818306540E+04  0.00000000000E+00 0.  1.
         23    2    1    2    0    0  0.73122595376E+03  0.66159303925E+02  0.44510905586E+02  0.73914794497E+03  0.72732488537E+02 0.  0.
    5000000    2    1    2    0    0 -0.73122595376E+03 -0.66159303925E+02 -0.81725429524E+03  0.12517699734E+04  0.59996252737E+03 0.  0.
         23    2    4    4    0    0 -0.46341885432E+03  0.12937209240E+03 -0.75706505649E+03  0.90256621662E+03  0.99920482389E+02 0.  0.
         23    2    4    4    0    0 -0.26780709944E+03 -0.19553139633E+03 -0.60189238751E+02  0.34920375677E+03  0.91473219138E+02 0.  0.
          4    1    3    3  502    0  0.41133683705E+03  0.68259409032E+02  0.66089760481E+01  0.41701441103E+03  0.00000000000E+00 0.  1.
         -4    1    3    3    0  502  0.31988911671E+03 -0.21001051062E+01  0.37901929538E+02  0.32213353394E+03  0.00000000000E+00 0. -1.
         15    1    5    5    0    0 -0.97591053712E+02 -0.11252829178E+02 -0.17836988063E+03  0.20364088974E+03  0.17770000000E+01 0.  1.
        -15    1    5    5    0    0 -0.36582780061E+03  0.14062492158E+03 -0.57869517585E+03  0.69892532688E+03  0.17770000000E+01 0. -1.
          4    1    6    6  503    0 -0.16836797796E+01 -0.27080093282E+02  0.49543157481E+01  0.27580998429E+02  0.00000000000E+00 0. -1.
         -4    1    6    6    0  503 -0.26612341966E+03 -0.16845130304E+03 -0.65143554500E+02  0.32162275834E+03  0.00000000000E+00 0.  1.
<mgrwt>
<rscale>  0 0.78456488E+03</rscale>
<asrwt>0</asrwt>
<pdfrwt beam="1">  1        2 0.21258933E+00 0.78456488E+03</pdfrwt>
<pdfrwt beam="2">  1       -2 0.93705733E-01 0.78456488E+03</pdfrwt>
<totfact> 0.14520492E+01</totfact>
</mgrwt>
</event>
<event>
12    1  0.9321077E-008  0.1096072E+04  0.7818608E-02  0.9209029E-01
          2   -1    0    0  501    0  0.00000000000E+00  0.00000000000E+00  0.13151570167E+04  0.13151570167E+04  0.00000000000E+00 0. -1.
         -2   -1    0    0    0  501 -0.00000000000E+00 -0.00000000000E+00 -0.10564636542E+04  0.10564636542E+04  0.00000000000E+00 0.  1.
         23    2    1    2    0    0 -0.22847092724E+02  0.10497093612E+04  0.45168429165E+03  0.11469140065E+04  0.94769754973E+02 0.  0.
    5000000    2    1    2    0    0  0.22847092724E+02 -0.10497093612E+04 -0.19299092922E+03  0.12247066644E+04  0.60020761607E+03 0.  0.
         23    2    4    4    0    0 -0.11265331819E+03 -0.97593596799E+03 -0.27948232130E+03  0.10252276964E+04  0.88541955135E+02 0.  0.
         23    2    4    4    0    0  0.13550041092E+03 -0.73773393199E+02  0.86491392073E+02  0.19947896798E+03  0.92240028525E+02 0.  0.
          3    1    3    3  502    0 -0.32129666378E+02  0.55910087702E+03  0.19401127606E+03  0.59267738390E+03  0.00000000000E+00 0.  1.
         -3    1    3    3    0  502  0.92825736538E+01  0.49060848417E+03  0.25767301559E+03  0.55423662264E+03  0.00000000000E+00 0. -1.
         15    1    5    5    0    0  0.10471498533E+02 -0.12083616396E+03 -0.51129462665E+02  0.13163742053E+03  0.17770000000E+01 0.  1.
        -15    1    5    5    0    0 -0.12312481672E+03 -0.85509980403E+03 -0.22835285863E+03  0.89359027587E+03  0.17770000000E+01 0. -1.
          3    1    6    6  503    0  0.90836849855E+02 -0.36014138396E+02  0.99613372024E+02  0.13953915344E+03  0.00000000000E+00 0. -1.
         -3    1    6    6    0  503  0.44663561061E+02 -0.37759254803E+02 -0.13121979951E+02  0.59939814545E+02  0.00000000000E+00 0.  1.
<mgrwt>
<rscale>  0 0.10960718E+04</rscale>
<asrwt>0</asrwt>
<pdfrwt beam="1">  1        2 0.20233185E+00 0.10960718E+04</pdfrwt>
<pdfrwt beam="2">  1       -2 0.16253287E+00 0.10960718E+04</pdfrwt>
<totfact> 0.38363638E+00</totfact>
</mgrwt>
</event>
<event>
12    1  0.9321077E-008  0.6799348E+03  0.7818608E-02  0.9752175E-01
          2   -1    0    0  501    0  0.00000000000E+00  0.00000000000E+00  0.42744254604E+03  0.42744254604E+03  0.00000000000E+00 0. -1.
         -2   -1    0    0    0  501 -0.00000000000E+00 -0.00000000000E+00 -0.18594464711E+04  0.18594464711E+04  0.00000000000E+00 0.  1.
         23    2    1    2    0    0 -0.51559629476E+03 -0.29375273292E+03  0.27254801062E+02  0.60128293523E+03  0.93102828909E+02 0.  0.
    5000000    2    1    2    0    0  0.51559629476E+03  0.29375273292E+03 -0.14592587262E+04  0.16856060820E+04  0.59975130376E+03 0.  0.
         23    2    4    4    0    0  0.50074589048E+03  0.46219150444E+02 -0.12441301496E+04  0.13450953231E+04  0.92406398517E+02 0.  0.
         23    2    4    4    0    0  0.14850404273E+02  0.24753358248E+03 -0.21512857660E+03  0.34051075884E+03  0.90409421288E+02 0.  0.
          1    1    3    3  502    0 -0.24991188140E+03 -0.12128568610E+03  0.55479388215E+02  0.28327394627E+03  0.00000000000E+00 0. -1.
         -1    1    3    3    0  502 -0.26568441335E+03 -0.17246704682E+03 -0.28224587154E+02  0.31800898896E+03  0.00000000000E+00 0.  1.
         15    1    5    5    0    0  0.44892405022E+03  0.66703531545E+02 -0.11390657213E+04  0.12261549817E+04  0.17770000000E+01 0. -1.
        -15    1    5    5    0    0  0.51821840260E+02 -0.20484381101E+02 -0.10506442822E+03  0.11894034136E+03  0.17770000000E+01 0.  1.
          1    1    6    6  503    0  0.27318611112E+02  0.23912640183E+03 -0.21853408336E+03  0.32509212257E+03  0.00000000000E+00 0. -1.
         -1    1    6    6    0  503 -0.12468206839E+02  0.84071806439E+01  0.34055067639E+01  0.15418636272E+02  0.00000000000E+00 0.  1.
<mgrwt>
<rscale>  0 0.67993479E+03</rscale>
<asrwt>0</asrwt>
<pdfrwt beam="1">  1        2 0.65760390E-01 0.67993479E+03</pdfrwt>
<pdfrwt beam="2">  1       -2 0.28606870E+00 0.67993479E+03</pdfrwt>
<totfact> 0.29902077E+00</totfact>
</mgrwt>
</event>
<event>
12    1  0.9321077E-008  0.7601388E+03  0.7818608E-02  0.9619577E-01
          2   -1    0    0  501    0  0.00000000000E+00  0.00000000000E+00  0.12465659579E+04  0.12465659579E+04  0.00000000000E+00 0. -1.
         -2   -1    0    0    0  501 -0.00000000000E+00 -0.00000000000E+00 -0.53520213740E+03  0.53520213740E+03  0.00000000000E+00 0.  1.
         23    2    1    2    0    0 -0.25491568967E+02  0.65519853981E+03  0.58591759869E+03  0.88414183184E+03  0.92045639223E+02 0.  0.
    5000000    2    1    2    0    0  0.25491568967E+02 -0.65519853981E+03  0.12544622181E+03  0.89762626347E+03  0.60005100419E+03 0.  0.
         23    2    4    4    0    0  0.25174977821E+03 -0.55663012425E+03  0.13983581293E+03  0.63434476753E+03  0.98102922823E+02 0.  0.
         23    2    4    4    0    0 -0.22625820925E+03 -0.98568415562E+02 -0.14389591115E+02  0.26328149593E+03  0.90562552798E+02 0.  0.
          1    1    3    3  502    0 -0.58123916172E+02  0.51005157862E+03  0.45374750915E+03  0.68514071879E+03  0.00000000000E+00 0. -1.
         -1    1    3    3    0  502  0.32632347206E+02  0.14514696119E+03  0.13217008954E+03  0.19900111306E+03  0.00000000000E+00 0.  1.
         15    1    5    5    0    0  0.15218363918E+03 -0.32559629552E+03  0.32679072218E+02  0.36089317974E+03  0.17770000000E+01 0. -1.
        -15    1    5    5    0    0  0.99566139038E+02 -0.23103382873E+03  0.10715674071E+03  0.27345158780E+03  0.17770000000E+01 0.  1.
          2    1    6    6  503    0 -0.34950295483E+02 -0.20656579789E+02 -0.37703233247E+02  0.55405335846E+02  0.00000000000E+00 0. -1.
         -2    1    6    6    0  503 -0.19130791376E+03 -0.77911835773E+02  0.23313642132E+02  0.20787616009E+03  0.00000000000E+00 0.  1.
<mgrwt>
<rscale>  0 0.76013881E+03</rscale>
<asrwt>0</asrwt>
<pdfrwt beam="1">  1        2 0.19177938E+00 0.76013881E+03</pdfrwt>
<pdfrwt beam="2">  1       -2 0.82338791E-01 0.76013881E+03</pdfrwt>
<totfact> 0.23442293E+01</totfact>
</mgrwt>
</event>
<event>
12    1  0.9321077E-008  0.1280238E+04  0.7818608E-02  0.9045385E-01
          1   -1    0    0  501    0  0.00000000000E+00  0.00000000000E+00  0.26280197522E+04  0.26280197522E+04  0.00000000000E+00 0. -1.
         -1   -1    0    0    0  501 -0.00000000000E+00 -0.00000000000E+00 -0.63264328234E+03  0.63264328234E+03  0.00000000000E+00 0.  1.
         23    2    1    2    0    0  0.10848079281E+04  0.55036133449E+03  0.87036593467E+03  0.14986134723E+04  0.92734242044E+02 0.  0.
    5000000    2    1    2    0    0 -0.10848079281E+04 -0.55036133449E+03  0.11250105352E+04  0.17620495622E+04  0.59955326369E+03 0.  0.
         23    2    4    4    0    0 -0.10394180692E+04 -0.29558200666E+03  0.87967781760E+03  0.13963813396E+04  0.91044700993E+02 0.  0.
         23    2    4    4    0    0 -0.45389858928E+02 -0.25477932783E+03  0.24533271755E+03  0.36566822258E+03  0.80946658522E+02 0.  0.
          2    1    3    3  502    0  0.72073310793E+03  0.38205062526E+03  0.53224814932E+03  0.97401590622E+03  0.00000000000E+00 0. -1.
         -2    1    3    3    0  502  0.36407482022E+03  0.16831070922E+03  0.33811778536E+03  0.52459756608E+03  0.00000000000E+00 0.  1.
         15    1    5    5    0    0 -0.33684832350E+03 -0.14044603095E+03  0.29742002673E+03  0.47080113709E+03  0.17770000000E+01 0.  1.
        -15    1    5    5    0    0 -0.70256974572E+03 -0.15513597571E+03  0.58225779087E+03  0.92558020253E+03  0.17770000000E+01 0. -1.
          3    1    6    6  503    0 -0.37260176505E+02 -0.17060264583E+03  0.21226763119E+03  0.27486565949E+03  0.00000000000E+00 0. -1.
         -3    1    6    6    0  503 -0.81296824225E+01 -0.84176681997E+02  0.33065086364E+02  0.90802563095E+02  0.00000000000E+00 0.  1.
<mgrwt>
<rscale>  0 0.12802384E+04</rscale>
<asrwt>0</asrwt>
<pdfrwt beam="1">  1        1 0.40431072E+00 0.12802384E+04</pdfrwt>
<pdfrwt beam="2">  1       -1 0.97329737E-01 0.12802384E+04</pdfrwt>
<totfact> 0.10974894E+00</totfact>
</mgrwt>
</event>
<event>
12    1  0.9321077E-008  0.1085359E+04  0.7818608E-02  0.9219581E-01
          2   -1    0    0  501    0  0.00000000000E+00  0.00000000000E+00  0.28014745588E+04  0.28014745588E+04  0.00000000000E+00 0. -1.
         -2   -1    0    0    0  501 -0.00000000000E+00 -0.00000000000E+00 -0.46766538637E+03  0.46766538637E+03  0.00000000000E+00 0.  1.
         23    2    1    2    0    0  0.10350501983E+04 -0.23412049221E+03  0.98186602886E+03  0.14486176592E+04  0.91054411725E+02 0.  0.
    5000000    2    1    2    0    0 -0.10350501983E+04  0.23412049221E+03  0.13519431436E+04  0.18205222860E+04  0.60034141321E+03 0.  0.
         23    2    4    4    0    0 -0.71169988103E+03  0.30556003136E+03  0.56771383504E+03  0.96455078358E+03  0.90418815553E+02 0.  0.
         23    2    4    4    0    0 -0.32335031732E+03 -0.71439539143E+02  0.78422930856E+03  0.85597150244E+03  0.89512955020E+02 0.  0.
          3    1    3    3  502    0  0.33379075796E+03 -0.11719089019E+03  0.34484193698E+03  0.49403029901E+03  0.00000000000E+00 0. -1.
         -3    1    3    3    0  502  0.70125944038E+03 -0.11692960203E+03  0.63702409188E+03  0.95458736017E+03  0.00000000000E+00 0.  1.
         15    1    5    5    0    0 -0.36961052479E+02  0.15238984519E+02  0.74103808234E+01  0.40699109603E+02  0.17770000000E+01 0. -1.
        -15    1    5    5    0    0 -0.67473882855E+03  0.29032104684E+03  0.56030345421E+03  0.92385167398E+03  0.17770000000E+01 0.  1.
          3    1    6    6  503    0 -0.60257381458E+02 -0.18941072639E+02  0.25398676203E+03  0.26172312000E+03  0.00000000000E+00 0. -1.
         -3    1    6    6    0  503 -0.26309293586E+03 -0.52498466504E+02  0.53024254653E+03  0.59424838244E+03  0.00000000000E+00 0.  1.
<mgrwt>
<rscale>  0 0.10853590E+04</rscale>
<asrwt>0</asrwt>
<pdfrwt beam="1">  1        2 0.43099608E+00 0.10853590E+04</pdfrwt>
<pdfrwt beam="2">  1       -2 0.71948522E-01 0.10853590E+04</pdfrwt>
<totfact> 0.40615064E+00</totfact>
</mgrwt>
</event>
<event>
12    1  0.9321077E-008  0.1690169E+04  0.7818608E-02  0.8766991E-01
         -1   -1    0    0    0  501 -0.00000000000E+00  0.00000000000E+00  0.12881687312E+04  0.12881687312E+04  0.00000000000E+00 0.  1.
          1   -1    0    0  501    0  0.00000000000E+00 -0.00000000000E+00 -0.26722568816E+04  0.26722568816E+04  0.00000000000E+00 0. -1.
         23    2    1    2    0    0 -0.13358463645E+04  0.10207119519E+04 -0.13770671044E+04  0.21754206923E+04  0.99010000752E+02 0.  0.
    5000000    2    1    2    0    0  0.13358463645E+04 -0.10207119519E+04 -0.70210459780E+01  0.17850049204E+04  0.59987904835E+03 0.  0.
         23    2    4    4    0    0  0.84767532156E+03 -0.76022474633E+03 -0.25926213663E+03  0.11713475430E+04  0.91340545654E+02 0.  0.
         23    2    4    4    0    0  0.48817104296E+03 -0.26048720554E+03  0.25224109065E+03  0.61365737745E+03  0.82372675408E+02 0.  0.
          2    1    3    3  502    0 -0.57323391789E+03  0.49310226429E+03 -0.64769911715E+03  0.99562096905E+03  0.00000000000E+00 0. -1.
         -2    1    3    3    0  502 -0.76261244662E+03  0.52760968758E+03 -0.72936798729E+03  0.11797997233E+04  0.00000000000E+00 0.  1.
         15    1    5    5    0    0  0.40138550573E+03 -0.38402520921E+03 -0.16946982365E+03  0.58078297528E+03  0.17770000000E+01 0. -1.
        -15    1    5    5    0    0  0.44628981583E+03 -0.37619953712E+03 -0.89792312984E+02  0.59056456771E+03  0.17770000000E+01 0.  1.
          3    1    6    6  503    0  0.64832456656E+02 -0.95443159446E+01  0.45989850502E+02  0.80058776859E+02  0.00000000000E+00 0. -1.
         -3    1    6    6    0  503  0.42333858630E+03 -0.25094288960E+03  0.20625124015E+03  0.53359860059E+03  0.00000000000E+00 0.  1.
<mgrwt>
<rscale>  0 0.16901688E+04</rscale>
<asrwt>0</asrwt>
<pdfrwt beam="1">  1        1 0.41111644E+00 0.16901688E+04</pdfrwt>
<pdfrwt beam="2">  1       -1 0.19817981E+00 0.16901688E+04</pdfrwt>
<totfact> 0.14714732E-01</totfact>
</mgrwt>
</event>
<event>
12    1  0.9321077E-008  0.9173302E+03  0.7818608E-02  0.9404173E-01
          1   -1    0    0  501    0  0.00000000000E+00  0.00000000000E+00  0.41288780293E+04  0.41288780293E+04  0.00000000000E+00 0. -1.
         -1   -1    0    0    0  501 -0.00000000000E+00 -0.00000000000E+00 -0.31137218297E+03  0.31137218297E+03  0.00000000000E+00 0.  1.
         23    2    1    2    0    0 -0.63800395359E+03  0.59867119446E+03  0.29233143573E+04  0.30527968761E+04  0.91354752762E+02 0.  0.
    5000000    2    1    2    0    0  0.63800395359E+03 -0.59867119446E+03  0.89419148906E+03  0.13874533363E+04  0.59999341439E+03 0.  0.
         23    2    4    4    0    0  0.50784176499E+03 -0.21294680880E+03  0.77264240975E+03  0.95280449904E+03  0.87238285203E+02 0.  0.
         23    2    4    4    0    0  0.13016218860E+03 -0.38572438566E+03  0.12154907931E+03  0.43464883722E+03  0.91760209109E+02 0.  0.
          4    1    3    3  502    0 -0.50815718581E+03  0.50359316781E+03  0.22769607535E+04  0.23867090474E+04  0.00000000000E+00 0. -1.
         -4    1    3    3    0  502 -0.12984676778E+03  0.95078026654E+02  0.64635360382E+03  0.66608782861E+03  0.00000000000E+00 0.  1.
         15    1    5    5    0    0  0.88725803205E+02 -0.46240595491E+02  0.20195090088E+03  0.22538363943E+03  0.17770000000E+01 0. -1.
        -15    1    5    5    0    0  0.41911596179E+03 -0.16670621331E+03  0.57069150886E+03  0.72742085961E+03  0.17770000000E+01 0.  1.
          3    1    6    6  503    0  0.64285011034E+02 -0.20341017178E+03  0.11108267524E+03  0.24051532460E+03  0.00000000000E+00 0. -1.
         -3    1    6    6    0  503  0.65877177566E+02 -0.18231421388E+03  0.10466404072E+02  0.19413351262E+03  0.00000000000E+00 0.  1.
<mgrwt>
<rscale>  0 0.91733020E+03</rscale>
<asrwt>0</asrwt>
<pdfrwt beam="1">  1        1 0.63521196E+00 0.91733020E+03</pdfrwt>
<pdfrwt beam="2">  1       -1 0.47903416E-01 0.91733020E+03</pdfrwt>
<totfact> 0.34453721E-01</totfact>
</mgrwt>
</event>
<event>
12    1  0.9321077E-008  0.1060771E+04  0.7818608E-02  0.9244293E-01
         -1   -1    0    0    0  501 -0.00000000000E+00  0.00000000000E+00  0.70414530413E+03  0.70414530413E+03  0.00000000000E+00 0.  1.
          1   -1    0    0  501    0  0.00000000000E+00 -0.00000000000E+00 -0.16515112318E+04  0.16515112318E+04  0.00000000000E+00 0. -1.
         23    2    1    2    0    0 -0.35116983073E+03 -0.92904441325E+03 -0.43723439997E+03  0.10882979863E+04  0.82309262984E+02 0.  0.
    5000000    2    1    2    0    0  0.35116983073E+03  0.92904441325E+03 -0.51013152771E+03  0.12673585496E+04  0.59959965463E+03 0.  0.
         23    2    4    4    0    0 -0.81549735533E+02  0.49161581769E+03 -0.83086648368E+02  0.51315179679E+03  0.89916093377E+02 0.  0.
         23    2    4    4    0    0  0.43271956626E+03  0.43742859556E+03 -0.42704487934E+03  0.75420675279E+03  0.88715825774E+02 0.  0.
          3    1    3    3  502    0 -0.21480733772E+03 -0.65799613021E+03 -0.32641785146E+03  0.76527754015E+03  0.00000000000E+00 0. -1.
         -3    1    3    3    0  502 -0.13636249301E+03 -0.27104828304E+03 -0.11081654851E+03  0.32302044620E+03  0.00000000000E+00 0.  1.
         15    1    5    5    0    0  0.16572971388E+02  0.51505068796E+02  0.24517992221E+01  0.54190446951E+02  0.17770000000E+01 0.  1.
        -15    1    5    5    0    0 -0.98122706921E+02  0.44011074889E+03 -0.85538447590E+02  0.45896134984E+03  0.17770000000E+01 0. -1.
          4    1    6    6  503    0  0.21669277878E+03  0.27767189588E+03 -0.26065218141E+03  0.43817462479E+03  0.00000000000E+00 0. -1.
         -4    1    6    6    0  503  0.21602678748E+03  0.15975669968E+03 -0.16639269793E+03  0.31603212800E+03  0.00000000000E+00 0.  1.
<mgrwt>
<rscale>  0 0.10607713E+04</rscale>
<asrwt>0</asrwt>
<pdfrwt beam="1">  1        1 0.25407865E+00 0.10607713E+04</pdfrwt>
<pdfrwt beam="2">  1       -1 0.10833005E+00 0.10607713E+04</pdfrwt>
<totfact> 0.40679409E+00</totfact>
</mgrwt>
</event>
<event>
12    1  0.9321077E-008  0.1087136E+04  0.7818608E-02  0.9217821E-01
          1   -1    0    0  501    0  0.00000000000E+00  0.00000000000E+00  0.83029780789E+03  0.83029780789E+03  0.00000000000E+00 0. -1.
         -1   -1    0    0    0  501 -0.00000000000E+00 -0.00000000000E+00 -0.14946000384E+04  0.14946000384E+04  0.00000000000E+00 0.  1.
         23    2    1    2    0    0  0.65435087956E+03  0.79294836840E+03 -0.23294371144E+03  0.10581792833E+04  0.92403649100E+02 0.  0.
    5000000    2    1    2    0    0 -0.65435087956E+03 -0.79294836840E+03 -0.43135851910E+03  0.12667185630E+04  0.60130155281E+03 0.  0.
         23    2    4    4    0    0 -0.67857775874E+03 -0.49771380428E+03 -0.44477027940E+03  0.95637615330E+03  0.92994298447E+02 0.  0.
         23    2    4    4    0    0  0.24226879179E+02 -0.29523456412E+03  0.13411760307E+02  0.31034240973E+03  0.91554062920E+02 0.  0.
          4    1    3    3  502    0  0.15559334381E+03  0.22995534057E+03 -0.30842800269E+02  0.27935644905E+03  0.00000000000E+00 0. -1.
         -4    1    3    3    0  502  0.49875753575E+03  0.56299302782E+03 -0.20210091117E+03  0.77882283424E+03  0.00000000000E+00 0.  1.
         15    1    5    5    0    0 -0.20028414817E+03 -0.19206095767E+03 -0.17344892454E+03  0.32724431030E+03  0.17770000000E+01 0. -1.
        -15    1    5    5    0    0 -0.47829361056E+03 -0.30565284660E+03 -0.27132135486E+03  0.62913184300E+03  0.17770000000E+01 0.  1.
          1    1    6    6  503    0  0.29685808286E+02 -0.10676001309E+03 -0.34018825830E+02  0.11591474505E+03  0.00000000000E+00 0. -1.
         -1    1    6    6    0  503 -0.54589291068E+01 -0.18847455103E+03  0.47430586137E+02  0.19442766468E+03  0.00000000000E+00 0.  1.
<mgrwt>
<rscale>  0 0.10871361E+04</rscale>
<asrwt>0</asrwt>
<pdfrwt beam="1">  1        1 0.12773813E+00 0.10871361E+04</pdfrwt>
<pdfrwt beam="2">  1       -1 0.22993847E+00 0.10871361E+04</pdfrwt>
<totfact> 0.19575306E+00</totfact>
</mgrwt>
</event>
<event>
12    1  0.9321077E-008  0.1172233E+04  0.7818608E-02  0.9137514E-01
         -1   -1    0    0    0  501 -0.00000000000E+00  0.00000000000E+00  0.11084282021E+04  0.11084282021E+04  0.00000000000E+00 0.  1.
          1   -1    0    0  501    0  0.00000000000E+00 -0.00000000000E+00 -0.21440165913E+04  0.21440165913E+04  0.00000000000E+00 0. -1.
         23    2    1    2    0    0  0.10858475335E+04  0.21543025409E+03 -0.15374729418E+04  0.18968491376E+04  0.93480178018E+02 0.  0.
    5000000    2    1    2    0    0 -0.10858475335E+04 -0.21543025409E+03  0.50188455268E+03  0.13555956558E+04  0.60023030350E+03 0.  0.
         23    2    4    4    0    0 -0.76987440234E+03  0.10651557087E+03  0.20999840033E+03  0.81003144342E+03  0.89439638749E+02 0.  0.
         23    2    4    4    0    0 -0.31597313121E+03 -0.32194582496E+03  0.29188615235E+03  0.54556421235E+03  0.94629012484E+02 0.  0.
          4    1    3    3  502    0  0.38943597916E+03  0.48978181142E+02 -0.48549875587E+03  0.62431425263E+03  0.00000000000E+00 0. -1.
         -4    1    3    3    0  502  0.69641155439E+03  0.16645207295E+03 -0.10519741859E+04  0.12725348850E+04  0.00000000000E+00 0.  1.
         15    1    5    5    0    0 -0.76179852016E+02  0.32531652890E+02  0.54587337359E+01  0.83033931594E+02  0.17770000000E+01 0.  1.
        -15    1    5    5    0    0 -0.69369455032E+03  0.73983917981E+02  0.20453966660E+03  0.72699751183E+03  0.17770000000E+01 0. -1.
          1    1    6    6  503    0 -0.27726975851E+03 -0.24804544307E+03  0.20358846593E+03  0.42409117448E+03  0.00000000000E+00 0. -1.
         -1    1    6    6    0  503 -0.38703372705E+02 -0.73900381888E+02  0.88297686419E+02  0.12147303787E+03  0.00000000000E+00 0.  1.
<mgrwt>
<rscale>  0 0.11722334E+04</rscale>
<asrwt>0</asrwt>
<pdfrwt beam="1">  1        1 0.32984871E+00 0.11722334E+04</pdfrwt>
<pdfrwt beam="2">  1       -1 0.17052742E+00 0.11722334E+04</pdfrwt>
<totfact> 0.57249012E-01</totfact>
</mgrwt>
</event>
<event>
12    1  0.9321077E-008  0.3516835E+03  0.7818608E-02  0.1061926E+00
          3   -1    0    0  501    0  0.00000000000E+00  0.00000000000E+00  0.10739045275E+04  0.10739045275E+04  0.00000000000E+00 0. -1.
         -3   -1    0    0    0  501 -0.00000000000E+00 -0.00000000000E+00 -0.14937474483E+03  0.14937474483E+03  0.00000000000E+00 0.  1.
         23    2    1    2    0    0 -0.12035851338E+02 -0.15502140063E+03  0.22885634326E+03  0.29154537322E+03  0.91907466628E+02 0.  0.
    5000000    2    1    2    0    0  0.12035851338E+02  0.15502140063E+03  0.69567343939E+03  0.93173389910E+03  0.59999169001E+03 0.  0.
         23    2    4    4    0    0 -0.39070927239E+01  0.33895550264E+03  0.61538415559E+03  0.70975311612E+03  0.10072600827E+03 0.  0.
         23    2    4    4    0    0  0.15942944062E+02 -0.18393410200E+03  0.80289283799E+02  0.22198078298E+03  0.93504906690E+02 0.  0.
          4    1    3    3  502    0 -0.16410658283E+02 -0.13955667945E+03  0.23543405028E+03  0.27417981056E+03  0.00000000000E+00 0. -1.
         -4    1    3    3    0  502  0.43748069449E+01 -0.15464721182E+02 -0.65777070169E+01  0.17365562664E+02  0.00000000000E+00 0.  1.
         15    1    5    5    0    0 -0.19849583763E+02  0.31226696351E+03  0.59580124673E+03  0.67296875545E+03  0.17770000000E+01 0.  1.
        -15    1    5    5    0    0  0.15942491040E+02  0.26688539125E+02  0.19582908862E+02  0.36784360667E+02  0.17770000000E+01 0. -1.
          4    1    6    6  503    0 -0.31799488708E+02 -0.11179777800E+03  0.23737605273E+02  0.11863146527E+03  0.00000000000E+00 0.  1.
         -4    1    6    6    0  503  0.47742432770E+02 -0.72136324003E+02  0.56551678525E+02  0.10334931771E+03  0.00000000000E+00 0. -1.
<mgrwt>
<rscale>  0 0.35168354E+03</rscale>
<asrwt>0</asrwt>
<pdfrwt beam="1">  1        3 0.16521608E+00 0.35168354E+03</pdfrwt>
<pdfrwt beam="2">  1       -3 0.22980731E-01 0.35168354E+03</pdfrwt>
<totfact> 0.11691994E+01</totfact>
</mgrwt>
</event>
<event>
12    1  0.9321077E-008  0.8096867E+03  0.7818608E-02  0.9546101E-01
          2   -1    0    0  501    0  0.00000000000E+00  0.00000000000E+00  0.28967704719E+04  0.28967704719E+04  0.00000000000E+00 0.  1.
         -2   -1    0    0    0  501 -0.00000000000E+00 -0.00000000000E+00 -0.27902908487E+03  0.27902908487E+03  0.00000000000E+00 0. -1.
         23    2    1    2    0    0 -0.70905281583E+03 -0.42998739357E+02  0.53315915504E+03  0.89324909498E+03  0.95028805348E+02 0.  0.
    5000000    2    1    2    0    0  0.70905281583E+03  0.42998739357E+02  0.20845822320E+04  0.22825504618E+04  0.59995728307E+03 0.  0.
         23    2    4    4    0    0  0.36379304773E+03  0.29547575118E+03  0.88305734151E+03  0.10038972629E+04  0.91477565579E+02 0.  0.
         23    2    4    4    0    0  0.34525976810E+03 -0.25247701183E+03  0.12015248905E+04  0.12786531989E+04  0.91339977912E+02 0.  0.
          1    1    3    3  502    0 -0.15135381691E+03 -0.43058793943E+02  0.93074329673E+02  0.18282469328E+03  0.00000000000E+00 0. -1.
         -1    1    3    3    0  502 -0.55769899892E+03  0.60054586041E-01  0.44008482537E+03  0.71042440170E+03  0.00000000000E+00 0.  1.
         15    1    5    5    0    0  0.19300323287E+03  0.13812970799E+03  0.53732607691E+03  0.58741172510E+03  0.17770000000E+01 0.  1.
        -15    1    5    5    0    0  0.17078981487E+03  0.15734604319E+03  0.34573126460E+03  0.41648553783E+03  0.17770000000E+01 0. -1.
          4    1    6    6  503    0  0.20322205989E+03 -0.19458241661E+03  0.70855376374E+03  0.76237127346E+03  0.00000000000E+00 0. -1.
         -4    1    6    6    0  503  0.14203770821E+03 -0.57894595219E+02  0.49297112679E+03  0.51628192546E+03  0.00000000000E+00 0.  1.
<mgrwt>
<rscale>  0 0.80968670E+03</rscale>
<asrwt>0</asrwt>
<pdfrwt beam="1">  1        2 0.44565697E+00 0.80968670E+03</pdfrwt>
<pdfrwt beam="2">  1       -2 0.42927554E-01 0.80968670E+03</pdfrwt>
<totfact> 0.10893243E+01</totfact>
</mgrwt>
</event>
<event>
12    1  0.9321077E-008  0.9032067E+03  0.7818608E-02  0.9421582E-01
         -2   -1    0    0    0  501 -0.00000000000E+00  0.00000000000E+00  0.15826344586E+04  0.15826344586E+04  0.00000000000E+00 0.  1.
          2   -1    0    0  501    0  0.00000000000E+00 -0.00000000000E+00 -0.59799888369E+03  0.59799888369E+03  0.00000000000E+00 0. -1.
         23    2    1    2    0    0  0.68322524681E+03  0.54601541375E+03  0.52825877732E+03  0.10260636345E+04  0.93913131938E+02 0.  0.
    5000000    2    1    2    0    0 -0.68322524681E+03 -0.54601541375E+03  0.45637679757E+03  0.11545697077E+04  0.59985153056E+03 0.  0.
         23    2    4    4    0    0 -0.21100728643E+03 -0.32543020026E+02  0.38094528108E+03  0.44619520084E+03  0.91584534721E+02 0.  0.
         23    2    4    4    0    0 -0.47221796039E+03 -0.51347239373E+03  0.75431516495E+02  0.70837450689E+03  0.97266783159E+02 0.  0.
          4    1    3    3  502    0  0.37865830233E+03  0.36139020416E+03  0.30968332371E+03  0.60818479968E+03  0.00000000000E+00 0. -1.
         -4    1    3    3    0  502  0.30456694448E+03  0.18462520959E+03  0.21857545361E+03  0.41787883485E+03  0.00000000000E+00 0.  1.
         15    1    5    5    0    0 -0.93009078076E+01 -0.24767196233E+02  0.75970160249E+02  0.80464550409E+02  0.17770000000E+01 0. -1.
        -15    1    5    5    0    0 -0.20170637862E+03 -0.77758237926E+01  0.30497512083E+03  0.36573065043E+03  0.17770000000E+01 0.  1.
          1    1    6    6  503    0 -0.38304626735E+02 -0.28879258554E+02 -0.17982472156E+02  0.51231097088E+02  0.00000000000E+00 0. -1.
         -1    1    6    6    0  503 -0.43391333365E+03 -0.48459313517E+03  0.93413988651E+02  0.65714340981E+03  0.00000000000E+00 0.  1.
<mgrwt>
<rscale>  0 0.90320671E+03</rscale>
<asrwt>0</asrwt>
<pdfrwt beam="1">  1        2 0.91999829E-01 0.90320671E+03</pdfrwt>
<pdfrwt beam="2">  1       -2 0.24348222E+00 0.90320671E+03</pdfrwt>
<totfact> 0.35411517E+00</totfact>
</mgrwt>
</event>
<event>
12    1  0.9321077E-008  0.7138654E+03  0.7818608E-02  0.9693810E-01
         -2   -1    0    0    0  501 -0.00000000000E+00  0.00000000000E+00  0.27301744735E+03  0.27301744735E+03  0.00000000000E+00 0.  1.
          2   -1    0    0  501    0  0.00000000000E+00 -0.00000000000E+00 -0.26227033648E+04  0.26227033648E+04  0.00000000000E+00 0. -1.
         23    2    1    2    0    0  0.57679345288E+03 -0.20486841132E+03 -0.17318389354E+04  0.18390988144E+04  0.91414427904E+02 0.  0.
    5000000    2    1    2    0    0 -0.57679345288E+03  0.20486841132E+03 -0.61784698212E+03  0.10566219978E+04  0.60004449814E+03 0.  0.
         23    2    4    4    0    0 -0.63674560509E+03  0.28637756509E+03 -0.42851845811E+03  0.82419227670E+03  0.90596714293E+02 0.  0.
         23    2    4    4    0    0  0.59952152211E+02 -0.81509153774E+02 -0.18932852401E+03  0.23242972113E+03  0.89108263123E+02 0.  0.
          4    1    3    3  502    0  0.10495468701E+03 -0.75116849258E+01 -0.24098208033E+03  0.26295298967E+03  0.00000000000E+00 0. -1.
         -4    1    3    3    0  502  0.47183876587E+03 -0.19735672639E+03 -0.14908568550E+04  0.15761458247E+04  0.00000000000E+00 0.  1.
         15    1    5    5    0    0 -0.13153187032E+03  0.10106481932E+03 -0.10351893149E+03  0.19553531016E+03  0.17770000000E+01 0. -1.
        -15    1    5    5    0    0 -0.50521373477E+03  0.18531274578E+03 -0.32499952662E+03  0.62865696654E+03  0.17770000000E+01 0.  1.
          2    1    6    6  503    0  0.27499065481E+02 -0.11368281788E+02 -0.13429669197E+03  0.13755376369E+03  0.00000000000E+00 0. -1.
         -2    1    6    6    0  503  0.32453086730E+02 -0.70140871986E+02 -0.55031832044E+02  0.94875957436E+02  0.00000000000E+00 0.  1.
<mgrwt>
<rscale>  0 0.71386537E+03</rscale>
<asrwt>0</asrwt>
<pdfrwt beam="1">  1        2 0.40349284E+00 0.71386537E+03</pdfrwt>
<pdfrwt beam="2">  1       -2 0.42002683E-01 0.71386537E+03</pdfrwt>
<totfact> 0.16740414E+01</totfact>
</mgrwt>
</event>
<event>
12    1  0.9321077E-008  0.9213125E+03  0.7818608E-02  0.9399325E-01
         -2   -1    0    0    0  501 -0.00000000000E+00  0.00000000000E+00  0.18659167557E+04  0.18659167557E+04  0.00000000000E+00 0. -1.
          2   -1    0    0  501    0  0.00000000000E+00 -0.00000000000E+00 -0.52041253069E+03  0.52041253069E+03  0.00000000000E+00 0.  1.
         23    2    1    2    0    0  0.34124016763E+03  0.82313492844E+03  0.65485422866E+03  0.11095099899E+04  0.90456589272E+02 0.  0.
    5000000    2    1    2    0    0 -0.34124016763E+03 -0.82313492844E+03  0.69064999633E+03  0.12768192964E+04  0.59939480803E+03 0.  0.
         23    2    4    4    0    0 -0.31162489786E+03 -0.80275261908E+03  0.76546261698E+03  0.11557951707E+04  0.91693043982E+02 0.  0.
         23    2    4    4    0    0 -0.29615269770E+02 -0.20382309363E+02 -0.74812620652E+02  0.12102412569E+03  0.88076149167E+02 0.  0.
          2    1    3    3  502    0  0.79523807721E+02  0.24950127875E+03  0.23624242261E+03  0.35268315289E+03  0.00000000000E+00 0. -1.
         -2    1    3    3    0  502  0.26171635991E+03  0.57363364969E+03  0.41861180605E+03  0.75682683704E+03  0.00000000000E+00 0.  1.
         15    1    5    5    0    0 -0.13326648985E+03 -0.33144246058E+03  0.37824327239E+03  0.52027415161E+03  0.17770000000E+01 0.  1.
        -15    1    5    5    0    0 -0.17835840801E+03 -0.47131015849E+03  0.38721934459E+03  0.63552101914E+03  0.17770000000E+01 0. -1.
          3    1    6    6  503    0 -0.32303392794E+02 -0.49894020454E+02 -0.68559495999E+02  0.90737682110E+02  0.00000000000E+00 0. -1.
         -3    1    6    6    0  503  0.26881230238E+01  0.29511711091E+02 -0.62531246526E+01  0.30286443582E+02  0.00000000000E+00 0.  1.
<mgrwt>
<rscale>  0 0.92131255E+03</rscale>
<asrwt>0</asrwt>
<pdfrwt beam="1">  1        2 0.80063467E-01 0.92131255E+03</pdfrwt>
<pdfrwt beam="2">  1       -2 0.28706411E+00 0.92131255E+03</pdfrwt>
<totfact> 0.22728895E+00</totfact>
</mgrwt>
</event>
<event>
12    1  0.9321077E-008  0.7714580E+03  0.7818608E-02  0.9602275E-01
          2   -1    0    0  501    0  0.00000000000E+00  0.00000000000E+00  0.90329096505E+03  0.90329096505E+03  0.00000000000E+00 0. -1.
         -2   -1    0    0    0  501 -0.00000000000E+00 -0.00000000000E+00 -0.96167049288E+03  0.96167049288E+03  0.00000000000E+00 0.  1.
         23    2    1    2    0    0  0.49434258792E+02  0.75761325918E+03 -0.36882717637E+03  0.84870029080E+03  0.88527403332E+02 0.  0.
    5000000    2    1    2    0    0 -0.49434258792E+02 -0.75761325918E+03  0.31044764855E+03  0.10162611671E+04  0.59998951732E+03 0.  0.
         23    2    4    4    0    0  0.35297943622E+02 -0.27175506434E+03 -0.15929920309E+03  0.32930935372E+03  0.89284122462E+02 0.  0.
         23    2    4    4    0    0 -0.84732202414E+02 -0.48585819484E+03  0.46974685164E+03  0.68695181341E+03  0.89459251576E+02 0.  0.
          2    1    3    3  502    0  0.30802913814E+02  0.49626972849E+03 -0.19405196933E+03  0.53374959458E+03  0.00000000000E+00 0. -1.
         -2    1    3    3    0  502  0.18631344978E+02  0.26134353069E+03 -0.17477520705E+03  0.31495069622E+03  0.00000000000E+00 0.  1.
         15    1    5    5    0    0  0.60485832199E+02 -0.18292005208E+03 -0.12997715871E+03  0.23241235093E+03  0.17770000000E+01 0. -1.
        -15    1    5    5    0    0 -0.25187888577E+02 -0.88835012254E+02 -0.29322044385E+02  0.96897002787E+02  0.17770000000E+01 0.  1.
          3    1    6    6  503    0 -0.57485972655E+02 -0.44984220026E+03  0.44540743841E+03  0.63564961133E+03  0.00000000000E+00 0. -1.
         -3    1    6    6    0  503 -0.27246229758E+02 -0.36015994580E+02  0.24339413231E+02  0.51302202078E+02  0.00000000000E+00 0.  1.
<mgrwt>
<rscale>  0 0.77145805E+03</rscale>
<asrwt>0</asrwt>
<pdfrwt beam="1">  1        2 0.13896784E+00 0.77145805E+03</pdfrwt>
<pdfrwt beam="2">  1       -2 0.14794931E+00 0.77145805E+03</pdfrwt>
<totfact> 0.91971712E+00</totfact>
</mgrwt>
</event>
<event>
12    1  0.9321077E-008  0.2356945E+04  0.7818608E-02  0.8455801E-01
          2   -1    0    0  501    0  0.00000000000E+00  0.00000000000E+00  0.26001447771E+04  0.26001447771E+04  0.00000000000E+00 0. -1.
         -2   -1    0    0    0  501 -0.00000000000E+00 -0.00000000000E+00 -0.24446786772E+04  0.24446786772E+04  0.00000000000E+00 0.  1.
         23    2    1    2    0    0  0.41182299106E+03 -0.23182438537E+04  0.87052268304E+03  0.25120141469E+04  0.92480223626E+02 0.  0.
    5000000    2    1    2    0    0 -0.41182299106E+03  0.23182438537E+04 -0.71505658314E+03  0.25328093074E+04  0.59997027406E+03 0.  0.
         23    2    4    4    0    0 -0.56310066169E+02  0.63420822032E+03 -0.45986934548E+03  0.79054509347E+03  0.89949094627E+02 0.  0.
         23    2    4    4    0    0 -0.35551292489E+03  0.16840356333E+04 -0.25518723766E+03  0.17422642140E+04  0.89434953359E+02 0.  0.
          1    1    3    3  502    0  0.22875561367E+03 -0.13762142528E+04  0.47009230062E+03  0.14721690023E+04  0.00000000000E+00 0. -1.
         -1    1    3    3    0  502  0.18306737739E+03 -0.94202960089E+03  0.40043038241E+03  0.10398451446E+04  0.00000000000E+00 0.  1.
         15    1    5    5    0    0  0.49406951137E+01  0.60071333011E+02 -0.16380011931E+02  0.62485502621E+02  0.17770000000E+01 0.  1.
        -15    1    5    5    0    0 -0.61250761283E+02  0.57413688731E+03 -0.44348933355E+03  0.72805959085E+03  0.17770000000E+01 0. -1.
          4    1    6    6  503    0 -0.35615166403E+03  0.16784638690E+04 -0.24882275632E+03  0.17337813389E+04  0.00000000000E+00 0. -1.
         -4    1    6    6    0  503  0.63873913644E+00  0.55717643821E+01 -0.63644813418E+01  0.84828750294E+01  0.00000000000E+00 0.  1.
<mgrwt>
<rscale>  0 0.23569446E+04</rscale>
<asrwt>0</asrwt>
<pdfrwt beam="1">  1        2 0.40002227E+00 0.23569446E+04</pdfrwt>
<pdfrwt beam="2">  1       -2 0.37610441E+00 0.23569446E+04</pdfrwt>
<totfact> 0.27481426E-02</totfact>
</mgrwt>
</event>
<event>
12    1  0.9321077E-008  0.1895940E+04  0.7818608E-02  0.8656880E-01
         -2   -1    0    0    0  501 -0.00000000000E+00  0.00000000000E+00  0.82096103331E+03  0.82096103331E+03  0.00000000000E+00 0.  1.
          2   -1    0    0  501    0  0.00000000000E+00 -0.00000000000E+00 -0.52449833167E+04  0.52449833167E+04  0.00000000000E+00 0. -1.
         23    2    1    2    0    0  0.18906770598E+04 -0.43536607289E+02 -0.32478343203E+04  0.37594359988E+04  0.91520907614E+02 0.  0.
    5000000    2    1    2    0    0 -0.18906770598E+04  0.43536607289E+02 -0.11761879631E+04  0.23065083512E+04  0.60000622417E+03 0.  0.
         23    2    4    4    0    0 -0.89105403888E+03  0.85557949807E+02 -0.23513959627E+03  0.92997914474E+03  0.90956676148E+02 0.  0.
         23    2    4    4    0    0 -0.99962302092E+03 -0.42021342518E+02 -0.94104836685E+03  0.13765292065E+04  0.90822080865E+02 0.  0.
          4    1    3    3  502    0  0.31320394006E+03  0.11919091002E+02 -0.48390334765E+03  0.57654247256E+03  0.00000000000E+00 0. -1.
         -4    1    3    3    0  502  0.15774731197E+04 -0.55455698290E+02 -0.27639309726E+04  0.31828935263E+04  0.00000000000E+00 0.  1.
         15    1    5    5    0    0 -0.39135990640E+03  0.49962816557E+02 -0.58864597895E+02  0.39890733008E+03  0.17770000000E+01 0. -1.
        -15    1    5    5    0    0 -0.49969413248E+03  0.35595133249E+02 -0.17627499837E+03  0.53107181466E+03  0.17770000000E+01 0.  1.
          3    1    6    6  503    0 -0.28751107732E+03  0.28409104905E+02 -0.28042260936E+03  0.40262456043E+03  0.00000000000E+00 0. -1.
         -3    1    6    6    0  503 -0.71211194360E+03 -0.70430447423E+02 -0.66062575749E+03  0.97390464605E+03  0.00000000000E+00 0.  1.
<mgrwt>
<rscale>  0 0.18959398E+04</rscale>
<asrwt>0</asrwt>
<pdfrwt beam="1">  1        2 0.80692049E+00 0.18959398E+04</pdfrwt>
<pdfrwt beam="2">  1       -2 0.12630170E+00 0.18959398E+04</pdfrwt>
<totfact> 0.69406740E-03</totfact>
</mgrwt>
</event>
<event>
12    1  0.9321077E-008  0.8886760E+03  0.7818608E-02  0.9439849E-01
         -2   -1    0    0    0  501 -0.00000000000E+00  0.00000000000E+00  0.14275370086E+04  0.14275370086E+04  0.00000000000E+00 0. -1.
          2   -1    0    0  501    0  0.00000000000E+00 -0.00000000000E+00 -0.85715438311E+03  0.85715438311E+03  0.00000000000E+00 0.  1.
         23    2    1    2    0    0 -0.48784876069E+03  0.70132780949E+03 -0.31536641052E+03  0.91568335754E+03  0.95723188068E+02 0.  0.
    5000000    2    1    2    0    0  0.48784876069E+03 -0.70132780949E+03  0.88574903597E+03  0.13690080341E+04  0.59981208148E+03 0.  0.
         23    2    4    4    0    0  0.50118919195E+03 -0.59237399372E+03  0.43305007463E+03  0.89403616447E+03  0.98339929251E+02 0.  0.
         23    2    4    4    0    0 -0.13340431261E+02 -0.10895381577E+03  0.45269896134E+03  0.47497186965E+03  0.92806391385E+02 0.  0.
          1    1    3    3  502    0 -0.15243719051E+03  0.21109475701E+03 -0.14359546958E+03  0.29735122729E+03  0.00000000000E+00 0. -1.
         -1    1    3    3    0  502 -0.33541157017E+03  0.49023305248E+03 -0.17177094093E+03  0.61833213025E+03  0.00000000000E+00 0.  1.
         15    1    5    5    0    0  0.14486383703E+03 -0.24288923475E+03  0.16713392516E+03  0.32850817083E+03  0.17770000000E+01 0. -1.
        -15    1    5    5    0    0  0.35632535492E+03 -0.34948475897E+03  0.26591614947E+03  0.56552799364E+03  0.17770000000E+01 0.  1.
          4    1    6    6  503    0  0.37946234304E+02 -0.52551361058E+02  0.25429313391E+03  0.26242438949E+03  0.00000000000E+00 0. -1.
         -4    1    6    6    0  503 -0.51286665564E+02 -0.56402454716E+02  0.19840582743E+03  0.21254748015E+03  0.00000000000E+00 0.  1.
<mgrwt>
<rscale>  0 0.88867602E+03</rscale>
<asrwt>0</asrwt>
<pdfrwt beam="1">  1        2 0.13186991E+00 0.88867602E+03</pdfrwt>
<pdfrwt beam="2">  1       -2 0.21962108E+00 0.88867602E+03</pdfrwt>
<totfact> 0.31398742E+00</totfact>
</mgrwt>
</event>
<event>
12    1  0.9321077E-008  0.1109291E+04  0.7818608E-02  0.9196184E-01
         -1   -1    0    0    0  501 -0.00000000000E+00  0.00000000000E+00  0.47729020360E+03  0.47729020360E+03  0.00000000000E+00 0.  1.
          1   -1    0    0  501    0  0.00000000000E+00 -0.00000000000E+00 -0.28580004315E+04  0.28580004315E+04  0.00000000000E+00 0. -1.
         23    2    1    2    0    0 -0.37690758403E+03  0.97804953959E+03 -0.15331918899E+04  0.18595154644E+04  0.92087798057E+02 0.  0.
    5000000    2    1    2    0    0  0.37690758403E+03 -0.97804953959E+03 -0.84751833806E+03  0.14757751707E+04  0.60082009976E+03 0.  0.
         23    2    4    4    0    0  0.37976004678E+03 -0.28198274770E+03 -0.20163330649E+03  0.52190449772E+03  0.89422320005E+02 0.  0.
         23    2    4    4    0    0 -0.28524627578E+01 -0.69606679188E+03 -0.64588503157E+03  0.95387067297E+03  0.90469173926E+02 0.  0.
          3    1    3    3  502    0 -0.28880533913E+03  0.70065926195E+03 -0.11716214625E+04  0.13953597302E+04  0.00000000000E+00 0.  1.
         -3    1    3    3    0  502 -0.88102244892E+02  0.27739027764E+03 -0.36157042738E+03  0.46415573425E+03  0.00000000000E+00 0. -1.
         15    1    5    5    0    0  0.12366393071E+03 -0.10379343889E+03 -0.11461256000E+03  0.19800263219E+03  0.17770000000E+01 0.  1.
        -15    1    5    5    0    0  0.25609611607E+03 -0.17818930881E+03 -0.87020746489E+02  0.32390186552E+03  0.17770000000E+01 0. -1.
          3    1    6    6  503    0 -0.89655474563E+01 -0.34298785340E+03 -0.25776700816E+03  0.42914435697E+03  0.00000000000E+00 0. -1.
         -3    1    6    6    0  503  0.61130846985E+01 -0.35307893848E+03 -0.38811802341E+03  0.52472631600E+03  0.00000000000E+00 0.  1.
<mgrwt>
<rscale>  0 0.11092907E+04</rscale>
<asrwt>0</asrwt>
<pdfrwt beam="1">  1        1 0.43969237E+00 0.11092907E+04</pdfrwt>
<pdfrwt beam="2">  1       -1 0.73429263E-01 0.11092907E+04</pdfrwt>
<totfact> 0.14280114E+00</totfact>
</mgrwt>
</event>
<event>
12    1  0.9321077E-008  0.9121415E+03  0.7818608E-02  0.9410530E-01
         -1   -1    0    0    0  501 -0.00000000000E+00  0.00000000000E+00  0.16456620108E+03  0.16456620108E+03  0.00000000000E+00 0.  1.
          1   -1    0    0  501    0  0.00000000000E+00 -0.00000000000E+00 -0.51924803422E+04  0.51924803422E+04  0.00000000000E+00 0. -1.
         23    2    1    2    0    0  0.76865727240E+03  0.29725045140E+03 -0.22970859917E+04  0.24421412479E+04  0.90873475228E+02 0.  0.
    5000000    2    1    2    0    0 -0.76865727240E+03 -0.29725045140E+03 -0.27308281495E+04  0.29149052954E+04  0.60004888613E+03 0.  0.
         23    2    4    4    0    0 -0.72238692895E+03 -0.32180121350E+02 -0.18108710584E+04  0.19520719088E+04  0.91936453076E+02 0.  0.
         23    2    4    4    0    0 -0.46270343447E+02 -0.26507033005E+03 -0.91995709102E+03  0.96283338658E+03  0.91235171075E+02 0.  0.
          4    1    3    3  502    0  0.37366995242E+03  0.14732444725E+03 -0.98631048086E+03  0.10649610748E+04  0.00000000000E+00 0. -1.
         -4    1    3    3    0  502  0.39498731997E+03  0.14992600415E+03 -0.13107755108E+04  0.13771801732E+04  0.00000000000E+00 0.  1.
         15    1    5    5    0    0 -0.29688435887E+03 -0.58366641368E+02 -0.76188431119E+03  0.81976694782E+03  0.17770000000E+01 0. -1.
        -15    1    5    5    0    0 -0.42550257008E+03  0.26186520018E+02 -0.10489867472E+04  0.11323049610E+04  0.17770000000E+01 0.  1.
          1    1    6    6  503    0 -0.34076390041E+02 -0.98359081436E+02 -0.50220918408E+03  0.51288378200E+03  0.00000000000E+00 0. -1.
         -1    1    6    6    0  503 -0.12193953406E+02 -0.16671124861E+03 -0.41774790694E+03  0.44994960458E+03  0.00000000000E+00 0.  1.
<mgrwt>
<rscale>  0 0.91214147E+03</rscale>
<asrwt>0</asrwt>
<pdfrwt beam="1">  1        1 0.79884320E+00 0.91214147E+03</pdfrwt>
<pdfrwt beam="2">  1       -1 0.25317875E-01 0.91214147E+03</pdfrwt>
<totfact> 0.73516858E-02</totfact>
</mgrwt>
</event>
<event>
12    1  0.9321077E-008  0.1531210E+04  0.7818608E-02  0.8863960E-01
         -1   -1    0    0    0  501 -0.00000000000E+00  0.00000000000E+00  0.23807535734E+04  0.23807535734E+04  0.00000000000E+00 0.  1.
          1   -1    0    0  501    0  0.00000000000E+00 -0.00000000000E+00 -0.15693281088E+04  0.15693281088E+04  0.00000000000E+00 0. -1.
         23    2    1    2    0    0 -0.48387868538E+03 -0.14290135302E+04 -0.75890503317E+03  0.16912857685E+04  0.91062888553E+02 0.  0.
    5000000    2    1    2    0    0  0.48387868538E+03  0.14290135302E+04  0.15703304978E+04  0.22587959137E+04  0.60000237983E+03 0.  0.
         23    2    4    4    0    0  0.45144509023E+03  0.14022747001E+04  0.15766622853E+04  0.21596665922E+04  0.90104513319E+02 0.  0.
         23    2    4    4    0    0  0.32433595155E+02  0.26738830030E+02 -0.63317875785E+01  0.99129321460E+02  0.89552374135E+02 0.  0.
          1    1    3    3  502    0 -0.11251090566E+03 -0.22980155004E+03 -0.13876737863E+03  0.29107360179E+03  0.00000000000E+00 0. -1.
         -1    1    3    3    0  502 -0.37136777973E+03 -0.11992119801E+04 -0.62013765454E+03  0.14002121667E+04  0.00000000000E+00 0.  1.
         15    1    5    5    0    0  0.16291434661E+03  0.61818526610E+03  0.64197854513E+03  0.90599874044E+03  0.17770000000E+01 0. -1.
        -15    1    5    5    0    0  0.28853074362E+03  0.78408943405E+03  0.93468374021E+03  0.12536678518E+04  0.17770000000E+01 0.  1.
          4    1    6    6  503    0 -0.15932733822E+02  0.22836311865E+02 -0.33465272695E+02  0.43534740417E+02  0.00000000000E+00 0. -1.
         -4    1    6    6    0  503  0.48366328977E+02  0.39025181649E+01  0.27133485117E+02  0.55594581043E+02  0.00000000000E+00 0.  1.
<mgrwt>
<rscale>  0 0.15312101E+04</rscale>
<asrwt>0</asrwt>
<pdfrwt beam="1">  1        1 0.24143509E+00 0.15312101E+04</pdfrwt>
<pdfrwt beam="2">  1       -1 0.36626978E+00 0.15312101E+04</pdfrwt>
<totfact> 0.66818676E-02</totfact>
</mgrwt>
</event>
<event>
12    1  0.9321077E-008  0.1505490E+04  0.7818608E-02  0.8880810E-01
         -2   -1    0    0    0  501 -0.00000000000E+00  0.00000000000E+00  0.17511459663E+04  0.17511459663E+04  0.00000000000E+00 0.  1.
          2   -1    0    0  501    0  0.00000000000E+00 -0.00000000000E+00 -0.19480653931E+04  0.19480653931E+04  0.00000000000E+00 0. -1.
         23    2    1    2    0    0 -0.14737399659E+04  0.28636418774E+03 -0.10849497540E+04  0.18545509881E+04  0.91265894601E+02 0.  0.
    5000000    2    1    2    0    0  0.14737399659E+04 -0.28636418774E+03  0.88803032721E+03  0.18446603714E+04  0.60021670135E+03 0.  0.
         23    2    4    4    0    0  0.11790347093E+04 -0.23327453202E+03  0.93584727796E+03  0.15260995172E+04  0.92896478417E+02 0.  0.
         23    2    4    4    0    0  0.29470525662E+03 -0.53089655719E+02 -0.47816950753E+02  0.31856085419E+03  0.97595375008E+02 0.  0.
          3    1    3    3  502    0 -0.84886837997E+03  0.21036490222E+03 -0.63855531401E+03  0.10828590895E+04  0.00000000000E+00 0. -1.
         -3    1    3    3    0  502 -0.62487158592E+03  0.75999285519E+02 -0.44639443998E+03  0.77169189858E+03  0.00000000000E+00 0.  1.
         15    1    5    5    0    0  0.70037169047E+03 -0.14182729882E+03  0.49831803897E+03  0.87118282421E+03  0.17770000000E+01 0.  1.
        -15    1    5    5    0    0  0.47866301881E+03 -0.91447233201E+02  0.43752923899E+03  0.65491669297E+03  0.17770000000E+01 0. -1.
          3    1    6    6  503    0  0.49163104039E+02  0.12826970616E+02  0.21306546728E+02  0.55095470843E+02  0.00000000000E+00 0. -1.
         -3    1    6    6    0  503  0.24554215258E+03 -0.65916626334E+02 -0.69123497481E+02  0.26346538335E+03  0.00000000000E+00 0.  1.
<mgrwt>
<rscale>  0 0.15054902E+04</rscale>
<asrwt>0</asrwt>
<pdfrwt beam="1">  1        2 0.29970237E+00 0.15054902E+04</pdfrwt>
<pdfrwt beam="2">  1       -2 0.26940707E+00 0.15054902E+04</pdfrwt>
<totfact> 0.32702931E-01</totfact>
</mgrwt>
</event>
<event>
12    1  0.9321077E-008  0.8406603E+03  0.7818608E-02  0.9502959E-01
          1   -1    0    0  501    0  0.00000000000E+00  0.00000000000E+00  0.74227261742E+03  0.74227261742E+03  0.00000000000E+00 0. -1.
         -1   -1    0    0    0  501 -0.00000000000E+00 -0.00000000000E+00 -0.11685554581E+04  0.11685554581E+04  0.00000000000E+00 0.  1.
         23    2    1    2    0    0 -0.56102678408E+03 -0.58680826048E+03 -0.37839178567E+03  0.90020297676E+03  0.89944810235E+02 0.  0.
    5000000    2    1    2    0    0  0.56102678408E+03  0.58680826048E+03 -0.47891054980E+02  0.10106250987E+04  0.59997879130E+03 0.  0.
         23    2    4    4    0    0  0.40421720108E+03  0.56807055513E+03  0.17338723087E+03  0.72411154375E+03  0.90436136113E+02 0.  0.
         23    2    4    4    0    0  0.15680958299E+03  0.18737705354E+02 -0.22127828585E+03  0.28651355497E+03  0.90474253092E+02 0.  0.
          3    1    3    3  502    0 -0.40590667423E+03 -0.41943821196E+03 -0.22658673315E+03  0.62612314242E+03  0.00000000000E+00 0. -1.
         -3    1    3    3    0  502 -0.15512010985E+03 -0.16737004852E+03 -0.15180505252E+03  0.27407983434E+03  0.00000000000E+00 0.  1.
         15    1    5    5    0    0  0.28220143662E+03  0.41271146623E+03  0.82810102088E+02  0.50678306594E+03  0.17770000000E+01 0. -1.
        -15    1    5    5    0    0  0.12201576446E+03  0.15535908889E+03  0.90577128787E+02  0.21732847781E+03  0.17770000000E+01 0.  1.
          4    1    6    6  503    0  0.82904009966E+02 -0.24293587429E+02 -0.64092138641E+02  0.10756884072E+03  0.00000000000E+00 0.  1.
         -4    1    6    6    0  503  0.73905573029E+02  0.43031292783E+02 -0.15718614721E+03  0.17894471425E+03  0.00000000000E+00 0. -1.
<mgrwt>
<rscale>  0 0.84066025E+03</rscale>
<asrwt>0</asrwt>
<pdfrwt beam="1">  1        1 0.11419579E+00 0.84066025E+03</pdfrwt>
<pdfrwt beam="2">  1       -1 0.17977776E+00 0.84066025E+03</pdfrwt>
<totfact> 0.53153194E+00</totfact>
</mgrwt>
</event>
<event>
12    1  0.9321077E-008  0.1433960E+04  0.7818608E-02  0.8929597E-01
          2   -1    0    0  501    0  0.00000000000E+00  0.00000000000E+00  0.16748626969E+04  0.16748626969E+04  0.00000000000E+00 0. -1.
         -2   -1    0    0    0  501 -0.00000000000E+00 -0.00000000000E+00 -0.12924189510E+04  0.12924189510E+04  0.00000000000E+00 0.  1.
         23    2    1    2    0    0  0.12232241773E+04 -0.67794065473E+03  0.35467310162E+03  0.14452360406E+04  0.83864681582E+02 0.  0.
    5000000    2    1    2    0    0 -0.12232241773E+04  0.67794065473E+03  0.27770644266E+02  0.15220456074E+04  0.59997558538E+03 0.  0.
         23    2    4    4    0    0 -0.11642988781E+04  0.53275145246E+03 -0.11466664648E+03  0.12887174042E+04  0.90708988262E+02 0.  0.
         23    2    4    4    0    0 -0.58925299191E+02  0.14518920227E+03  0.14243729075E+03  0.23332820315E+03  0.97987617829E+02 0.  0.
          1    1    3    3  502    0  0.71069321066E+03 -0.43692634178E+03  0.22838783682E+03  0.86495691906E+03  0.00000000000E+00 0. -1.
         -1    1    3    3    0  502  0.51253096661E+03 -0.24101431295E+03  0.12628526480E+03  0.58027912154E+03  0.00000000000E+00 0.  1.
         15    1    5    5    0    0 -0.10177308219E+04  0.43143921682E+03 -0.96420885652E+02  0.11096017162E+04  0.17770000000E+01 0. -1.
        -15    1    5    5    0    0 -0.14656805615E+03  0.10131223565E+03 -0.18245760830E+02  0.17911568801E+03  0.17770000000E+01 0.  1.
          1    1    6    6  503    0 -0.54812818898E+02  0.19852840735E+02  0.57387043000E+02  0.81803747501E+02  0.00000000000E+00 0. -1.
         -1    1    6    6    0  503 -0.41124802925E+01  0.12533636154E+03  0.85050247748E+02  0.15152445565E+03  0.00000000000E+00 0.  1.
<mgrwt>
<rscale>  0 0.14339601E+04</rscale>
<asrwt>0</asrwt>
<pdfrwt beam="1">  1        2 0.25767118E+00 0.14339601E+04</pdfrwt>
<pdfrwt beam="2">  1       -2 0.19883369E+00 0.14339601E+04</pdfrwt>
<totfact> 0.12981200E+00</totfact>
</mgrwt>
</event>
<event>
12    1  0.9321077E-008  0.8486053E+03  0.7818608E-02  0.9492211E-01
          1   -1    0    0  501    0  0.00000000000E+00  0.00000000000E+00  0.14201844274E+04  0.14201844274E+04  0.00000000000E+00 0. -1.
         -1   -1    0    0    0  501 -0.00000000000E+00 -0.00000000000E+00 -0.74972488254E+03  0.74972488254E+03  0.00000000000E+00 0.  1.
         23    2    1    2    0    0 -0.70103551940E+03 -0.36328183641E+03 -0.23303268046E+03  0.82832035464E+03  0.91574492178E+02 0.  0.
    5000000    2    1    2    0    0  0.70103551940E+03  0.36328183641E+03  0.90349222532E+03  0.13415889553E+04  0.60011518196E+03 0.  0.
         23    2    4    4    0    0  0.40104003211E+03 -0.23875636136E+02  0.15075293352E+03  0.43855500694E+03  0.90558786362E+02 0.  0.
         23    2    4    4    0    0  0.29999548729E+03  0.38715747255E+03  0.75273929180E+03  0.90303394835E+03  0.94687219418E+02 0.  0.
          4    1    3    3  502    0 -0.47188751788E+03 -0.26773462898E+03 -0.19820125865E+03  0.57761873240E+03  0.00000000000E+00 0. -1.
         -4    1    3    3    0  502 -0.22914800152E+03 -0.95547207433E+02 -0.34831421810E+02  0.25070162224E+03  0.00000000000E+00 0.  1.
         15    1    5    5    0    0  0.39332318393E+03 -0.80762969977E+01  0.14942748414E+03  0.42083260845E+03  0.17770000000E+01 0. -1.
        -15    1    5    5    0    0  0.77168481859E+01 -0.15799339139E+02  0.13254493765E+01  0.17722398489E+02  0.17770000000E+01 0.  1.
          1    1    6    6  503    0  0.22764909415E+03  0.33919908406E+03  0.57630501563E+03  0.70640469968E+03  0.00000000000E+00 0. -1.
         -1    1    6    6    0  503  0.72346393142E+02  0.47958388493E+02  0.17643427616E+03  0.19662924867E+03  0.00000000000E+00 0.  1.
<mgrwt>
<rscale>  0 0.84860528E+03</rscale>
<asrwt>0</asrwt>
<pdfrwt beam="1">  1        1 0.21848991E+00 0.84860528E+03</pdfrwt>
<pdfrwt beam="2">  1       -1 0.11534229E+00 0.84860528E+03</pdfrwt>
<totfact> 0.51944363E+00</totfact>
</mgrwt>
</event>
<event>
12    1  0.9321077E-008  0.7413989E+03  0.7818608E-02  0.9648942E-01
         -2   -1    0    0    0  501 -0.00000000000E+00  0.00000000000E+00  0.10010275515E+04  0.10010275515E+04  0.00000000000E+00 0.  1.
          2   -1    0    0  501    0  0.00000000000E+00 -0.00000000000E+00 -0.10811634240E+04  0.10811634240E+04  0.00000000000E+00 0. -1.
         23    2    1    2    0    0 -0.20944188159E+03  0.59119737881E+03 -0.75110547153E+03  0.98510977944E+03  0.11358523545E+03 0.  0.
    5000000    2    1    2    0    0  0.20944188159E+03 -0.59119737881E+03  0.67096959901E+03  0.10970811961E+04  0.60000558788E+03 0.  0.
         23    2    4    4    0    0  0.29346743163E+03 -0.65344107748E+03  0.60718487167E+03  0.94336929831E+03  0.90353690771E+02 0.  0.
         23    2    4    4    0    0 -0.84025550036E+02  0.62243698675E+02  0.63784727336E+02  0.15371189776E+03  0.92867028522E+02 0.  0.
          4    1    3    3  502    0 -0.50522624461E+02  0.27537175214E+03 -0.27856285033E+03  0.39494227305E+03  0.00000000000E+00 0. -1.
         -4    1    3    3    0  502 -0.15891925713E+03  0.31582562667E+03 -0.47254262120E+03  0.59016750640E+03  0.00000000000E+00 0.  1.
         15    1    5    5    0    0  0.58033737402E+02 -0.23061067326E+03  0.18907540455E+03  0.30381221771E+03  0.17770000000E+01 0. -1.
        -15    1    5    5    0    0  0.23543369423E+03 -0.42283040423E+03  0.41810946712E+03  0.63955708059E+03  0.17770000000E+01 0.  1.
          4    1    6    6  503    0 -0.87940075755E+02  0.26921950760E+02  0.14735903004E+02  0.93141801539E+02  0.00000000000E+00 0. -1.
         -4    1    6    6    0  503  0.39145257189E+01  0.35321747915E+02  0.49048824331E+02  0.60570096217E+02  0.00000000000E+00 0.  1.
<mgrwt>
<rscale>  0 0.74139886E+03</rscale>
<asrwt>0</asrwt>
<pdfrwt beam="1">  1        2 0.16633283E+00 0.74139886E+03</pdfrwt>
<pdfrwt beam="2">  1       -2 0.15400424E+00 0.74139886E+03</pdfrwt>
<totfact> 0.63821622E+00</totfact>
</mgrwt>
</event>
<event>
12    1  0.9321077E-008  0.1181905E+04  0.7818608E-02  0.9128844E-01
          2   -1    0    0  501    0  0.00000000000E+00  0.00000000000E+00  0.21231586972E+04  0.21231586972E+04  0.00000000000E+00 0.  1.
         -2   -1    0    0    0  501 -0.00000000000E+00 -0.00000000000E+00 -0.72613203093E+03  0.72613203093E+03  0.00000000000E+00 0. -1.
         23    2    1    2    0    0 -0.18260841232E+03  0.11517650599E+04  0.60536631744E+03  0.13173234354E+04  0.94678771220E+02 0.  0.
    5000000    2    1    2    0    0  0.18260841232E+03 -0.11517650599E+04  0.79166034888E+03  0.15319672928E+04  0.60024086219E+03 0.  0.
         23    2    4    4    0    0 -0.73027609168E+01 -0.67429023271E+03  0.13654013471E+03  0.69405586181E+03  0.91376598113E+02 0.  0.
         23    2    4    4    0    0  0.18991117324E+03 -0.47747482719E+03  0.65512021417E+03  0.83791143095E+03  0.94152040751E+02 0.  0.
          1    1    3    3  502    0 -0.89700205612E+02  0.74207534700E+03  0.42784559424E+03  0.86126290993E+03  0.00000000000E+00 0. -1.
         -1    1    3    3    0  502 -0.92908206712E+02  0.40968971290E+03  0.17752072320E+03  0.45606052547E+03  0.00000000000E+00 0.  1.
         15    1    5    5    0    0 -0.19780347535E+02 -0.16029884780E+03  0.68416270106E+02  0.17541643737E+03  0.17770000000E+01 0.  1.
        -15    1    5    5    0    0  0.12477586619E+02 -0.51399138491E+03  0.68123864602E+02  0.51863942444E+03  0.17770000000E+01 0. -1.
          1    1    6    6  503    0  0.14957650823E+03 -0.26498826031E+03  0.41718516670E+03  0.51636747887E+03  0.00000000000E+00 0. -1.
         -1    1    6    6    0  503  0.40334665009E+02 -0.21248656687E+03  0.23793504747E+03  0.32154395207E+03  0.00000000000E+00 0.  1.
<mgrwt>
<rscale>  0 0.11819049E+04</rscale>
<asrwt>0</asrwt>
<pdfrwt beam="1">  1        2 0.32663980E+00 0.11819049E+04</pdfrwt>
<pdfrwt beam="2">  1       -2 0.11171262E+00 0.11819049E+04</pdfrwt>
<totfact> 0.35372858E+00</totfact>
</mgrwt>
</event>
<event>
12    1  0.9321077E-008  0.3112864E+03  0.7818608E-02  0.1079731E+00
          2   -1    0    0  501    0  0.00000000000E+00  0.00000000000E+00  0.14143030397E+04  0.14143030397E+04  0.00000000000E+00 0. -1.
         -2   -1    0    0    0  501 -0.00000000000E+00 -0.00000000000E+00 -0.14438822086E+03  0.14438822086E+03  0.00000000000E+00 0.  1.
         23    2    1    2    0    0  0.15772922421E+03 -0.87448857149E+02  0.63681783355E+03  0.66758348086E+03  0.87206307126E+02 0.  0.
    5000000    2    1    2    0    0 -0.15772922421E+03  0.87448857149E+02  0.63309698524E+03  0.89110777965E+03  0.60061258016E+03 0.  0.
         23    2    4    4    0    0 -0.91163235148E+02 -0.15417710534E+03  0.58740906643E+03  0.62043546786E+03  0.88371054041E+02 0.  0.
         23    2    4    4    0    0 -0.66565989063E+02  0.24162596249E+03  0.45687918806E+02  0.27067231180E+03  0.91443850537E+02 0.  0.
          2    1    3    3  502    0  0.68531405332E+02 -0.30657900100E+02  0.41639660923E+03  0.42311061974E+03  0.00000000000E+00 0. -1.
         -2    1    3    3    0  502  0.89197818879E+02 -0.56790957049E+02  0.22042122433E+03  0.24447286113E+03  0.00000000000E+00 0.  1.
         15    1    5    5    0    0 -0.78170789393E+02 -0.14466412658E+03  0.57955203147E+03  0.60243015922E+03  0.17770000000E+01 0. -1.
        -15    1    5    5    0    0 -0.12992445754E+02 -0.95129787578E+01  0.78570349656E+01  0.18005308633E+02  0.17770000000E+01 0.  1.
          3    1    6    6  503    0  0.15940773141E+02  0.30054641808E+02 -0.12503347669E+02  0.36245323084E+02  0.00000000000E+00 0. -1.
         -3    1    6    6    0  503 -0.82506762204E+02  0.21157132068E+03  0.58191266475E+02  0.23442698871E+03  0.00000000000E+00 0.  1.
<mgrwt>
<rscale>  0 0.31128637E+03</rscale>
<asrwt>0</asrwt>
<pdfrwt beam="1">  1        2 0.21758507E+00 0.31128637E+03</pdfrwt>
<pdfrwt beam="2">  1       -2 0.22213573E-01 0.31128637E+03</pdfrwt>
<totfact> 0.26615187E+02</totfact>
</mgrwt>
</event>
<event>
12    1  0.9321077E-008  0.1965964E+04  0.7818608E-02  0.8622701E-01
          2   -1    0    0  501    0  0.00000000000E+00  0.00000000000E+00  0.30372376648E+04  0.30372376648E+04  0.00000000000E+00 0. -1.
         -2   -1    0    0    0  501 -0.00000000000E+00 -0.00000000000E+00 -0.13104386557E+04  0.13104386557E+04  0.00000000000E+00 0.  1.
         23    2    1    2    0    0  0.10578329870E+04  0.16145199251E+04  0.55210024686E+03  0.20098130023E+04  0.94065958804E+02 0.  0.
    5000000    2    1    2    0    0 -0.10578329870E+04 -0.16145199251E+04  0.11746987623E+04  0.23378633182E+04  0.60000207955E+03 0.  0.
         23    2    4    4    0    0 -0.72068911296E+03 -0.14623039726E+04  0.87151147320E+03  0.18508909889E+04  0.92409409680E+02 0.  0.
         23    2    4    4    0    0 -0.33714387403E+03 -0.15221595250E+03  0.30318728909E+03  0.48697232929E+03  0.91563252683E+02 0.  0.
          1    1    3    3  502    0  0.52913489148E+03  0.84353765235E+03  0.32913410421E+03  0.10487462814E+04  0.00000000000E+00 0. -1.
         -1    1    3    3    0  502  0.52869809551E+03  0.77098227276E+03  0.22296614266E+03  0.96106672083E+03  0.00000000000E+00 0.  1.
         15    1    5    5    0    0 -0.57019438761E+03 -0.11715753906E+04  0.65439914784E+03  0.14580644492E+04  0.17770000000E+01 0. -1.
        -15    1    5    5    0    0 -0.15049472535E+03 -0.29072858201E+03  0.21711232536E+03  0.39282653972E+03  0.17770000000E+01 0.  1.
          3    1    6    6  503    0 -0.23103708322E+03 -0.11845401198E+03  0.15773498406E+03  0.30379238300E+03  0.00000000000E+00 0. -1.
         -3    1    6    6    0  503 -0.10610679081E+03 -0.33761940523E+02  0.14545230503E+03  0.18317994629E+03  0.00000000000E+00 0.  1.
<mgrwt>
<rscale>  0 0.19659636E+04</rscale>
<asrwt>0</asrwt>
<pdfrwt beam="1">  1        2 0.46726733E+00 0.19659636E+04</pdfrwt>
<pdfrwt beam="2">  1       -2 0.20160595E+00 0.19659636E+04</pdfrwt>
<totfact> 0.19197221E-01</totfact>
</mgrwt>
</event>
<event>
12    1  0.9321077E-008  0.7617234E+03  0.7818608E-02  0.9617136E-01
          2   -1    0    0  501    0  0.00000000000E+00  0.00000000000E+00  0.33059348546E+04  0.33059348546E+04  0.00000000000E+00 0. -1.
         -2   -1    0    0    0  501 -0.00000000000E+00 -0.00000000000E+00 -0.19884809526E+03  0.19884809526E+03  0.00000000000E+00 0.  1.
         23    2    1    2    0    0 -0.64996007747E+03 -0.29100883867E+02  0.18826986695E+04  0.19940390892E+04  0.91338081731E+02 0.  0.
    5000000    2    1    2    0    0  0.64996007747E+03  0.29100883867E+02  0.12243880899E+04  0.15107438607E+04  0.59993820884E+03 0.  0.
         23    2    4    4    0    0  0.68723157816E+03  0.16935611383E+03  0.91827827595E+03  0.11626190974E+04  0.86483745886E+02 0.  0.
         23    2    4    4    0    0 -0.37271500694E+02 -0.14025522996E+03  0.30610981391E+03  0.34812476332E+03  0.80168187973E+02 0.  0.
          3    1    3    3  502    0 -0.61060641210E+03 -0.15622490212E+02  0.18099602994E+04  0.19102461983E+04  0.00000000000E+00 0. -1.
         -3    1    3    3    0  502 -0.39353665366E+02 -0.13478393655E+02  0.72738370140E+02  0.83792890891E+02  0.00000000000E+00 0.  1.
         15    1    5    5    0    0  0.51630127216E+03  0.16466037204E+03  0.68860047432E+03  0.87627268171E+03  0.17770000000E+01 0. -1.
        -15    1    5    5    0    0  0.17093030600E+03  0.46957417923E+01  0.22967780163E+03  0.28634641571E+03  0.17770000000E+01 0.  1.
          3    1    6    6  503    0  0.12986748042E+02 -0.73042211959E+02  0.92206366396E+02  0.11834624775E+03  0.00000000000E+00 0. -1.
         -3    1    6    6    0  503 -0.50258248736E+02 -0.67213018005E+02  0.21390344752E+03  0.22977851557E+03  0.00000000000E+00 0.  1.
<mgrwt>
<rscale>  0 0.76172336E+03</rscale>
<asrwt>0</asrwt>
<pdfrwt beam="1">  1        2 0.50860532E+00 0.76172336E+03</pdfrwt>
<pdfrwt beam="2">  1       -2 0.30592017E-01 0.76172336E+03</pdfrwt>
<totfact> 0.11670469E+01</totfact>
</mgrwt>
</event>
<event>
12    1  0.9321077E-008  0.9394275E+03  0.7818608E-02  0.9377594E-01
          2   -1    0    0  501    0  0.00000000000E+00  0.00000000000E+00  0.74230961467E+03  0.74230961467E+03  0.00000000000E+00 0. -1.
         -2   -1    0    0    0  501 -0.00000000000E+00 -0.00000000000E+00 -0.12194572667E+04  0.12194572667E+04  0.00000000000E+00 0.  1.
         23    2    1    2    0    0 -0.49974044502E+03  0.68648047999E+03 -0.31155038115E+03  0.90892521239E+03  0.89919074335E+02 0.  0.
    5000000    2    1    2    0    0  0.49974044502E+03 -0.68648047999E+03 -0.16559727085E+03  0.10528416689E+04  0.60004763308E+03 0.  0.
         23    2    4    4    0    0  0.62290356116E+03 -0.56405921550E+03 -0.13535478844E+03  0.85598414895E+03  0.90643805068E+02 0.  0.
         23    2    4    4    0    0 -0.12316311614E+03 -0.12242126449E+03 -0.30242482410E+02  0.19685752000E+03  0.87647910774E+02 0.  0.
          3    1    3    3  502    0 -0.34334756113E+03  0.53119809894E+03 -0.24985431361E+03  0.68006333976E+03  0.00000000000E+00 0. -1.
         -3    1    3    3    0  502 -0.15639288389E+03  0.15528238105E+03 -0.61696067543E+02  0.22886187263E+03  0.00000000000E+00 0.  1.
         15    1    5    5    0    0  0.45228154605E+03 -0.45971255435E+03 -0.93503951908E+02  0.65164436334E+03  0.17770000000E+01 0. -1.
        -15    1    5    5    0    0  0.17062201511E+03 -0.10434666115E+03 -0.41850836535E+02  0.20433978560E+03  0.17770000000E+01 0.  1.
          4    1    6    6  503    0 -0.81565091424E+02 -0.44973262244E+02 -0.51471971650E+02  0.10641814846E+03  0.00000000000E+00 0.  1.
         -4    1    6    6    0  503 -0.41598024714E+02 -0.77448002243E+02  0.21229489240E+02  0.90439371542E+02  0.00000000000E+00 0. -1.
<mgrwt>
<rscale>  0 0.93942749E+03</rscale>
<asrwt>0</asrwt>
<pdfrwt beam="1">  1        2 0.11420148E+00 0.93942749E+03</pdfrwt>
<pdfrwt beam="2">  1       -2 0.18760881E+00 0.93942749E+03</pdfrwt>
<totfact> 0.61035649E+00</totfact>
</mgrwt>
</event>
<event>
12    1  0.9321077E-008  0.1610238E+04  0.7818608E-02  0.8814283E-01
          2   -1    0    0  501    0  0.00000000000E+00  0.00000000000E+00  0.22959661721E+04  0.22959661721E+04  0.00000000000E+00 0.  1.
         -2   -1    0    0    0  501 -0.00000000000E+00 -0.00000000000E+00 -0.12249168866E+04  0.12249168866E+04  0.00000000000E+00 0. -1.
         23    2    1    2    0    0  0.73355889703E+03 -0.14074354745E+04  0.87106741636E+03  0.18123864525E+04  0.83683565709E+02 0.  0.
    5000000    2    1    2    0    0 -0.73355889703E+03  0.14074354745E+04  0.19998186911E+03  0.17084966062E+04  0.59998719594E+03 0.  0.
         23    2    4    4    0    0 -0.17526511422E+03  0.12989030077E+03 -0.13347603717E+03  0.27126180337E+03  0.90430984598E+02 0.  0.
         23    2    4    4    0    0 -0.55829378281E+03  0.12775451737E+04  0.33345790627E+03  0.14372348028E+04  0.10313139431E+03 0.  0.
          3    1    3    3  502    0  0.57588314098E+02 -0.12295939243E+03  0.49510913203E+02  0.14452251255E+03  0.00000000000E+00 0. -1.
         -3    1    3    3    0  502  0.67597058293E+03 -0.12844760820E+04  0.82155650316E+03  0.16678639399E+04  0.00000000000E+00 0.  1.
         15    1    5    5    0    0 -0.39885283817E+02 -0.10178028351E+02 -0.19791021749E+02  0.45708537464E+02  0.17770000000E+01 0.  1.
        -15    1    5    5    0    0 -0.13537983040E+03  0.14006832912E+03 -0.11368501542E+03  0.22555326591E+03  0.17770000000E+01 0. -1.
          1    1    6    6  503    0 -0.54934540603E+02  0.20796136403E+03  0.33768952575E+02  0.21772936145E+03  0.00000000000E+00 0. -1.
         -1    1    6    6    0  503 -0.50335924221E+03  0.10695838097E+04  0.29968895370E+03  0.12195054414E+04  0.00000000000E+00 0.  1.
<mgrwt>
<rscale>  0 0.16102383E+04</rscale>
<asrwt>0</asrwt>
<pdfrwt beam="1">  1        2 0.35322557E+00 0.16102383E+04</pdfrwt>
<pdfrwt beam="2">  1       -2 0.18844875E+00 0.16102383E+04</pdfrwt>
<totfact> 0.67281090E-01</totfact>
</mgrwt>
</event>
<event>
12    1  0.9321077E-008  0.6203381E+03  0.7818608E-02  0.9864087E-01
         -1   -1    0    0    0  501 -0.00000000000E+00  0.00000000000E+00  0.19758013568E+03  0.19758013568E+03  0.00000000000E+00 0.  1.
          1   -1    0    0  501    0  0.00000000000E+00 -0.00000000000E+00 -0.25778767172E+04  0.25778767172E+04  0.00000000000E+00 0. -1.
         23    2    1    2    0    0  0.51868645552E+03 -0.64457060940E+02 -0.14892414841E+04  0.15806713520E+04  0.86552719138E+02 0.  0.
    5000000    2    1    2    0    0 -0.51868645552E+03  0.64457060940E+02 -0.89105509749E+03  0.11947855010E+04  0.60028564426E+03 0.  0.
         23    2    4    4    0    0 -0.32633551403E+03 -0.19802125112E+03 -0.23588869740E+03  0.45760860309E+03  0.89748941234E+02 0.  0.
         23    2    4    4    0    0 -0.19235094150E+03  0.26247831206E+03 -0.65516640008E+03  0.73717689787E+03  0.91066008791E+02 0.  0.
          3    1    3    3  502    0  0.37198331708E+03 -0.67033537332E+01 -0.10590802309E+04  0.11225272641E+04  0.00000000000E+00 0. -1.
         -3    1    3    3    0  502  0.14670313844E+03 -0.57753707206E+02 -0.43016125312E+03  0.45814408783E+03  0.00000000000E+00 0.  1.
         15    1    5    5    0    0 -0.73653068714E+02 -0.45489740045E+02 -0.12582008293E+02  0.87496032150E+02  0.17770000000E+01 0.  1.
        -15    1    5    5    0    0 -0.25268244531E+03 -0.15253151107E+03 -0.22330668911E+03  0.37011257094E+03  0.17770000000E+01 0. -1.
          1    1    6    6  503    0 -0.10884678309E+02  0.43446998632E+02 -0.15978255636E+03  0.16594150544E+03  0.00000000000E+00 0. -1.
         -1    1    6    6    0  503 -0.18146626319E+03  0.21903131343E+03 -0.49538384373E+03  0.57123539243E+03  0.00000000000E+00 0.  1.
<mgrwt>
<rscale>  0 0.62033812E+03</rscale>
<asrwt>0</asrwt>
<pdfrwt beam="1">  1        1 0.39659644E+00 0.62033812E+03</pdfrwt>
<pdfrwt beam="2">  1       -1 0.30396942E-01 0.62033812E+03</pdfrwt>
<totfact> 0.12838364E+01</totfact>
</mgrwt>
</event>
<event>
12    1  0.9321077E-008  0.1969321E+04  0.7818608E-02  0.8621100E-01
         -2   -1    0    0    0  501 -0.00000000000E+00  0.00000000000E+00  0.27860501739E+04  0.27860501739E+04  0.00000000000E+00 0. -1.
          2   -1    0    0  501    0  0.00000000000E+00 -0.00000000000E+00 -0.16734892889E+04  0.16734892889E+04  0.00000000000E+00 0.  1.
         23    2    1    2    0    0  0.12854013214E+04 -0.14823064764E+04  0.13658753864E+04  0.23922117470E+04  0.87019676560E+02 0.  0.
    5000000    2    1    2    0    0 -0.12854013214E+04  0.14823064764E+04 -0.25331450133E+03  0.20673277158E+04  0.60015548056E+03 0.  0.
         23    2    4    4    0    0 -0.66967833556E+03  0.61681000209E+03  0.15113725979E+03  0.92714963269E+03  0.88545571884E+02 0.  0.
         23    2    4    4    0    0 -0.61572298586E+03  0.86549647434E+03 -0.40445176112E+03  0.11401780831E+04  0.90696702083E+02 0.  0.
          4    1    3    3  502    0  0.57376132370E+03 -0.69498182306E+03  0.58168380380E+03  0.10726405915E+04  0.00000000000E+00 0. -1.
         -4    1    3    3    0  502  0.71163999772E+03 -0.78732465337E+03  0.78419158257E+03  0.13195711555E+04  0.00000000000E+00 0.  1.
         15    1    5    5    0    0 -0.34018509178E+03  0.30228063261E+03  0.11960675577E+03  0.47054055221E+03  0.17770000000E+01 0.  1.
        -15    1    5    5    0    0 -0.32949324378E+03  0.31452936948E+03  0.31530504027E+02  0.45660908048E+03  0.17770000000E+01 0. -1.
          3    1    6    6  503    0 -0.37714606802E+03  0.45757330592E+03 -0.24232124990E+03  0.64057167832E+03  0.00000000000E+00 0. -1.
         -3    1    6    6    0  503 -0.23857691784E+03  0.40792316842E+03 -0.16213051123E+03  0.49960640482E+03  0.00000000000E+00 0.  1.
<mgrwt>
<rscale>  0 0.19693210E+04</rscale>
<asrwt>0</asrwt>
<pdfrwt beam="1">  1        2 0.25745989E+00 0.19693210E+04</pdfrwt>
<pdfrwt beam="2">  1       -2 0.42862310E+00 0.19693210E+04</pdfrwt>
<totfact> 0.43499726E-02</totfact>
</mgrwt>
</event>
<event>
12    1  0.9321077E-008  0.9881801E+03  0.7818608E-02  0.9321605E-01
         -1   -1    0    0    0  501 -0.00000000000E+00  0.00000000000E+00  0.46639759238E+03  0.46639759238E+03  0.00000000000E+00 0.  1.
          1   -1    0    0  501    0  0.00000000000E+00 -0.00000000000E+00 -0.22403187581E+04  0.22403187581E+04  0.00000000000E+00 0. -1.
         23    2    1    2    0    0  0.19466015925E+03  0.90999035701E+03 -0.87718570699E+03  0.12817907781E+04  0.86935648101E+02 0.  0.
    5000000    2    1    2    0    0 -0.19466015925E+03 -0.90999035701E+03 -0.89673545872E+03  0.14249255723E+04  0.60025276035E+03 0.  0.
         23    2    4    4    0    0 -0.14113704059E+03 -0.92934387873E+03 -0.91563797118E+03  0.13154370427E+04  0.91553317256E+02 0.  0.
         23    2    4    4    0    0 -0.53523118656E+02  0.19353521721E+02  0.18902512459E+02  0.10948852962E+03  0.91603221058E+02 0.  0.
          3    1    3    3  502    0  0.79233233280E+02  0.45086073063E+03 -0.37632343778E+03  0.59259820579E+03  0.00000000000E+00 0. -1.
         -3    1    3    3    0  502  0.11542692597E+03  0.45912962637E+03 -0.50086226920E+03  0.68919257234E+03  0.00000000000E+00 0.  1.
         15    1    5    5    0    0 -0.35544176618E+02 -0.39977250927E+03 -0.33820033503E+03  0.52484671286E+03  0.17770000000E+01 0. -1.
        -15    1    5    5    0    0 -0.10559286397E+03 -0.52957136946E+03 -0.57743763614E+03  0.79059032984E+03  0.17770000000E+01 0.  1.
          3    1    6    6  503    0 -0.77746752084E+02  0.15840348005E+02  0.26833485579E+02  0.83758641542E+02  0.00000000000E+00 0. -1.
         -3    1    6    6    0  503  0.24223633429E+02  0.35131737163E+01 -0.79309731201E+01  0.25729888082E+02  0.00000000000E+00 0.  1.
<mgrwt>
<rscale>  0 0.98818007E+03</rscale>
<asrwt>0</asrwt>
<pdfrwt beam="1">  1        1 0.34466442E+00 0.98818007E+03</pdfrwt>
<pdfrwt beam="2">  1       -1 0.71753476E-01 0.98818007E+03</pdfrwt>
<totfact> 0.40744422E+00</totfact>
</mgrwt>
</event>
<event>
12    1  0.9321077E-008  0.3499753E+03  0.7818608E-02  0.1062625E+00
         -2   -1    0    0    0  501 -0.00000000000E+00  0.00000000000E+00  0.24590209470E+03  0.24590209470E+03  0.00000000000E+00 0.  1.
          2   -1    0    0  501    0  0.00000000000E+00 -0.00000000000E+00 -0.98429857546E+03  0.98429857546E+03  0.00000000000E+00 0. -1.
         23    2    1    2    0    0  0.24290094473E+03 -0.17434531099E+03 -0.22015726962E+03  0.38263313702E+03  0.92421522168E+02 0.  0.
    5000000    2    1    2    0    0 -0.24290094473E+03  0.17434531099E+03 -0.51823921114E+03  0.84756753314E+03  0.60033464572E+03 0.  0.
         23    2    4    4    0    0 -0.25765232079E+03  0.20181936266E+03 -0.62024404635E+03  0.70736272899E+03  0.92431486900E+02 0.  0.
         23    2    4    4    0    0  0.14751376057E+02 -0.27474051664E+02  0.10200483522E+03  0.14020480415E+03  0.90994362950E+02 0.  0.
          1    1    3    3  502    0  0.57548841296E+02 -0.75661891588E+02 -0.30931097861E+02  0.99966613367E+02  0.00000000000E+00 0. -1.
         -1    1    3    3    0  502  0.18535210344E+03 -0.98683419405E+02 -0.18922617176E+03  0.28266652365E+03  0.00000000000E+00 0.  1.
         15    1    5    5    0    0 -0.16208788518E+03  0.11781128138E+03 -0.28177791987E+03  0.34576572184E+03  0.17770000000E+01 0.  1.
        -15    1    5    5    0    0 -0.95564435607E+02  0.84008081279E+02 -0.33846612648E+03  0.36159700715E+03  0.17770000000E+01 0. -1.
          1    1    6    6  503    0  0.22615848500E+02 -0.43715733673E+02  0.10996803579E+03  0.12048033395E+03  0.00000000000E+00 0. -1.
         -1    1    6    6    0  503 -0.78644724428E+01  0.16241682008E+02 -0.79632005718E+01  0.19724470199E+02  0.00000000000E+00 0.  1.
<mgrwt>
<rscale>  0 0.34997532E+03</rscale>
<asrwt>0</asrwt>
<pdfrwt beam="1">  1        2 0.15143055E+00 0.34997532E+03</pdfrwt>
<pdfrwt beam="2">  1       -2 0.37831092E-01 0.34997532E+03</pdfrwt>
<totfact> 0.17788881E+02</totfact>
</mgrwt>
</event>
<event>
12    1  0.9321077E-008  0.6511973E+03  0.7818608E-02  0.9804535E-01
         -2   -1    0    0    0  501 -0.00000000000E+00  0.00000000000E+00  0.59487645831E+03  0.59487645831E+03  0.00000000000E+00 0.  1.
          2   -1    0    0  501    0  0.00000000000E+00 -0.00000000000E+00 -0.81534361339E+03  0.81534361339E+03  0.00000000000E+00 0. -1.
         23    2    1    2    0    0  0.39481601373E+02  0.53889077290E+03  0.68982571813E+02  0.55234554099E+03  0.91460043083E+02 0.  0.
    5000000    2    1    2    0    0 -0.39481601373E+02 -0.53889077290E+03 -0.28944972690E+03  0.85787453070E+03  0.60017122896E+03 0.  0.
         23    2    4    4    0    0 -0.25226235944E+03 -0.10701047457E+03 -0.14220375819E-01  0.28897778729E+03  0.91763945471E+02 0.  0.
         23    2    4    4    0    0  0.21278075807E+03 -0.43188029833E+03 -0.28943550652E+03  0.56889674341E+03  0.89857382203E+02 0.  0.
          1    1    3    3  502    0  0.60226905004E+02  0.26089613616E+03  0.13412871627E+02  0.26809322833E+03  0.00000000000E+00 0. -1.
         -1    1    3    3    0  502 -0.20745303631E+02  0.27799463674E+03  0.55569700187E+02  0.28425231267E+03  0.00000000000E+00 0.  1.
         15    1    5    5    0    0 -0.10114560838E+03 -0.41064615035E+02 -0.44959754074E+02  0.11807317188E+03  0.17770000000E+01 0. -1.
        -15    1    5    5    0    0 -0.15111675107E+03 -0.65945859532E+02  0.44945533698E+02  0.17090461542E+03  0.17770000000E+01 0.  1.
          2    1    6    6  503    0  0.17501842241E+03 -0.33832738601E+03 -0.18420487430E+03  0.42311736436E+03  0.00000000000E+00 0.  1.
         -2    1    6    6    0  503  0.37762335663E+02 -0.93552912316E+02 -0.10523063223E+03  0.14577937905E+03  0.00000000000E+00 0. -1.
<mgrwt>
<rscale>  0 0.65119735E+03</rscale>
<asrwt>0</asrwt>
<pdfrwt beam="1">  1        2 0.12543748E+00 0.65119735E+03</pdfrwt>
<pdfrwt beam="2">  1       -2 0.91519455E-01 0.65119735E+03</pdfrwt>
<totfact> 0.34944038E+01</totfact>
</mgrwt>
</event>
<event>
12    1  0.9321077E-008  0.6466619E+03  0.7818608E-02  0.9813063E-01
         -1   -1    0    0    0  501 -0.00000000000E+00  0.00000000000E+00  0.52808432977E+03  0.52808432977E+03  0.00000000000E+00 0.  1.
          1   -1    0    0  501    0  0.00000000000E+00 -0.00000000000E+00 -0.11303564191E+04  0.11303564191E+04  0.00000000000E+00 0. -1.
         23    2    1    2    0    0  0.35163434832E+03 -0.40059617246E+03  0.14645181906E+03  0.56082895589E+03  0.94641291938E+02 0.  0.
    5000000    2    1    2    0    0 -0.35163434832E+03  0.40059617246E+03 -0.74872390837E+03  0.10976117930E+04  0.60003345637E+03 0.  0.
         23    2    4    4    0    0 -0.41381547195E+03  0.94399963225E+02 -0.24388395581E+03  0.49694790175E+03  0.85575903555E+02 0.  0.
         23    2    4    4    0    0  0.62181123626E+02  0.30619620924E+03 -0.50483995256E+03  0.60066389121E+03  0.91165354252E+02 0.  0.
          2    1    3    3  502    0  0.28192896802E+03 -0.26571445277E+03  0.12733389201E+03  0.40780146331E+03  0.00000000000E+00 0. -1.
         -2    1    3    3    0  502  0.69705380302E+02 -0.13488171969E+03  0.19117927054E+02  0.15302749258E+03  0.00000000000E+00 0.  1.
         15    1    5    5    0    0 -0.52948928399E+02 -0.14516267914E+02 -0.43352052852E+02  0.69977634057E+02  0.17770000000E+01 0. -1.
        -15    1    5    5    0    0 -0.36086654355E+03  0.10891623114E+03 -0.20053190296E+03  0.42697026769E+03  0.17770000000E+01 0.  1.
          4    1    6    6  503    0 -0.84980414483E+01  0.15574313659E+03 -0.28700612808E+03  0.32665066793E+03  0.00000000000E+00 0. -1.
         -4    1    6    6    0  503  0.70679165074E+02  0.15045307265E+03 -0.21783382448E+03  0.27401322328E+03  0.00000000000E+00 0.  1.
<mgrwt>
<rscale>  0 0.64666187E+03</rscale>
<asrwt>0</asrwt>
<pdfrwt beam="1">  1        1 0.17390098E+00 0.64666187E+03</pdfrwt>
<pdfrwt beam="2">  1       -1 0.81243744E-01 0.64666187E+03</pdfrwt>
<totfact> 0.18980547E+01</totfact>
</mgrwt>
</event>
<event>
12    1  0.9534116E-008  0.1550322E+04  0.7818608E-02  0.8851662E-01
         -2   -1    0    0    0  501 -0.00000000000E+00  0.00000000000E+00  0.12441115477E+04  0.12441115477E+04  0.00000000000E+00 0. -1.
          2   -1    0    0  501    0  0.00000000000E+00 -0.00000000000E+00 -0.20272664336E+04  0.20272664336E+04  0.00000000000E+00 0.  1.
         23    2    1    2    0    0  0.12960450478E+03  0.15138165553E+04 -0.56413429692E+03  0.16232472305E+04  0.90808456003E+02 0.  0.
    5000000    2    1    2    0    0 -0.12960450478E+03 -0.15138165553E+04 -0.21902058896E+03  0.16481307508E+04  0.59993921573E+03 0.  0.
         23    2    4    4    0    0 -0.28144908074E+03 -0.90564326903E+03 -0.32436629177E+03  0.10065296885E+04  0.92115182586E+02 0.  0.
         23    2    4    4    0    0  0.15184457596E+03 -0.60817328624E+03  0.10534570281E+03  0.64160106224E+03  0.87307987167E+02 0.  0.
          1    1    3    3  502    0  0.82815497913E+02  0.10507283354E+04 -0.43495220925E+03  0.11402069399E+04  0.00000000000E+00 0. -1.
         -1    1    3    3    0  502  0.46789006871E+02  0.46308821987E+03 -0.12918208767E+03  0.48304029058E+03  0.00000000000E+00 0.  1.
         15    1    5    5    0    0 -0.20104231520E+03 -0.64386101257E+03 -0.27415425626E+03  0.72810626283E+03  0.17770000000E+01 0.  1.
        -15    1    5    5    0    0 -0.80406765539E+02 -0.26178225646E+03 -0.50212035509E+02  0.27842342570E+03  0.17770000000E+01 0. -1.
          1    1    6    6  503    0  0.57384923019E+02 -0.40168663574E+03  0.71841247015E+02  0.41207565749E+03  0.00000000000E+00 0. -1.
         -1    1    6    6    0  503  0.94459652939E+02 -0.20648665050E+03  0.33504455792E+02  0.22952540475E+03  0.00000000000E+00 0.  1.
<mgrwt>
<rscale>  0 0.15503218E+04</rscale>
<asrwt>0</asrwt>
<pdfrwt beam="1">  1        2 0.31188714E+00 0.15503218E+04</pdfrwt>
<pdfrwt beam="2">  1       -2 0.19140178E+00 0.15503218E+04</pdfrwt>
<totfact> 0.91540935E-01</totfact>
</mgrwt>
</event>
<event>
12    1  0.9321077E-008  0.6437163E+03  0.7818608E-02  0.9818642E-01
         -2   -1    0    0    0  501 -0.00000000000E+00  0.00000000000E+00  0.15215117995E+03  0.15215117995E+03  0.00000000000E+00 0.  1.
          2   -1    0    0  501    0  0.00000000000E+00 -0.00000000000E+00 -0.31015779218E+04  0.31015779218E+04  0.00000000000E+00 0. -1.
         23    2    1    2    0    0 -0.51504325423E+03  0.15505875531E+02 -0.73498196548E+03  0.90228840097E+03  0.91738122094E+02 0.  0.
    5000000    2    1    2    0    0  0.51504325423E+03 -0.15505875531E+02 -0.22144447764E+04  0.23514407008E+04  0.59999809648E+03 0.  0.
         23    2    4    4    0    0  0.53669021078E+03 -0.19030809895E+03 -0.14218840241E+04  0.15344608692E+04  0.92533380097E+02 0.  0.
         23    2    4    4    0    0 -0.21646956556E+02  0.17480222342E+03 -0.79256075229E+03  0.81697983154E+03  0.90989510498E+02 0.  0.
          3    1    3    3  502    0 -0.38251875475E+02  0.15264829300E+02 -0.28946885059E+02  0.50340273594E+02  0.00000000000E+00 0. -1.
         -3    1    3    3    0  502 -0.47679137875E+03  0.24104623048E+00 -0.70603508042E+03  0.85194812738E+03  0.00000000000E+00 0.  1.
         15    1    5    5    0    0  0.48370550545E+03 -0.15678091593E+03 -0.11865914279E+04  0.12909506753E+04  0.17770000000E+01 0. -1.
        -15    1    5    5    0    0  0.52984705331E+02 -0.33527183022E+02 -0.23529259621E+03  0.24351019395E+03  0.17770000000E+01 0.  1.
          4    1    6    6  503    0 -0.57510373334E+02  0.11300095947E+03 -0.50441024355E+03  0.52010225310E+03  0.00000000000E+00 0. -1.
         -4    1    6    6    0  503  0.35863416778E+02  0.61801263947E+02 -0.28815050874E+03  0.29687757843E+03  0.00000000000E+00 0.  1.
<mgrwt>
<rscale>  0 0.64371635E+03</rscale>
<asrwt>0</asrwt>
<pdfrwt beam="1">  1        2 0.47716586E+00 0.64371635E+03</pdfrwt>
<pdfrwt beam="2">  1       -2 0.23407873E-01 0.64371635E+03</pdfrwt>
<totfact> 0.26200699E+01</totfact>
</mgrwt>
</event>
<event>
12    1  0.9321077E-008  0.1385337E+04  0.7818608E-02  0.8964501E-01
          1   -1    0    0  501    0  0.00000000000E+00  0.00000000000E+00  0.27089493373E+04  0.27089493373E+04  0.00000000000E+00 0. -1.
         -1   -1    0    0    0  501 -0.00000000000E+00 -0.00000000000E+00 -0.17649387335E+04  0.17649387335E+04  0.00000000000E+00 0.  1.
         23    2    1    2    0    0 -0.76833801677E+03  0.11476378000E+04 -0.12148741856E+04  0.18417389035E+04  0.93097120147E+02 0.  0.
    5000000    2    1    2    0    0  0.76833801677E+03 -0.11476378000E+04  0.21588847894E+04  0.26321491673E+04  0.60000823085E+03 0.  0.
         23    2    4    4    0    0  0.49557953407E+03 -0.60510810103E+03  0.71631591346E+03  0.10643912000E+04  0.89806738045E+02 0.  0.
         23    2    4    4    0    0  0.27275848270E+03 -0.54252969894E+03  0.14425688759E+04  0.15677579673E+04  0.90135554348E+02 0.  0.
          1    1    3    3  502    0 -0.49501301296E+03  0.75495634908E+03 -0.73542673234E+03  0.11644094858E+04  0.00000000000E+00 0. -1.
         -1    1    3    3    0  502 -0.27332500381E+03  0.39268145089E+03 -0.47944745327E+03  0.67732941766E+03  0.00000000000E+00 0.  1.
         15    1    5    5    0    0  0.27138493715E+03 -0.32860074289E+03  0.45025872417E+03  0.61997121608E+03  0.17770000000E+01 0. -1.
        -15    1    5    5    0    0  0.22419459691E+03 -0.27650735814E+03  0.26605718929E+03  0.44441998390E+03  0.17770000000E+01 0.  1.
          1    1    6    6  503    0  0.15010913931E+03 -0.28892083699E+03  0.65802143273E+03  0.73416633653E+03  0.00000000000E+00 0. -1.
         -1    1    6    6    0  503  0.12264934340E+03 -0.25360886195E+03  0.78454744320E+03  0.83359163079E+03  0.00000000000E+00 0.  1.
<mgrwt>
<rscale>  0 0.13853371E+04</rscale>
<asrwt>0</asrwt>
<pdfrwt beam="1">  1        1 0.41676144E+00 0.13853371E+04</pdfrwt>
<pdfrwt beam="2">  1       -1 0.27152904E+00 0.13853371E+04</pdfrwt>
<totfact> 0.46898999E-02</totfact>
</mgrwt>
</event>
<event>
12    1  0.9321077E-008  0.8071138E+03  0.7818608E-02  0.9549777E-01
         -1   -1    0    0    0  501 -0.00000000000E+00  0.00000000000E+00  0.46311440405E+03  0.46311440405E+03  0.00000000000E+00 0.  1.
          1   -1    0    0  501    0  0.00000000000E+00 -0.00000000000E+00 -0.15345212157E+04  0.15345212157E+04  0.00000000000E+00 0. -1.
         23    2    1    2    0    0 -0.58439922368E+03  0.39432921370E+03 -0.23166581251E+03  0.74770362877E+03  0.91507848774E+02 0.  0.
    5000000    2    1    2    0    0  0.58439922368E+03 -0.39432921370E+03 -0.83974099918E+03  0.12499319910E+04  0.60012253337E+03 0.  0.
         23    2    4    4    0    0 -0.83841682596E+02 -0.17386987360E+03 -0.20521915106E+03  0.29792234302E+03  0.96864141052E+02 0.  0.
         23    2    4    4    0    0  0.66824090627E+03 -0.22045934010E+03 -0.63452184813E+03  0.95200964800E+03  0.92499538851E+02 0.  0.
          3    1    3    3  502    0 -0.17572141815E+03  0.15404660636E+03 -0.43788802792E+02  0.23775162034E+03  0.00000000000E+00 0. -1.
         -3    1    3    3    0  502 -0.40867780553E+03  0.24028260734E+03 -0.18787700971E+03  0.50995200843E+03  0.00000000000E+00 0.  1.
         15    1    5    5    0    0  0.36155932535E+01 -0.48286232399E+02 -0.93454398505E+01  0.49347013374E+02  0.17770000000E+01 0.  1.
        -15    1    5    5    0    0 -0.87457275849E+02 -0.12558364120E+03 -0.19587371121E+03  0.24857532965E+03  0.17770000000E+01 0. -1.
          1    1    6    6  503    0  0.34781362762E+03 -0.92275560233E+02 -0.26877683749E+03  0.44914372638E+03  0.00000000000E+00 0.  1.
         -1    1    6    6    0  503  0.32042727865E+03 -0.12818377986E+03 -0.36574501064E+03  0.50286592162E+03  0.00000000000E+00 0. -1.
<mgrwt>
<rscale>  0 0.80711383E+03</rscale>
<asrwt>0</asrwt>
<pdfrwt beam="1">  1        1 0.23608018E+00 0.80711383E+03</pdfrwt>
<pdfrwt beam="2">  1       -1 0.71248372E-01 0.80711383E+03</pdfrwt>
<totfact> 0.12679847E+01</totfact>
</mgrwt>
</event>
<event>
12    1  0.9321077E-008  0.9839855E+03  0.7818608E-02  0.9326286E-01
          1   -1    0    0  501    0  0.00000000000E+00  0.00000000000E+00  0.73370053197E+03  0.73370053197E+03  0.00000000000E+00 0. -1.
         -1   -1    0    0    0  501 -0.00000000000E+00 -0.00000000000E+00 -0.13712507062E+04  0.13712507062E+04  0.00000000000E+00 0.  1.
         23    2    1    2    0    0 -0.81156633005E+03 -0.40972469262E+03 -0.35009009879E+03  0.97837285823E+03  0.90200557848E+02 0.  0.
    5000000    2    1    2    0    0  0.81156633005E+03  0.40972469262E+03 -0.28746007543E+03  0.11265783799E+04  0.60002609889E+03 0.  0.
         23    2    4    4    0    0  0.20877760032E+03  0.39467125014E+03 -0.94651554496E+01  0.45617857068E+03  0.93036643811E+02 0.  0.
         23    2    4    4    0    0  0.60278872972E+03  0.15053442479E+02 -0.27799491998E+03  0.67039980925E+03  0.92595193743E+02 0.  0.
          4    1    3    3  502    0 -0.40768618366E+03 -0.25534779562E+03 -0.17517668439E+03  0.51195448218E+03  0.00000000000E+00 0.  1.
         -4    1    3    3    0  502 -0.40388014639E+03 -0.15437689700E+03 -0.17491341440E+03  0.46641837604E+03  0.00000000000E+00 0. -1.
         15    1    5    5    0    0  0.17593033234E+03  0.33292675824E+03  0.26551131395E+02  0.37749149460E+03  0.17770000000E+01 0. -1.
        -15    1    5    5    0    0  0.32847267987E+02  0.61744491904E+02 -0.36016286844E+02  0.78687076078E+02  0.17770000000E+01 0.  1.
          3    1    6    6  503    0  0.39155062292E+03 -0.27599732603E+02 -0.15310609083E+03  0.42132542125E+03  0.00000000000E+00 0. -1.
         -3    1    6    6    0  503  0.21123810681E+03  0.42653175082E+02 -0.12488882915E+03  0.24907438800E+03  0.00000000000E+00 0.  1.
<mgrwt>
<rscale>  0 0.98398545E+03</rscale>
<asrwt>0</asrwt>
<pdfrwt beam="1">  1        1 0.11287701E+00 0.98398545E+03</pdfrwt>
<pdfrwt beam="2">  1       -1 0.21096165E+00 0.98398545E+03</pdfrwt>
<totfact> 0.32310796E+00</totfact>
</mgrwt>
</event>
<event>
12    1  0.9321077E-008  0.8386890E+03  0.7818608E-02  0.9505645E-01
         -2   -1    0    0    0  501 -0.00000000000E+00  0.00000000000E+00  0.12675516943E+04  0.12675516943E+04  0.00000000000E+00 0.  1.
          2   -1    0    0  501    0  0.00000000000E+00 -0.00000000000E+00 -0.70370746847E+03  0.70370746847E+03  0.00000000000E+00 0. -1.
         23    2    1    2    0    0  0.44602769672E+03  0.58935719343E+03 -0.17639129205E+03  0.76523294963E+03  0.90470832825E+02 0.  0.
    5000000    2    1    2    0    0 -0.44602769672E+03 -0.58935719343E+03  0.74023551792E+03  0.12060262132E+04  0.60022328944E+03 0.  0.
         23    2    4    4    0    0  0.40647090923E+02  0.67510690995E+02  0.15083543158E+03  0.19415605141E+03  0.93463177133E+02 0.  0.
         23    2    4    4    0    0 -0.48667478765E+03 -0.65686788442E+03  0.58940008634E+03  0.10118701618E+04  0.90338230975E+02 0.  0.
          1    1    3    3  502    0  0.19349729207E+03  0.32811046302E+03 -0.10219048359E+03  0.39438632446E+03  0.00000000000E+00 0. -1.
         -1    1    3    3    0  502  0.25253040465E+03  0.26124673041E+03 -0.74200808457E+02  0.37084662517E+03  0.00000000000E+00 0.  1.
         15    1    5    5    0    0 -0.25737118553E+02  0.12658311232E+02  0.71480888352E+02  0.77040945239E+02  0.17770000000E+01 0. -1.
        -15    1    5    5    0    0  0.66384209476E+02  0.54852379763E+02  0.79354543230E+02  0.11711510617E+03  0.17770000000E+01 0.  1.
          4    1    6    6  503    0 -0.19828784147E+03 -0.23943244018E+03  0.27451109699E+03  0.41473160461E+03  0.00000000000E+00 0. -1.
         -4    1    6    6    0  503 -0.28838694617E+03 -0.41743544425E+03  0.31488898934E+03  0.59713855716E+03  0.00000000000E+00 0.  1.
<mgrwt>
<rscale>  0 0.83868899E+03</rscale>
<asrwt>0</asrwt>
<pdfrwt beam="1">  1        2 0.10826269E+00 0.83868899E+03</pdfrwt>
<pdfrwt beam="2">  1       -2 0.19500795E+00 0.83868899E+03</pdfrwt>
<totfact> 0.58965334E+00</totfact>
</mgrwt>
</event>
<event>
12    1  0.9321077E-008  0.5300283E+03  0.7818608E-02  0.1006225E+00
          2   -1    0    0  501    0  0.00000000000E+00  0.00000000000E+00  0.12394726640E+04  0.12394726640E+04  0.00000000000E+00 0. -1.
         -2   -1    0    0    0  501 -0.00000000000E+00 -0.00000000000E+00 -0.36454019012E+03  0.36454019012E+03  0.00000000000E+00 0.  1.
         23    2    1    2    0    0  0.40233635397E+03  0.27183340609E+03  0.86597169083E+02  0.50078725643E+03  0.86722915728E+02 0.  0.
    5000000    2    1    2    0    0 -0.40233635397E+03 -0.27183340609E+03  0.78833530478E+03  0.11032255977E+04  0.59988850981E+03 0.  0.
         23    2    4    4    0    0 -0.34293590658E+03 -0.32773855391E+03  0.23565957828E+03  0.53756059206E+03  0.91751607916E+02 0.  0.
         23    2    4    4    0    0 -0.59400447386E+02  0.55905147817E+02  0.55267572650E+03  0.56566500562E+03  0.88727905485E+02 0.  0.
          1    1    3    3  502    0  0.19016484478E+03  0.18031674348E+03  0.51376596635E+02  0.26705121391E+03  0.00000000000E+00 0. -1.
         -1    1    3    3    0  502  0.21217150919E+03  0.91516662614E+02  0.35220572448E+02  0.23373604251E+03  0.00000000000E+00 0.  1.
         15    1    5    5    0    0 -0.10475760211E+03 -0.67814748148E+02  0.99561720732E+02  0.15965177491E+03  0.17770000000E+01 0.  1.
        -15    1    5    5    0    0 -0.23817830447E+03 -0.25992380576E+03  0.13609785755E+03  0.37790881715E+03  0.17770000000E+01 0. -1.
          4    1    6    6  503    0 -0.22514408830E+02 -0.94656616074E-01  0.37628917958E+03  0.37696213899E+03  0.00000000000E+00 0. -1.
         -4    1    6    6    0  503 -0.36886038555E+02  0.55999804433E+02  0.17638654693E+03  0.18870286663E+03  0.00000000000E+00 0.  1.
<mgrwt>
<rscale>  0 0.53002828E+03</rscale>
<asrwt>0</asrwt>
<pdfrwt beam="1">  1        2 0.19068810E+00 0.53002828E+03</pdfrwt>
<pdfrwt beam="2">  1       -2 0.56083107E-01 0.53002828E+03</pdfrwt>
<totfact> 0.55874174E+01</totfact>
</mgrwt>
</event>
<event>
12    1  0.9321077E-008  0.7191564E+03  0.7818608E-02  0.9685022E-01
          2   -1    0    0  501    0  0.00000000000E+00  0.00000000000E+00  0.20888917166E+04  0.20888917166E+04  0.00000000000E+00 0. -1.
         -2   -1    0    0    0  501 -0.00000000000E+00 -0.00000000000E+00 -0.65684475512E+03  0.65684475512E+03  0.00000000000E+00 0.  1.
         23    2    1    2    0    0  0.61228752838E+03 -0.20438907126E+03 -0.36300694330E+03  0.74602886050E+03  0.90078354596E+02 0.  0.
    5000000    2    1    2    0    0 -0.61228752838E+03  0.20438907126E+03  0.17950539048E+04  0.19997076112E+04  0.59995091420E+03 0.  0.
         23    2    4    4    0    0  0.55690912353E+02  0.70439148885E+02  0.66059690908E+03  0.67302904721E+03  0.92285809756E+02 0.  0.
         23    2    4    4    0    0 -0.66797844073E+03  0.13394992237E+03  0.11344569957E+04  0.13266785640E+04  0.94580960763E+02 0.  0.
          3    1    3    3  502    0  0.33740008563E+03 -0.12367304417E+03 -0.15180243117E+03  0.39009975358E+03  0.00000000000E+00 0. -1.
         -3    1    3    3    0  502  0.27488744274E+03 -0.80716027090E+02 -0.21120451213E+03  0.35592910692E+03  0.00000000000E+00 0.  1.
         15    1    5    5    0    0 -0.73214315547E+01 -0.35023357718E+01  0.38917318854E+01  0.91745856548E+01  0.17770000000E+01 0.  1.
        -15    1    5    5    0    0  0.63012343907E+02  0.73941484657E+02  0.65670517720E+03  0.66385446155E+03  0.17770000000E+01 0. -1.
          4    1    6    6  503    0 -0.38719995978E+03  0.32935932530E+02  0.60950613710E+03  0.72284598337E+03  0.00000000000E+00 0.  1.
         -4    1    6    6    0  503 -0.28077848095E+03  0.10101398984E+03  0.52495085859E+03  0.60383258064E+03  0.00000000000E+00 0. -1.
<mgrwt>
<rscale>  0 0.71915641E+03</rscale>
<asrwt>0</asrwt>
<pdfrwt beam="1">  1        2 0.32136795E+00 0.71915641E+03</pdfrwt>
<pdfrwt beam="2">  1       -2 0.10105304E+00 0.71915641E+03</pdfrwt>
<totfact> 0.50124585E+00</totfact>
</mgrwt>
</event>
<event>
12    1  0.9321077E-008  0.5295277E+03  0.7818608E-02  0.1006347E+00
          1   -1    0    0  501    0  0.00000000000E+00  0.00000000000E+00  0.57934989838E+03  0.57934989838E+03  0.00000000000E+00 0. -1.
         -1   -1    0    0    0  501 -0.00000000000E+00 -0.00000000000E+00 -0.51879701050E+03  0.51879701050E+03  0.00000000000E+00 0.  1.
         23    2    1    2    0    0 -0.37455215279E+03  0.41977450870E+02  0.20513359321E+02  0.38840860834E+03  0.91591634862E+02 0.  0.
    5000000    2    1    2    0    0  0.37455215279E+03 -0.41977450870E+02  0.40039528555E+02  0.70973830055E+03  0.60006155507E+03 0.  0.
         23    2    4    4    0    0  0.95296800088E+02 -0.27890676275E+03  0.10684494945E+03  0.32641032841E+03  0.90870219833E+02 0.  0.
         23    2    4    4    0    0  0.27925535270E+03  0.23692931188E+03 -0.66805420898E+02  0.38332797214E+03  0.91423843301E+02 0.  0.
          1    1    3    3  502    0 -0.72360220049E+02 -0.75240159365E+01  0.37249557179E+02  0.81732134264E+02  0.00000000000E+00 0. -1.
         -1    1    3    3    0  502 -0.30219193274E+03  0.49501466807E+02 -0.16736197858E+02  0.30667647407E+03  0.00000000000E+00 0.  1.
         15    1    5    5    0    0 -0.71291844773E+01 -0.10182730035E+03  0.19351815979E+02  0.10390993638E+03  0.17770000000E+01 0. -1.
        -15    1    5    5    0    0  0.10242598457E+03 -0.17707946240E+03  0.87493133475E+02  0.22250039203E+03  0.17770000000E+01 0.  1.
          2    1    6    6  503    0  0.85162822261E+02  0.31506557433E+02  0.74885364474E+01  0.91112280373E+02  0.00000000000E+00 0. -1.
         -2    1    6    6    0  503  0.19409253044E+03  0.20542275444E+03 -0.74293957346E+02  0.29221569177E+03  0.00000000000E+00 0.  1.
<mgrwt>
<rscale>  0 0.52952774E+03</rscale>
<asrwt>0</asrwt>
<pdfrwt beam="1">  1        1 0.89130753E-01 0.52952774E+03</pdfrwt>
<pdfrwt beam="2">  1       -1 0.79814925E-01 0.52952774E+03</pdfrwt>
<totfact> 0.58914609E+01</totfact>
</mgrwt>
</event>
<event>
12    1  0.9321077E-008  0.7118093E+03  0.7818608E-02  0.9697247E-01
          2   -1    0    0  501    0  0.00000000000E+00  0.00000000000E+00  0.57566353762E+03  0.57566353762E+03  0.00000000000E+00 0.  1.
         -2   -1    0    0    0  501 -0.00000000000E+00 -0.00000000000E+00 -0.11003912516E+04  0.11003912516E+04  0.00000000000E+00 0. -1.
         23    2    1    2    0    0 -0.10862822893E+03 -0.62208802104E+03 -0.48953554162E+03  0.80419480673E+03  0.91052966032E+02 0.  0.
    5000000    2    1    2    0    0  0.10862822893E+03  0.62208802104E+03 -0.35192172362E+02  0.87185998248E+03  0.60008977830E+03 0.  0.
         23    2    4    4    0    0  0.26075652950E+03  0.52955661557E+03 -0.18091575266E+03  0.62392666918E+03  0.90165415676E+02 0.  0.
         23    2    4    4    0    0 -0.15212830057E+03  0.92531405467E+02  0.14572358029E+03  0.24793331330E+03  0.92360625600E+02 0.  0.
          1    1    3    3  502    0 -0.19872341114E+02 -0.37402184149E+03 -0.28458215027E+03  0.47039796779E+03  0.00000000000E+00 0. -1.
         -1    1    3    3    0  502 -0.88755887819E+02 -0.24806617955E+03 -0.20495339135E+03  0.33379683894E+03  0.00000000000E+00 0.  1.
         15    1    5    5    0    0  0.89524163473E+02  0.16117376928E+03 -0.99854069096E+02  0.20967964277E+03  0.17770000000E+01 0. -1.
        -15    1    5    5    0    0  0.17123236602E+03  0.36838284629E+03 -0.81061683561E+02  0.41424702641E+03  0.17770000000E+01 0.  1.
          4    1    6    6  503    0  0.82592128676E+01 -0.24137960254E+01  0.23559722858E+02  0.25081896850E+02  0.00000000000E+00 0. -1.
         -4    1    6    6    0  503 -0.16038751343E+03  0.94945201492E+02  0.12216385744E+03  0.22285141645E+03  0.00000000000E+00 0.  1.
<mgrwt>
<rscale>  0 0.71180927E+03</rscale>
<asrwt>0</asrwt>
<pdfrwt beam="1">  1        2 0.88563621E-01 0.71180927E+03</pdfrwt>
<pdfrwt beam="2">  1       -2 0.16929096E+00 0.71180927E+03</pdfrwt>
<totfact> 0.11467359E+01</totfact>
</mgrwt>
</event>
<event>
12    1  0.9321077E-008  0.5039127E+03  0.7818608E-02  0.1012763E+00
          1   -1    0    0  501    0  0.00000000000E+00  0.00000000000E+00  0.29529639101E+04  0.29529639101E+04  0.00000000000E+00 0. -1.
         -1   -1    0    0    0  501 -0.00000000000E+00 -0.00000000000E+00 -0.27532157624E+03  0.27532157624E+03  0.00000000000E+00 0.  1.
         23    2    1    2    0    0  0.32238365438E+03  0.10093775602E+03 -0.10046048154E+03  0.36610517987E+03  0.99101176472E+02 0.  0.
    5000000    2    1    2    0    0 -0.32238365438E+03 -0.10093775602E+03  0.27781028154E+04  0.28621803064E+04  0.60008432957E+03 0.  0.
         23    2    4    4    0    0 -0.23783890812E+03  0.21947480270E+03  0.11328448390E+04  0.11814861458E+04  0.88518631730E+02 0.  0.
         23    2    4    4    0    0 -0.84544746262E+02 -0.32041255872E+03  0.16452579764E+04  0.16806941607E+04  0.89705245063E+02 0.  0.
          3    1    3    3  502    0  0.11079008893E+03 -0.49328625138E+01 -0.59929701994E+02  0.12605691618E+03  0.00000000000E+00 0. -1.
         -3    1    3    3    0  502  0.21159356546E+03  0.10587061853E+03 -0.40530779543E+02  0.24004826369E+03  0.00000000000E+00 0.  1.
         15    1    5    5    0    0 -0.37884698810E+02  0.16901423736E+02  0.71967679849E+02  0.83086781139E+02  0.17770000000E+01 0. -1.
        -15    1    5    5    0    0 -0.19995420931E+03  0.20257337896E+03  0.10608771591E+04  0.10983993646E+04  0.17770000000E+01 0.  1.
          4    1    6    6  503    0 -0.84340846354E+02 -0.25184301991E+03  0.11243625975E+04  0.11553049535E+04  0.00000000000E+00 0. -1.
         -4    1    6    6    0  503 -0.20389990808E+00 -0.68569538807E+02  0.52089537891E+03  0.52538920715E+03  0.00000000000E+00 0.  1.
<mgrwt>
<rscale>  0 0.50391270E+03</rscale>
<asrwt>0</asrwt>
<pdfrwt beam="1">  1        1 0.45430212E+00 0.50391270E+03</pdfrwt>
<pdfrwt beam="2">  1       -1 0.42357168E-01 0.50391270E+03</pdfrwt>
<totfact> 0.40158087E+00</totfact>
</mgrwt>
</event>
<event>
12    1  0.9321077E-008  0.1261129E+04  0.7818608E-02  0.9060971E-01
         -1   -1    0    0    0  501 -0.00000000000E+00  0.00000000000E+00  0.18473859442E+04  0.18473859442E+04  0.00000000000E+00 0.  1.
          1   -1    0    0  501    0  0.00000000000E+00 -0.00000000000E+00 -0.90372946315E+03  0.90372946315E+03  0.00000000000E+00 0. -1.
         23    2    1    2    0    0 -0.11749408887E+04  0.32170443645E+03  0.36950448053E+03  0.12764896107E+04  0.94405130624E+02 0.  0.
    5000000    2    1    2    0    0  0.11749408887E+04 -0.32170443645E+03  0.57415200050E+03  0.14746257966E+04  0.60074194459E+03 0.  0.
         23    2    4    4    0    0  0.10332991691E+04 -0.40875644617E+03  0.62427175283E+03  0.12781934240E+04  0.96302660955E+02 0.  0.
         23    2    4    4    0    0  0.14164171957E+03  0.87052009722E+02 -0.50119752331E+02  0.19643237263E+03  0.91832773699E+02 0.  0.
          1    1    3    3  502    0 -0.43248865485E+03  0.11984791373E+03  0.18398116264E+03  0.48503507833E+03  0.00000000000E+00 0. -1.
         -1    1    3    3    0  502 -0.74245223387E+03  0.20185652272E+03  0.18552331789E+03  0.79145453237E+03  0.00000000000E+00 0.  1.
         15    1    5    5    0    0  0.79387030440E+02 -0.57006766828E+02  0.69928863340E+02  0.12018850080E+03  0.17770000000E+01 0. -1.
        -15    1    5    5    0    0  0.95391213871E+03 -0.35174967935E+03  0.55434288949E+03  0.11580049232E+04  0.17770000000E+01 0.  1.
          2    1    6    6  503    0  0.81680788336E+02  0.99134434471E+02 -0.39207377555E+02  0.13430043089E+03  0.00000000000E+00 0.  1.
         -2    1    6    6    0  503  0.59960931230E+02 -0.12082424750E+02 -0.10912374775E+02  0.62131941746E+02  0.00000000000E+00 0. -1.
<mgrwt>
<rscale>  0 0.12611288E+04</rscale>
<asrwt>0</asrwt>
<pdfrwt beam="1">  1        1 0.13903530E+00 0.12611288E+04</pdfrwt>
<pdfrwt beam="2">  1       -1 0.28421322E+00 0.12611288E+04</pdfrwt>
<totfact> 0.73832952E-01</totfact>
</mgrwt>
</event>
<event>
12    1  0.9321077E-008  0.6750326E+03  0.7818608E-02  0.9760909E-01
          1   -1    0    0  501    0  0.00000000000E+00  0.00000000000E+00  0.88578642828E+03  0.88578642828E+03  0.00000000000E+00 0. -1.
         -1   -1    0    0    0  501 -0.00000000000E+00 -0.00000000000E+00 -0.60229456796E+03  0.60229456796E+03  0.00000000000E+00 0.  1.
         23    2    1    2    0    0  0.12457081994E+03  0.56596106083E+03  0.28978882136E+03  0.65389161138E+03  0.88129829816E+02 0.  0.
    5000000    2    1    2    0    0 -0.12457081994E+03 -0.56596106083E+03 -0.62969610291E+01  0.83418938486E+03  0.60000205545E+03 0.  0.
         23    2    4    4    0    0  0.16837162817E+03 -0.35747947282E+03 -0.15673453046E+03  0.43449534219E+03  0.89888323367E+02 0.  0.
         23    2    4    4    0    0 -0.29294244811E+03 -0.20848158800E+03  0.15043756944E+03  0.39969404267E+03  0.88566444044E+02 0.  0.
          1    1    3    3  502    0  0.19983160246E+02  0.22700069040E+03  0.78585627797E+02  0.24104842051E+03  0.00000000000E+00 0. -1.
         -1    1    3    3    0  502  0.10458765969E+03  0.33896037043E+03  0.21120319356E+03  0.41284319087E+03  0.00000000000E+00 0.  1.
         15    1    5    5    0    0  0.35354912046E+01 -0.96341508628E+02 -0.37984717234E+02  0.10363485155E+03  0.17770000000E+01 0.  1.
        -15    1    5    5    0    0  0.16483613697E+03 -0.26113796420E+03 -0.11874981323E+03  0.33086049064E+03  0.17770000000E+01 0. -1.
          4    1    6    6  503    0 -0.15857199484E+03 -0.85942026155E+02  0.11645038088E+03  0.21469001051E+03  0.00000000000E+00 0. -1.
         -4    1    6    6    0  503 -0.13437045327E+03 -0.12253956185E+03  0.33987188555E+02  0.18500403216E+03  0.00000000000E+00 0.  1.
<mgrwt>
<rscale>  0 0.67503262E+03</rscale>
<asrwt>0</asrwt>
<pdfrwt beam="1">  1        1 0.13627483E+00 0.67503262E+03</pdfrwt>
<pdfrwt beam="2">  1       -1 0.92660703E-01 0.67503262E+03</pdfrwt>
<totfact> 0.21954565E+01</totfact>
</mgrwt>
</event>
<event>
12    1  0.9321077E-008  0.7671252E+03  0.7818608E-02  0.9608860E-01
         -1   -1    0    0    0  501 -0.00000000000E+00  0.00000000000E+00  0.13385595588E+04  0.13385595588E+04  0.00000000000E+00 0.  1.
          1   -1    0    0  501    0  0.00000000000E+00 -0.00000000000E+00 -0.53639283388E+03  0.53639283388E+03  0.00000000000E+00 0. -1.
         23    2    1    2    0    0 -0.62990872762E+03  0.29086556401E+03  0.74431602640E+02  0.70395743542E+03  0.92888244466E+02 0.  0.
    5000000    2    1    2    0    0  0.62990872762E+03 -0.29086556401E+03  0.72773512224E+03  0.11709949572E+04  0.60020246601E+03 0.  0.
         23    2    4    4    0    0  0.43225844034E+03  0.48362538570E+02  0.60449367522E+03  0.75022109973E+03  0.90734782312E+02 0.  0.
         23    2    4    4    0    0  0.19765028728E+03 -0.33922810258E+03  0.12324144702E+03  0.42077385748E+03  0.87868328942E+02 0.  0.
          3    1    3    3  502    0 -0.85014403974E+02  0.74661059673E+01  0.55164606724E+00  0.85343400066E+02  0.00000000000E+00 0. -1.
         -3    1    3    3    0  502 -0.54489432365E+03  0.28339945804E+03  0.73879956572E+02  0.61861403536E+03  0.00000000000E+00 0.  1.
         15    1    5    5    0    0  0.10114934076E+03  0.41637475853E+02  0.11057461889E+03  0.15554668946E+03  0.17770000000E+01 0. -1.
        -15    1    5    5    0    0  0.33110909958E+03  0.67250627168E+01  0.49391905633E+03  0.59467441027E+03  0.17770000000E+01 0.  1.
          1    1    6    6  503    0  0.18773896332E+03 -0.33345268889E+03  0.13359624151E+03  0.40532032989E+03  0.00000000000E+00 0. -1.
         -1    1    6    6    0  503  0.99113239572E+01 -0.57754136884E+01 -0.10354794491E+02  0.15453527585E+02  0.00000000000E+00 0.  1.
<mgrwt>
<rscale>  0 0.76712520E+03</rscale>
<asrwt>0</asrwt>
<pdfrwt beam="1">  1        1 0.82521975E-01 0.76712520E+03</pdfrwt>
<pdfrwt beam="2">  1       -1 0.20593224E+00 0.76712520E+03</pdfrwt>
<totfact> 0.56886851E+00</totfact>
</mgrwt>
</event>
<event>
12    1  0.9321077E-008  0.1412915E+04  0.7818608E-02  0.8944523E-01
         -1   -1    0    0    0  501 -0.00000000000E+00  0.00000000000E+00  0.28347536309E+04  0.28347536309E+04  0.00000000000E+00 0.  1.
          1   -1    0    0  501    0  0.00000000000E+00 -0.00000000000E+00 -0.10102722015E+04  0.10102722015E+04  0.00000000000E+00 0. -1.
         23    2    1    2    0    0 -0.22131515060E+03 -0.13480147549E+04 -0.14249985390E+03  0.13761871423E+04  0.86375152434E+02 0.  0.
    5000000    2    1    2    0    0  0.22131515060E+03  0.13480147549E+04  0.19669812833E+04  0.24688386900E+04  0.60002077730E+03 0.  0.
         23    2    4    4    0    0  0.19723895125E+03  0.13620726656E+04  0.19180759410E+04  0.23625841780E+04  0.92970598821E+02 0.  0.
         23    2    4    4    0    0  0.24076199354E+02 -0.14057910717E+02  0.48905342332E+02  0.10625451208E+03  0.90116594474E+02 0.  0.
          3    1    3    3  502    0 -0.41479319511E+02 -0.10607687618E+03 -0.11530245271E+02  0.11448049687E+03  0.00000000000E+00 0. -1.
         -3    1    3    3    0  502 -0.17983583109E+03 -0.12419378787E+04 -0.13096960863E+03  0.12617066454E+04  0.00000000000E+00 0.  1.
         15    1    5    5    0    0  0.12485435504E+03  0.87976233510E+03  0.11611096704E+04  0.14621043741E+04  0.17770000000E+01 0. -1.
        -15    1    5    5    0    0  0.72384596207E+02  0.48231033052E+03  0.75696627055E+03  0.90047980387E+03  0.17770000000E+01 0.  1.
          3    1    6    6  503    0  0.51582084890E+02 -0.13121654038E+02  0.56582647496E+02  0.77681949537E+02  0.00000000000E+00 0. -1.
         -3    1    6    6    0  503 -0.27505885536E+02 -0.93625667975E+00 -0.76773051634E+01  0.28572562543E+02  0.00000000000E+00 0.  1.
<mgrwt>
<rscale>  0 0.14129151E+04</rscale>
<asrwt>0</asrwt>
<pdfrwt beam="1">  1        1 0.15542649E+00 0.14129151E+04</pdfrwt>
<pdfrwt beam="2">  1       -1 0.43611594E+00 0.14129151E+04</pdfrwt>
<totfact> 0.57683804E-02</totfact>
</mgrwt>
</event>
<event>
12    1  0.9321077E-008  0.9017094E+03  0.7818608E-02  0.9423447E-01
          1   -1    0    0  501    0  0.00000000000E+00  0.00000000000E+00  0.10719393949E+04  0.10719393949E+04  0.00000000000E+00 0. -1.
         -1   -1    0    0    0  501 -0.00000000000E+00 -0.00000000000E+00 -0.82339329158E+03  0.82339329158E+03  0.00000000000E+00 0.  1.
         23    2    1    2    0    0 -0.81443990093E+03  0.20743442784E+03  0.14194469418E+03  0.85722537239E+03  0.91354522502E+02 0.  0.
    5000000    2    1    2    0    0  0.81443990093E+03 -0.20743442784E+03  0.10660140911E+03  0.10381073140E+04  0.59996794995E+03 0.  0.
         23    2    4    4    0    0  0.21490908847E+03  0.13749666133E+03  0.19571548467E+03  0.33440870436E+03  0.91833449402E+02 0.  0.
         23    2    4    4    0    0  0.59953081247E+03 -0.34493108917E+03 -0.89114075557E+02  0.70369860969E+03  0.93998741701E+02 0.  0.
          3    1    3    3  502    0 -0.34820259011E+03  0.62078809559E+02  0.97220881781E+02  0.36681156226E+03  0.00000000000E+00 0. -1.
         -3    1    3    3    0  502 -0.46623731083E+03  0.14535561828E+03  0.44723812395E+02  0.49041381013E+03  0.00000000000E+00 0.  1.
         15    1    5    5    0    0  0.15165175394E+03  0.13816026621E+03  0.16864472590E+03  0.26557619422E+03  0.17770000000E+01 0. -1.
        -15    1    5    5    0    0  0.63257334527E+02 -0.66360487876E+00  0.27070758764E+02  0.68832510138E+02  0.17770000000E+01 0.  1.
          3    1    6    6  503    0  0.47613407567E+03 -0.25414044252E+03 -0.10447326643E+03  0.54973237665E+03  0.00000000000E+00 0. -1.
         -3    1    6    6    0  503  0.12339673680E+03 -0.90790646655E+02  0.15359190878E+02  0.15396623304E+03  0.00000000000E+00 0.  1.
<mgrwt>
<rscale>  0 0.90170943E+03</rscale>
<asrwt>0</asrwt>
<pdfrwt beam="1">  1        1 0.16491375E+00 0.90170943E+03</pdfrwt>
<pdfrwt beam="2">  1       -1 0.12667589E+00 0.90170943E+03</pdfrwt>
<totfact> 0.73090282E+00</totfact>
</mgrwt>
</event>
<event>
12    1  0.9321077E-008  0.5918382E+03  0.7818608E-02  0.9922485E-01
         -1   -1    0    0    0  501 -0.00000000000E+00  0.00000000000E+00  0.13494188379E+04  0.13494188379E+04  0.00000000000E+00 0.  1.
          1   -1    0    0  501    0  0.00000000000E+00 -0.00000000000E+00 -0.27659439428E+03  0.27659439428E+03  0.00000000000E+00 0. -1.
         23    2    1    2    0    0  0.91824944750E+02  0.43872157103E+03  0.28581969287E+03  0.53959234245E+03  0.92512495576E+02 0.  0.
    5000000    2    1    2    0    0 -0.91824944750E+02 -0.43872157103E+03  0.78700475077E+03  0.10864208897E+04  0.60002119511E+03 0.  0.
         23    2    4    4    0    0 -0.30295368389E+03 -0.87266091927E+02  0.33765417162E+03  0.47141442945E+03  0.93941041595E+02 0.  0.
         23    2    4    4    0    0  0.21112873914E+03 -0.35145547910E+03  0.44935057914E+03  0.61500646029E+03  0.90668103268E+02 0.  0.
          2    1    3    3  502    0  0.11430936641E+02  0.32378939266E+02 -0.32330843821E+01  0.34489344081E+02  0.00000000000E+00 0. -1.
         -2    1    3    3    0  502  0.80394008109E+02  0.40634263176E+03  0.28905277726E+03  0.50510299837E+03  0.00000000000E+00 0.  1.
         15    1    5    5    0    0 -0.26415433640E+03 -0.83558731680E+02  0.24110474134E+03  0.36727949726E+03  0.17770000000E+01 0. -1.
        -15    1    5    5    0    0 -0.38799347482E+02 -0.37073602476E+01  0.96549430280E+02  0.10413493219E+03  0.17770000000E+01 0.  1.
          4    1    6    6  503    0  0.13441197206E+03 -0.29376386847E+03  0.32938632205E+03  0.46136659806E+03  0.00000000000E+00 0. -1.
         -4    1    6    6    0  503  0.76716767075E+02 -0.57691610626E+02  0.11996425709E+03  0.15363986223E+03  0.00000000000E+00 0.  1.
<mgrwt>
<rscale>  0 0.59183820E+03</rscale>
<asrwt>0</asrwt>
<pdfrwt beam="1">  1        1 0.42552984E-01 0.59183820E+03</pdfrwt>
<pdfrwt beam="2">  1       -1 0.20760290E+00 0.59183820E+03</pdfrwt>
<totfact> 0.13665475E+01</totfact>
</mgrwt>
</event>
<event>
12    1  0.9321077E-008  0.8818277E+03  0.7818608E-02  0.9448587E-01
          2   -1    0    0  501    0  0.00000000000E+00  0.00000000000E+00  0.84758747801E+03  0.84758747801E+03  0.00000000000E+00 0. -1.
         -2   -1    0    0    0  501 -0.00000000000E+00 -0.00000000000E+00 -0.93851825872E+03  0.93851825872E+03  0.00000000000E+00 0.  1.
         23    2    1    2    0    0 -0.50791093212E+02  0.78624632998E+03 -0.57424656976E+02  0.79523221586E+03  0.91288878560E+02 0.  0.
    5000000    2    1    2    0    0  0.50791093212E+02 -0.78624632998E+03 -0.33506123731E+02  0.99087352087E+03  0.59995387112E+03 0.  0.
         23    2    4    4    0    0 -0.35082651163E+02 -0.83358933994E+03 -0.91814378822E+02  0.84454531270E+03  0.93407306773E+02 0.  0.
         23    2    4    4    0    0  0.85873744375E+02  0.47343009958E+02  0.58308255090E+02  0.14632820817E+03  0.91632043143E+02 0.  0.
          1    1    3    3  502    0 -0.35438127906E+02  0.17528086076E+03 -0.42900500332E+02  0.18390131589E+03  0.00000000000E+00 0. -1.
         -1    1    3    3    0  502 -0.15352965305E+02  0.61096546923E+03 -0.14524156644E+02  0.61133089997E+03  0.00000000000E+00 0.  1.
         15    1    5    5    0    0  0.26076158926E+02 -0.47292190612E+03 -0.46178305204E+02  0.47588936630E+03  0.17770000000E+01 0. -1.
        -15    1    5    5    0    0 -0.61158810089E+02 -0.36066743382E+03 -0.45636073618E+02  0.36865594640E+03  0.17770000000E+01 0.  1.
          4    1    6    6  503    0  0.10454648951E+03  0.30110097216E+02  0.46852530790E+02  0.11845567130E+03  0.00000000000E+00 0. -1.
         -4    1    6    6    0  503 -0.18672745131E+02  0.17232912742E+02  0.11455724300E+02  0.27872536870E+02  0.00000000000E+00 0.  1.
<mgrwt>
<rscale>  0 0.88182767E+03</rscale>
<asrwt>0</asrwt>
<pdfrwt beam="1">  1        2 0.13039807E+00 0.88182767E+03</pdfrwt>
<pdfrwt beam="2">  1       -2 0.14438742E+00 0.88182767E+03</pdfrwt>
<totfact> 0.10583144E+01</totfact>
</mgrwt>
</event>
<event>
12    1  0.9321077E-008  0.5957825E+03  0.7818608E-02  0.9914195E-01
          2   -1    0    0  501    0  0.00000000000E+00  0.00000000000E+00  0.11339569243E+04  0.11339569243E+04  0.00000000000E+00 0. -1.
         -2   -1    0    0    0  501 -0.00000000000E+00 -0.00000000000E+00 -0.58903206422E+03  0.58903206422E+03  0.00000000000E+00 0.  1.
         23    2    1    2    0    0 -0.19294159487E+03  0.40709335774E+03 -0.33350197755E+03  0.56783868895E+03  0.90916152021E+02 0.  0.
    5000000    2    1    2    0    0  0.19294159487E+03 -0.40709335774E+03  0.87842683759E+03  0.11551502995E+04  0.59982251085E+03 0.  0.
         23    2    4    4    0    0  0.39347704358E+03 -0.25500567707E+03  0.63060526539E+03  0.79038091840E+03  0.84775682045E+02 0.  0.
         23    2    4    4    0    0 -0.20053544871E+03 -0.15208768067E+03  0.24782157220E+03  0.36476938112E+03  0.91082605117E+02 0.  0.
          1    1    3    3  502    0 -0.11467505417E+03  0.18595578800E+03 -0.20866076115E+03  0.30210798795E+03  0.00000000000E+00 0. -1.
         -1    1    3    3    0  502 -0.78266540697E+02  0.22113756974E+03 -0.12484121640E+03  0.26573070100E+03  0.00000000000E+00 0.  1.
         15    1    5    5    0    0  0.59630297878E+02 -0.18357996074E+02  0.12672569523E+03  0.14126339938E+03  0.17770000000E+01 0. -1.
        -15    1    5    5    0    0  0.33384674570E+03 -0.23664768100E+03  0.50387957016E+03  0.64911751901E+03  0.17770000000E+01 0.  1.
          1    1    6    6  503    0 -0.13358873247E+03 -0.14863122307E+03  0.19729302497E+03  0.28082330319E+03  0.00000000000E+00 0. -1.
         -1    1    6    6    0  503 -0.66946716237E+02 -0.34564575969E+01  0.50528547234E+02  0.83946077929E+02  0.00000000000E+00 0.  1.
<mgrwt>
<rscale>  0 0.59578246E+03</rscale>
<asrwt>0</asrwt>
<pdfrwt beam="1">  1        2 0.17445491E+00 0.59578246E+03</pdfrwt>
<pdfrwt beam="2">  1       -2 0.90620317E-01 0.59578246E+03</pdfrwt>
<totfact> 0.22402528E+01</totfact>
</mgrwt>
</event>
<event>
12    1  0.9321077E-008  0.8753637E+03  0.7818608E-02  0.9456913E-01
          1   -1    0    0  501    0  0.00000000000E+00  0.00000000000E+00  0.18151231397E+04  0.18151231397E+04  0.00000000000E+00 0. -1.
         -1   -1    0    0    0  501 -0.00000000000E+00 -0.00000000000E+00 -0.49062971922E+03  0.49062971922E+03  0.00000000000E+00 0.  1.
         23    2    1    2    0    0  0.77432274121E+03 -0.17333080483E+02  0.18202706335E+03  0.80079995973E+03  0.90942731890E+02 0.  0.
    5000000    2    1    2    0    0 -0.77432274121E+03  0.17333080483E+02  0.11424663572E+04  0.15049528992E+04  0.59981472838E+03 0.  0.
         23    2    4    4    0    0 -0.59691223117E+03 -0.23777790312E+03  0.83206178223E+03  0.10553806110E+04  0.93053112243E+02 0.  0.
         23    2    4    4    0    0 -0.17741051004E+03  0.25511098361E+03  0.31040457492E+03  0.44957228821E+03  0.95959049405E+02 0.  0.
          3    1    3    3  502    0  0.45478956133E+03  0.22287645499E+02  0.13822902203E+03  0.47585454371E+03  0.00000000000E+00 0. -1.
         -3    1    3    3    0  502  0.31953317988E+03 -0.39620725982E+02  0.43798041311E+02  0.32494541602E+03  0.00000000000E+00 0.  1.
         15    1    5    5    0    0 -0.88360543149E+02 -0.71389984359E+02  0.16252680715E+03  0.19829835154E+03  0.17770000000E+01 0.  1.
        -15    1    5    5    0    0 -0.50855168802E+03 -0.16638791876E+03  0.66953497508E+03  0.85708225946E+03  0.17770000000E+01 0. -1.
          1    1    6    6  503    0 -0.82673211961E+02  0.44744465796E+02  0.10130403320E+03  0.13820070310E+03  0.00000000000E+00 0. -1.
         -1    1    6    6    0  503 -0.94737298078E+02  0.21036651781E+03  0.20910054172E+03  0.31137158511E+03  0.00000000000E+00 0.  1.
<mgrwt>
<rscale>  0 0.87536372E+03</rscale>
<asrwt>0</asrwt>
<pdfrwt beam="1">  1        1 0.27924971E+00 0.87536372E+03</pdfrwt>
<pdfrwt beam="2">  1       -1 0.75481496E-01 0.87536372E+03</pdfrwt>
<totfact> 0.71965334E+00</totfact>
</mgrwt>
</event>
<event>
12    1  0.9321077E-008  0.1018419E+04  0.7818608E-02  0.9288570E-01
          2   -1    0    0  501    0  0.00000000000E+00  0.00000000000E+00  0.93442468905E+03  0.93442468905E+03  0.00000000000E+00 0. -1.
         -2   -1    0    0    0  501 -0.00000000000E+00 -0.00000000000E+00 -0.13069788525E+04  0.13069788525E+04  0.00000000000E+00 0.  1.
         23    2    1    2    0    0  0.28261628810E+02 -0.96338230982E+03  0.17021486091E+03  0.98297897900E+03  0.91489779536E+02 0.  0.
    5000000    2    1    2    0    0 -0.28261628810E+02  0.96338230982E+03 -0.54276902431E+03  0.12584245625E+04  0.60010829959E+03 0.  0.
         23    2    4    4    0    0  0.20155088896E+03  0.30657741569E+03 -0.38316467893E+03  0.53880924093E+03  0.94274886791E+02 0.  0.
         23    2    4    4    0    0 -0.22981251777E+03  0.65680489412E+03 -0.15960434538E+03  0.71961532158E+03  0.90367038861E+02 0.  0.
          4    1    3    3  502    0  0.36417257570E+02 -0.30597825650E+03  0.21317193069E+02  0.30887429939E+03  0.00000000000E+00 0. -1.
         -4    1    3    3    0  502 -0.81556287607E+01 -0.65740405331E+03  0.14889766784E+03  0.67410467961E+03  0.00000000000E+00 0.  1.
         15    1    5    5    0    0  0.11627859623E+03  0.24010153997E+03 -0.23599687578E+03  0.35618414415E+03  0.17770000000E+01 0.  1.
        -15    1    5    5    0    0  0.85272292732E+02  0.66475875718E+02 -0.14716780315E+03  0.18262509678E+03  0.17770000000E+01 0. -1.
          1    1    6    6  503    0 -0.16007137959E+03  0.49162647923E+03 -0.78990472593E+02  0.52302861911E+03  0.00000000000E+00 0. -1.
         -1    1    6    6    0  503 -0.69741138180E+02  0.16517841489E+03 -0.80613872790E+02  0.19658670247E+03  0.00000000000E+00 0.  1.
<mgrwt>
<rscale>  0 0.10184193E+04</rscale>
<asrwt>0</asrwt>
<pdfrwt beam="1">  1        2 0.14375765E+00 0.10184193E+04</pdfrwt>
<pdfrwt beam="2">  1       -2 0.20107367E+00 0.10184193E+04</pdfrwt>
<totfact> 0.36034237E+00</totfact>
</mgrwt>
</event>
<event>
12    1  0.9321077E-008  0.8353479E+03  0.7818608E-02  0.9510216E-01
          1   -1    0    0  501    0  0.00000000000E+00  0.00000000000E+00  0.22991846226E+04  0.22991846226E+04  0.00000000000E+00 0.  1.
         -1   -1    0    0    0  501 -0.00000000000E+00 -0.00000000000E+00 -0.38408979073E+03  0.38408979073E+03  0.00000000000E+00 0. -1.
         23    2    1    2    0    0 -0.52087355233E+03  0.56796762591E+03  0.13437126839E+04  0.15518090809E+04  0.93011639382E+02 0.  0.
    5000000    2    1    2    0    0  0.52087355233E+03 -0.56796762591E+03  0.57138214793E+03  0.11314653324E+04  0.59986645002E+03 0.  0.
         23    2    4    4    0    0  0.53192255873E+03 -0.27156912276E+03  0.17713082081E+03  0.62975333465E+03  0.92317592538E+02 0.  0.
         23    2    4    4    0    0 -0.11049006407E+02 -0.29639850315E+03  0.39425132711E+03  0.50171199775E+03  0.91140915871E+02 0.  0.
          3    1    3    3  502    0 -0.14928372670E+03  0.17856571477E+03  0.49197842295E+03  0.54425555964E+03  0.00000000000E+00 0. -1.
         -3    1    3    3    0  502 -0.37158982562E+03  0.38940191114E+03  0.85173426094E+03  0.10075535212E+04  0.00000000000E+00 0.  1.
         15    1    5    5    0    0  0.48581706517E+03 -0.25169217390E+03  0.18763754568E+03  0.57842733121E+03  0.17770000000E+01 0.  1.
        -15    1    5    5    0    0  0.46105493569E+02 -0.19876948853E+02 -0.10506724861E+02  0.51326003441E+02  0.17770000000E+01 0. -1.
          1    1    6    6  503    0 -0.23190754177E+02 -0.45033033206E+02  0.11577316543E+03  0.12636934356E+03  0.00000000000E+00 0. -1.
         -1    1    6    6    0  503  0.12141747770E+02 -0.25136546995E+03  0.27847816169E+03  0.37534265419E+03  0.00000000000E+00 0.  1.
<mgrwt>
<rscale>  0 0.83534793E+03</rscale>
<asrwt>0</asrwt>
<pdfrwt beam="1">  1        1 0.35372070E+00 0.83534793E+03</pdfrwt>
<pdfrwt beam="2">  1       -1 0.59090738E-01 0.83534793E+03</pdfrwt>
<totfact> 0.56236915E+00</totfact>
</mgrwt>
</event>
<event>
12    1  0.9321077E-008  0.5244399E+03  0.7818608E-02  0.1007590E+00
         -2   -1    0    0    0  501 -0.00000000000E+00  0.00000000000E+00  0.17139457040E+03  0.17139457040E+03  0.00000000000E+00 0.  1.
          2   -1    0    0  501    0  0.00000000000E+00 -0.00000000000E+00 -0.19314154753E+04  0.19314154753E+04  0.00000000000E+00 0. -1.
         23    2    1    2    0    0  0.14683410134E+03  0.38075870941E+03 -0.53536706403E+03  0.67928833985E+03  0.90979708207E+02 0.  0.
    5000000    2    1    2    0    0 -0.14683410134E+03 -0.38075870941E+03 -0.12246538409E+04  0.14235217058E+04  0.60008296838E+03 0.  0.
         23    2    4    4    0    0  0.65094364185E+02  0.71620518547E+02 -0.50846041254E+02  0.14459616077E+03  0.94635906889E+02 0.  0.
         23    2    4    4    0    0 -0.21192846553E+03 -0.45237922796E+03 -0.11738077996E+04  0.12789255451E+04  0.90912919943E+02 0.  0.
          4    1    3    3  502    0  0.13919260049E+03  0.24465948458E+03 -0.37285170365E+03  0.46717366828E+03  0.00000000000E+00 0. -1.
         -4    1    3    3    0  502  0.76415008519E+01  0.13609922483E+03 -0.16251536038E+03  0.21211467157E+03  0.00000000000E+00 0.  1.
         15    1    5    5    0    0  0.11145367726E+02  0.74897697814E+02 -0.91165688754E+01  0.76289933259E+02  0.17770000000E+01 0. -1.
        -15    1    5    5    0    0  0.53948996459E+02 -0.32771792669E+01 -0.41729472378E+02  0.68306227512E+02  0.17770000000E+01 0.  1.
          2    1    6    6  503    0 -0.66917248404E+02 -0.19054598059E+03 -0.37569429107E+03  0.42653474559E+03  0.00000000000E+00 0. -1.
         -2    1    6    6    0  503 -0.14501121712E+03 -0.26183324736E+03 -0.79811350854E+03  0.85239079948E+03  0.00000000000E+00 0.  1.
<mgrwt>
<rscale>  0 0.52443991E+03</rscale>
<asrwt>0</asrwt>
<pdfrwt beam="1">  1        2 0.29714084E+00 0.52443991E+03</pdfrwt>
<pdfrwt beam="2">  1       -2 0.26368396E-01 0.52443991E+03</pdfrwt>
<totfact> 0.10002316E+02</totfact>
</mgrwt>
</event>
<event>
12    1  0.9321077E-008  0.6709394E+03  0.7818608E-02  0.9768262E-01
         -2   -1    0    0    0  501 -0.00000000000E+00  0.00000000000E+00  0.22795590241E+03  0.22795590241E+03  0.00000000000E+00 0.  1.
          2   -1    0    0  501    0  0.00000000000E+00 -0.00000000000E+00 -0.22042362015E+04  0.22042362015E+04  0.00000000000E+00 0. -1.
         23    2    1    2    0    0  0.32098224817E+03  0.45893340127E+03 -0.57252309285E+03  0.80598117201E+03  0.90407341256E+02 0.  0.
    5000000    2    1    2    0    0 -0.32098224817E+03 -0.45893340127E+03 -0.14037572063E+04  0.16262109319E+04  0.60031510937E+03 0.  0.
         23    2    4    4    0    0 -0.46049602542E+03 -0.27634233332E+03 -0.74719140940E+03  0.92463515383E+03  0.90738584894E+02 0.  0.
         23    2    4    4    0    0  0.13951377725E+03 -0.18259106795E+03 -0.65656579688E+03  0.70157577812E+03  0.91248751614E+02 0.  0.
          1    1    3    3  502    0  0.14813283144E+03  0.18604664632E+03 -0.30368466529E+03  0.38572148798E+03  0.00000000000E+00 0. -1.
         -1    1    3    3    0  502  0.17284941673E+03  0.27288675495E+03 -0.26883842756E+03  0.42025968404E+03  0.00000000000E+00 0.  1.
         15    1    5    5    0    0 -0.16881316755E+03 -0.83100441280E+02 -0.19548232333E+03  0.27133017772E+03  0.17770000000E+01 0. -1.
        -15    1    5    5    0    0 -0.29168285787E+03 -0.19324189204E+03 -0.55170908607E+03  0.65330497610E+03  0.17770000000E+01 0.  1.
          4    1    6    6  503    0  0.10621105048E+03 -0.74132537215E+02 -0.28451455951E+03  0.31260990850E+03  0.00000000000E+00 0. -1.
         -4    1    6    6    0  503  0.33302726767E+02 -0.10845853074E+03 -0.37205123738E+03  0.38896586963E+03  0.00000000000E+00 0.  1.
<mgrwt>
<rscale>  0 0.67093941E+03</rscale>
<asrwt>0</asrwt>
<pdfrwt beam="1">  1        2 0.33911326E+00 0.67093941E+03</pdfrwt>
<pdfrwt beam="2">  1       -2 0.35070139E-01 0.67093941E+03</pdfrwt>
<totfact> 0.41009393E+01</totfact>
</mgrwt>
</event>
<event>
12    1  0.9321077E-008  0.3638483E+03  0.7818608E-02  0.1057070E+00
          2   -1    0    0  501    0  0.00000000000E+00  0.00000000000E+00  0.44448518791E+04  0.44448518791E+04  0.00000000000E+00 0. -1.
         -2   -1    0    0    0  501 -0.00000000000E+00 -0.00000000000E+00 -0.65318884072E+02  0.65318884072E+02  0.00000000000E+00 0.  1.
         23    2    1    2    0    0  0.23013954624E+03  0.47581874029E+02  0.26914188220E+04  0.27032389854E+04  0.92398544244E+02 0.  0.
    5000000    2    1    2    0    0 -0.23013954624E+03 -0.47581874029E+02  0.16881141730E+04  0.18069317778E+04  0.60003728473E+03 0.  0.
         23    2    4    4    0    0 -0.27209870667E+03  0.12045694418E+03  0.15121094951E+04  0.15436724946E+04  0.88893553889E+02 0.  0.
         23    2    4    4    0    0  0.41959160429E+02 -0.16803881821E+03  0.17600467790E+03  0.26325928318E+03  0.91269863396E+02 0.  0.
          3    1    3    3  502    0  0.44295230999E+02 -0.65558847670E+01  0.95798219343E+03  0.95902811745E+03  0.00000000000E+00 0. -1.
         -3    1    3    3    0  502  0.18584431524E+03  0.54137758796E+02  0.17334366286E+04  0.17442108679E+04  0.00000000000E+00 0.  1.
         15    1    5    5    0    0 -0.17800942814E+03  0.51689324232E+02  0.74264463783E+03  0.76543017877E+03  0.17770000000E+01 0. -1.
        -15    1    5    5    0    0 -0.94089278537E+02  0.68767619953E+02  0.76946485726E+03  0.77824231585E+03  0.17770000000E+01 0.  1.
          4    1    6    6  503    0  0.60266143488E+02 -0.98131633875E+02  0.69352820860E+02  0.13443079773E+03  0.00000000000E+00 0. -1.
         -4    1    6    6    0  503 -0.18306983059E+02 -0.69907184339E+02  0.10665185704E+03  0.12882848544E+03  0.00000000000E+00 0.  1.
<mgrwt>
<rscale>  0 0.36384827E+03</rscale>
<asrwt>0</asrwt>
<pdfrwt beam="1">  1        2 0.68382313E+00 0.36384827E+03</pdfrwt>
<pdfrwt beam="2">  1       -2 0.10049063E-01 0.36384827E+03</pdfrwt>
<totfact> 0.12004263E+01</totfact>
</mgrwt>
</event>
<event>
12    1  0.9321077E-008  0.4166348E+03  0.7818608E-02  0.1038167E+00
         -1   -1    0    0    0  501 -0.00000000000E+00  0.00000000000E+00  0.24043311087E+03  0.24043311087E+03  0.00000000000E+00 0.  1.
          1   -1    0    0  501    0  0.00000000000E+00 -0.00000000000E+00 -0.90537927794E+03  0.90537927794E+03  0.00000000000E+00 0. -1.
         23    2    1    2    0    0 -0.25894066965E+03  0.41904323583E+01 -0.25187773770E+03  0.37274931468E+03  0.91824978771E+02 0.  0.
    5000000    2    1    2    0    0  0.25894066965E+03 -0.41904323583E+01 -0.41306842937E+03  0.77306307413E+03  0.59994429668E+03 0.  0.
         23    2    4    4    0    0 -0.30549343405E+02 -0.19864351982E+03 -0.33863203301E+03  0.40382911566E+03  0.89519777284E+02 0.  0.
         23    2    4    4    0    0  0.28949001305E+03  0.19445308746E+03 -0.74436396360E+02  0.36923395847E+03  0.95793883434E+02 0.  0.
          3    1    3    3  502    0 -0.12760148582E+03 -0.41733455440E+02 -0.14238200571E+03  0.19569480329E+03  0.00000000000E+00 0. -1.
         -3    1    3    3    0  502 -0.13133918382E+03  0.45923887798E+02 -0.10949573199E+03  0.17705451139E+03  0.00000000000E+00 0.  1.
         15    1    5    5    0    0 -0.45122784436E+02 -0.17162637854E+03 -0.32478138269E+03  0.37010509826E+03  0.17770000000E+01 0.  1.
        -15    1    5    5    0    0  0.14573441031E+02 -0.27017141278E+02 -0.13850650320E+02  0.33724017400E+02  0.17770000000E+01 0. -1.
          1    1    6    6  503    0  0.22774395829E+03  0.12925107039E+03 -0.92337995395E+02  0.27766788638E+03  0.00000000000E+00 0. -1.
         -1    1    6    6    0  503  0.61746054757E+02  0.65202017080E+02  0.17901599035E+02  0.91566072087E+02  0.00000000000E+00 0.  1.
<mgrwt>
<rscale>  0 0.41663479E+03</rscale>
<asrwt>0</asrwt>
<pdfrwt beam="1">  1        1 0.13928912E+00 0.41663479E+03</pdfrwt>
<pdfrwt beam="2">  1       -1 0.36989708E-01 0.41663479E+03</pdfrwt>
<totfact> 0.13275681E+02</totfact>
</mgrwt>
</event>
<event>
12    1  0.9321077E-008  0.6240133E+03  0.7818608E-02  0.9856802E-01
          2   -1    0    0  501    0  0.00000000000E+00  0.00000000000E+00  0.11463760853E+04  0.11463760853E+04  0.00000000000E+00 0. -1.
         -2   -1    0    0    0  501 -0.00000000000E+00 -0.00000000000E+00 -0.34703665598E+03  0.34703665598E+03  0.00000000000E+00 0.  1.
         23    2    1    2    0    0 -0.30080873204E+03  0.37589738925E+03  0.25657912995E+03  0.55194183621E+03  0.83798568670E+02 0.  0.
    5000000    2    1    2    0    0  0.30080873204E+03 -0.37589738925E+03  0.54276029941E+03  0.94147090511E+03  0.59999498501E+03 0.  0.
         23    2    4    4    0    0 -0.16904965457E+03 -0.10367912203E+03  0.17014152385E+03  0.27695659910E+03  0.91813253885E+02 0.  0.
         23    2    4    4    0    0  0.46985838661E+03 -0.27221826722E+03  0.37261877556E+03  0.66451430602E+03  0.88683834604E+02 0.  0.
          1    1    3    3  502    0 -0.12051840363E+03  0.10100159633E+03  0.56436861002E+02  0.16706623643E+03  0.00000000000E+00 0. -1.
         -1    1    3    3    0  502 -0.18029032841E+03  0.27489579292E+03  0.20014226895E+03  0.38487559977E+03  0.00000000000E+00 0.  1.
         15    1    5    5    0    0 -0.63672382219E+02 -0.82927437935E+02  0.50347445551E+02  0.11605668969E+03  0.17770000000E+01 0. -1.
        -15    1    5    5    0    0 -0.10537727236E+03 -0.20751684094E+02  0.11979407830E+03  0.16089990941E+03  0.17770000000E+01 0.  1.
          1    1    6    6  503    0  0.41868326203E+03 -0.20672133473E+03  0.31053020170E+03  0.56076589617E+03  0.00000000000E+00 0. -1.
         -1    1    6    6    0  503  0.51175124577E+02 -0.65496932490E+02  0.62088573860E+02  0.10374840984E+03  0.00000000000E+00 0.  1.
<mgrwt>
<rscale>  0 0.62401328E+03</rscale>
<asrwt>0</asrwt>
<pdfrwt beam="1">  1        2 0.17636555E+00 0.62401328E+03</pdfrwt>
<pdfrwt beam="2">  1       -2 0.53390255E-01 0.62401328E+03</pdfrwt>
<totfact> 0.69386008E+01</totfact>
</mgrwt>
</event>
<event>
12    1  0.1095791E-007  0.8535439E+03  0.7818608E-02  0.9485593E-01
          2   -1    0    0  501    0  0.00000000000E+00  0.00000000000E+00  0.21208000583E+04  0.21208000583E+04  0.00000000000E+00 0. -1.
         -2   -1    0    0    0  501 -0.00000000000E+00 -0.00000000000E+00 -0.58591806687E+03  0.58591806687E+03  0.00000000000E+00 0.  1.
         23    2    1    2    0    0  0.21765436744E+03  0.75267363922E+03 -0.10207544186E+03  0.79542834567E+03  0.91628742320E+02 0.  0.
    5000000    2    1    2    0    0 -0.21765436744E+03 -0.75267363922E+03  0.16369574333E+04  0.19112897795E+04  0.59958981974E+03 0.  0.
         23    2    4    4    0    0  0.34130889125E+02 -0.63117649597E+03  0.13828283206E+04  0.15230666840E+04  0.89270785704E+02 0.  0.
         23    2    4    4    0    0 -0.25178525657E+03 -0.12149714326E+03  0.25412911269E+03  0.38822309543E+03  0.89320740411E+02 0.  0.
          1    1    3    3  502    0  0.15030526200E+03  0.38336795263E+03 -0.27509109609E+02  0.41269772231E+03  0.00000000000E+00 0. -1.
         -1    1    3    3    0  502  0.67349105448E+02  0.36930568659E+03 -0.74566332255E+02  0.38273062336E+03  0.00000000000E+00 0.  1.
         15    1    5    5    0    0  0.87969765072E+00 -0.32341717854E+03  0.80505901977E+03  0.86759588996E+03  0.17770000000E+01 0.  1.
        -15    1    5    5    0    0  0.33251191474E+02 -0.30775931742E+03  0.57776930081E+03  0.65547079407E+03  0.17770000000E+01 0. -1.
          3    1    6    6  503    0 -0.56675371247E+02 -0.59587709002E+02  0.38152632010E+02  0.90655480250E+02  0.00000000000E+00 0. -1.
         -3    1    6    6    0  503 -0.19510988532E+03 -0.61909434256E+02  0.21597648068E+03  0.29756761518E+03  0.00000000000E+00 0.  1.
<mgrwt>
<rscale>  0 0.85354393E+03</rscale>
<asrwt>0</asrwt>
<pdfrwt beam="1">  1        2 0.32627693E+00 0.85354393E+03</pdfrwt>
<pdfrwt beam="2">  1       -2 0.90141242E-01 0.85354393E+03</pdfrwt>
<totfact> 0.61593015E+00</totfact>
</mgrwt>
</event>
<event>
12    1  0.9321077E-008  0.1197623E+04  0.7818608E-02  0.9114940E-01
          1   -1    0    0  501    0  0.00000000000E+00  0.00000000000E+00  0.13809992575E+04  0.13809992575E+04  0.00000000000E+00 0. -1.
         -1   -1    0    0    0  501 -0.00000000000E+00 -0.00000000000E+00 -0.10753638123E+04  0.10753638123E+04  0.00000000000E+00 0.  1.
         23    2    1    2    0    0  0.79042388333E+03 -0.81666073608E+03  0.27007986438E+03  0.11705962961E+04  0.75152391943E+02 0.  0.
    5000000    2    1    2    0    0 -0.79042388333E+03  0.81666073608E+03  0.35555580831E+02  0.12857667737E+04  0.60018940660E+03 0.  0.
         23    2    4    4    0    0 -0.10968380019E+03  0.47046929361E+03 -0.10969184615E+03  0.50391196774E+03  0.92320517033E+02 0.  0.
         23    2    4    4    0    0 -0.68074008313E+03  0.34619144247E+03  0.14524742699E+03  0.78185480594E+03  0.83333948106E+02 0.  0.
          1    1    3    3  502    0  0.56671470203E+03 -0.58311656936E+03  0.15815235869E+03  0.82837350001E+03  0.00000000000E+00 0. -1.
         -1    1    3    3    0  502  0.22370918130E+03 -0.23354416672E+03  0.11192750569E+03  0.34222279605E+03  0.00000000000E+00 0.  1.
         15    1    5    5    0    0 -0.80173340412E+02  0.15748443869E+03 -0.26401932236E+02  0.17868780792E+03  0.17770000000E+01 0. -1.
        -15    1    5    5    0    0 -0.29510459780E+02  0.31298485491E+03 -0.83289913919E+02  0.32522415982E+03  0.17770000000E+01 0.  1.
          2    1    6    6  503    0 -0.43848306458E+03  0.26379392032E+03  0.81730936996E+02  0.51820321919E+03  0.00000000000E+00 0. -1.
         -2    1    6    6    0  503 -0.24225701855E+03  0.82397522151E+02  0.63516489990E+02  0.26365158675E+03  0.00000000000E+00 0.  1.
<mgrwt>
<rscale>  0 0.11976231E+04</rscale>
<asrwt>0</asrwt>
<pdfrwt beam="1">  1        1 0.21246143E+00 0.11976231E+04</pdfrwt>
<pdfrwt beam="2">  1       -1 0.16544059E+00 0.11976231E+04</pdfrwt>
<totfact> 0.20665850E+00</totfact>
</mgrwt>
</event>
<event>
12    1  0.9321077E-008  0.8152206E+03  0.7818608E-02  0.9538244E-01
          2   -1    0    0  501    0  0.00000000000E+00  0.00000000000E+00  0.92808346983E+03  0.92808346983E+03  0.00000000000E+00 0.  1.
         -2   -1    0    0    0  501 -0.00000000000E+00 -0.00000000000E+00 -0.89911099454E+03  0.89911099454E+03  0.00000000000E+00 0. -1.
         23    2    1    2    0    0 -0.64712847139E+03 -0.43268391446E+03  0.24318285956E+03  0.82131788534E+03  0.97131546339E+02 0.  0.
    5000000    2    1    2    0    0  0.64712847139E+03  0.43268391446E+03 -0.21421038426E+03  0.10058765790E+04  0.59992580807E+03 0.  0.
         23    2    4    4    0    0  0.15191074862E+03  0.29126050741E+03  0.14589124619E+03  0.37072092672E+03  0.90775498229E+02 0.  0.
         23    2    4    4    0    0  0.49521772277E+03  0.14142340705E+03 -0.36010163044E+03  0.63515565230E+03  0.92240692681E+02 0.  0.
          3    1    3    3  502    0 -0.24598515369E+03 -0.13239098623E+03  0.12737717929E+03  0.30701956757E+03  0.00000000000E+00 0. -1.
         -3    1    3    3    0  502 -0.40114331770E+03 -0.30029292823E+03  0.11580568027E+03  0.51429831777E+03  0.00000000000E+00 0.  1.
         15    1    5    5    0    0  0.82345221897E+02  0.20284710997E+03  0.13608786835E+03  0.25778043222E+03  0.17770000000E+01 0.  1.
        -15    1    5    5    0    0  0.69565526718E+02  0.88413397437E+02  0.98033778345E+01  0.11294049451E+03  0.17770000000E+01 0. -1.
          2    1    6    6  503    0  0.46009741218E+03  0.11403491853E+03 -0.35067289578E+03  0.58963130105E+03  0.00000000000E+00 0.  1.
         -2    1    6    6    0  503  0.35120310589E+02  0.27388488521E+02 -0.94287346688E+01  0.45524351251E+02  0.00000000000E+00 0. -1.
<mgrwt>
<rscale>  0 0.81522057E+03</rscale>
<asrwt>0</asrwt>
<pdfrwt beam="1">  1        2 0.14278207E+00 0.81522057E+03</pdfrwt>
<pdfrwt beam="2">  1       -2 0.13832477E+00 0.81522057E+03</pdfrwt>
<totfact> 0.10501951E+01</totfact>
</mgrwt>
</event>
<event>
12    1  0.9321077E-008  0.1187779E+04  0.7818608E-02  0.9123621E-01
         -2   -1    0    0    0  501 -0.00000000000E+00  0.00000000000E+00  0.10589010650E+04  0.10589010650E+04  0.00000000000E+00 0. -1.
          2   -1    0    0  501    0  0.00000000000E+00 -0.00000000000E+00 -0.14794552628E+04  0.14794552628E+04  0.00000000000E+00 0.  1.
         23    2    1    2    0    0  0.93861844151E+03  0.63305838536E+03 -0.52883271388E+03  0.12524059739E+04  0.84197305461E+02 0.  0.
    5000000    2    1    2    0    0 -0.93861844151E+03 -0.63305838536E+03  0.10827851612E+03  0.12859503539E+04  0.60014712993E+03 0.  0.
         23    2    4    4    0    0 -0.75339818566E+03 -0.22426091412E+03 -0.70377222579E+02  0.79435572900E+03  0.90256783586E+02 0.  0.
         23    2    4    4    0    0 -0.18522025585E+03 -0.40879747124E+03  0.17865573869E+03  0.49159462487E+03  0.91244104291E+02 0.  0.
          4    1    3    3  502    0  0.70604516483E+03  0.49085866021E+03 -0.43828124400E+03  0.96515928629E+03  0.00000000000E+00 0. -1.
         -4    1    3    3    0  502  0.23257327668E+03  0.14219972515E+03 -0.90551469883E+02  0.28724668764E+03  0.00000000000E+00 0.  1.
         15    1    5    5    0    0 -0.61862989744E+03 -0.21418382909E+03 -0.40343364568E+02  0.65590274236E+03  0.17770000000E+01 0.  1.
        -15    1    5    5    0    0 -0.13476828822E+03 -0.10077085031E+02 -0.30033858011E+02  0.13845298664E+03  0.17770000000E+01 0. -1.
          3    1    6    6  503    0 -0.48385600840E+01 -0.63271931295E+02  0.15679966547E+01  0.63476039314E+02  0.00000000000E+00 0. -1.
         -3    1    6    6    0  503 -0.18038169576E+03 -0.34552553994E+03  0.17708774204E+03  0.42811858556E+03  0.00000000000E+00 0.  1.
<mgrwt>
<rscale>  0 0.11877793E+04</rscale>
<asrwt>0</asrwt>
<pdfrwt beam="1">  1        2 0.22760850E+00 0.11877793E+04</pdfrwt>
<pdfrwt beam="2">  1       -2 0.16290785E+00 0.11877793E+04</pdfrwt>
<totfact> 0.30400253E+00</totfact>
</mgrwt>
</event>
<event>
12    1  0.9321077E-008  0.8705855E+03  0.7818608E-02  0.9463117E-01
         -2   -1    0    0    0  501 -0.00000000000E+00  0.00000000000E+00  0.64430595616E+03  0.64430595616E+03  0.00000000000E+00 0.  1.
          2   -1    0    0  501    0  0.00000000000E+00 -0.00000000000E+00 -0.27958799585E+04  0.27958799585E+04  0.00000000000E+00 0. -1.
         23    2    1    2    0    0 -0.60631616049E+03  0.57896302823E+03  0.20540451294E+03  0.86760991157E+03  0.87968575060E+02 0.  0.
    5000000    2    1    2    0    0  0.60631616049E+03 -0.57896302823E+03 -0.23569785153E+04  0.25725760031E+04  0.59998507956E+03 0.  0.
         23    2    4    4    0    0  0.44029084868E+03 -0.20159424717E+03 -0.18410544893E+04  0.19059005907E+04  0.92082337544E+02 0.  0.
         23    2    4    4    0    0  0.16602531182E+03 -0.37736878106E+03 -0.51592402597E+03  0.66667541245E+03  0.91142218067E+02 0.  0.
          4    1    3    3  502    0 -0.28988624833E+03  0.29078421223E+03  0.14464390368E+03  0.43532901802E+03  0.00000000000E+00 0. -1.
         -4    1    3    3    0  502 -0.31642991216E+03  0.28817881599E+03  0.60760609261E+02  0.43228089356E+03  0.00000000000E+00 0.  1.
         15    1    5    5    0    0  0.16784123594E+03 -0.10606430062E+03 -0.61258368589E+03  0.64395826440E+03  0.17770000000E+01 0.  1.
        -15    1    5    5    0    0  0.27244961274E+03 -0.95529946545E+02 -0.12284708034E+04  0.12619423263E+04  0.17770000000E+01 0. -1.
          1    1    6    6  503    0  0.13787954862E+03 -0.25648187553E+03 -0.41354689427E+03  0.50578133236E+03  0.00000000000E+00 0. -1.
         -1    1    6    6    0  503  0.28145763198E+02 -0.12088690553E+03 -0.10237713170E+03  0.16089408009E+03  0.00000000000E+00 0.  1.
<mgrwt>
<rscale>  0 0.87058545E+03</rscale>
<asrwt>0</asrwt>
<pdfrwt beam="1">  1        2 0.43013537E+00 0.87058545E+03</pdfrwt>
<pdfrwt beam="2">  1       -2 0.99123995E-01 0.87058545E+03</pdfrwt>
<totfact> 0.20326659E+00</totfact>
</mgrwt>
</event>
<event>
12    1  0.9321077E-008  0.9538326E+03  0.7818608E-02  0.9360682E-01
          1   -1    0    0  501    0  0.00000000000E+00  0.00000000000E+00  0.17433562109E+04  0.17433562109E+04  0.00000000000E+00 0. -1.
         -1   -1    0    0    0  501 -0.00000000000E+00 -0.00000000000E+00 -0.11250594151E+04  0.11250594151E+04  0.00000000000E+00 0.  1.
         23    2    1    2    0    0 -0.31722274959E+03 -0.83199926653E+03  0.13130408170E+04  0.15895657829E+04  0.98945129949E+02 0.  0.
    5000000    2    1    2    0    0  0.31722274959E+03  0.83199926653E+03 -0.69474402117E+03  0.12788498431E+04  0.59994550901E+03 0.  0.
         23    2    4    4    0    0  0.50419841878E+02  0.68942095163E+03 -0.26379349533E+03  0.74467119878E+03  0.84289839952E+02 0.  0.
         23    2    4    4    0    0  0.26680290771E+03  0.14257831490E+03 -0.43095052584E+03  0.53417864428E+03  0.90089404682E+02 0.  0.
          3    1    3    3  502    0 -0.18401660430E+03 -0.34615768317E+03  0.56273360518E+03  0.68582531499E+03  0.00000000000E+00 0. -1.
         -3    1    3    3    0  502 -0.13320614530E+03 -0.48584158336E+03  0.75030721184E+03  0.90374046794E+03  0.00000000000E+00 0.  1.
         15    1    5    5    0    0  0.71442921498E+02  0.41939042460E+03 -0.16710337013E+03  0.45707670397E+03  0.17770000000E+01 0.  1.
        -15    1    5    5    0    0 -0.21023079620E+02  0.27003052703E+03 -0.96690125198E+02  0.28759449481E+03  0.17770000000E+01 0. -1.
          1    1    6    6  503    0  0.15823373315E+03  0.13278137535E+03 -0.28721981965E+03  0.35378529188E+03  0.00000000000E+00 0. -1.
         -1    1    6    6    0  503  0.10856917456E+03  0.97969395538E+01 -0.14373070618E+03  0.18039335240E+03  0.00000000000E+00 0.  1.
<mgrwt>
<rscale>  0 0.95383259E+03</rscale>
<asrwt>0</asrwt>
<pdfrwt beam="1">  1        1 0.26820865E+00 0.95383259E+03</pdfrwt>
<pdfrwt beam="2">  1       -1 0.17308606E+00 0.95383259E+03</pdfrwt>
<totfact> 0.10564368E+00</totfact>
</mgrwt>
</event>
<event>
12    1  0.9321077E-008  0.1457177E+04  0.7818608E-02  0.8913440E-01
          2   -1    0    0  501    0  0.00000000000E+00  0.00000000000E+00  0.16283872361E+04  0.16283872361E+04  0.00000000000E+00 0. -1.
         -2   -1    0    0    0  501 -0.00000000000E+00 -0.00000000000E+00 -0.15079353686E+04  0.15079353686E+04  0.00000000000E+00 0.  1.
         23    2    1    2    0    0  0.90314228603E+03 -0.10753186888E+04 -0.49228406219E+03  0.14909080130E+04  0.92124015697E+02 0.  0.
    5000000    2    1    2    0    0 -0.90314228603E+03  0.10753186888E+04  0.61273592965E+03  0.16454145916E+04  0.59997298908E+03 0.  0.
         23    2    4    4    0    0 -0.14148613038E+03  0.58261536021E+03  0.16065131167E+03  0.62728546965E+03  0.90659988131E+02 0.  0.
         23    2    4    4    0    0 -0.76165615566E+03  0.49270332855E+03  0.45208461798E+03  0.10181291220E+04  0.96590567787E+02 0.  0.
          2    1    3    3  502    0  0.62724380648E+03 -0.81008274156E+03 -0.36350358925E+03  0.10871079525E+04  0.00000000000E+00 0. -1.
         -2    1    3    3    0  502  0.27589847955E+03 -0.26523594720E+03 -0.12878047293E+03  0.40380006057E+03  0.00000000000E+00 0.  1.
         15    1    5    5    0    0 -0.13137518153E+02  0.57523662561E+02 -0.11174939609E+02  0.60079972886E+02  0.17770000000E+01 0. -1.
        -15    1    5    5    0    0 -0.12834861222E+03  0.52509169765E+03  0.17182625128E+03  0.56720549676E+03  0.17770000000E+01 0.  1.
          2    1    6    6  503    0 -0.43981800292E+03  0.26868495009E+03  0.20512242017E+03  0.55471315592E+03  0.00000000000E+00 0. -1.
         -2    1    6    6    0  503 -0.32183815274E+03  0.22401837846E+03  0.24696219781E+03  0.46341596605E+03  0.00000000000E+00 0.  1.
<mgrwt>
<rscale>  0 0.14571772E+04</rscale>
<asrwt>0</asrwt>
<pdfrwt beam="1">  1        2 0.25052111E+00 0.14571772E+04</pdfrwt>
<pdfrwt beam="2">  1       -2 0.23199006E+00 0.14571772E+04</pdfrwt>
<totfact> 0.84295828E-01</totfact>
</mgrwt>
</event>
<event>
12    1  0.9321077E-008  0.9992375E+03  0.7818608E-02  0.9309382E-01
          2   -1    0    0  501    0  0.00000000000E+00  0.00000000000E+00  0.32208613821E+04  0.32208613821E+04  0.00000000000E+00 0. -1.
         -2   -1    0    0    0  501 -0.00000000000E+00 -0.00000000000E+00 -0.45377228978E+03  0.45377228978E+03  0.00000000000E+00 0.  1.
         23    2    1    2    0    0  0.37309646549E+02 -0.97644317794E+03  0.43032598318E+03  0.10716505616E+04  0.91767014010E+02 0.  0.
    5000000    2    1    2    0    0 -0.37309646549E+02  0.97644317794E+03  0.23367631092E+04  0.26029831103E+04  0.60018826616E+03 0.  0.
         23    2    4    4    0    0  0.10797817018E+03  0.55933268120E+03  0.18575645278E+04  0.19450738160E+04  0.90850652170E+02 0.  0.
         23    2    4    4    0    0 -0.14528781672E+03  0.41711049674E+03  0.47919858133E+03  0.65790929436E+03  0.90131254743E+02 0.  0.
          2    1    3    3  502    0 -0.29400727744E+02 -0.38011844197E+03  0.17654709090E+03  0.42014676963E+03  0.00000000000E+00 0. -1.
         -2    1    3    3    0  502  0.66710374293E+02 -0.59632473597E+03  0.25377889228E+03  0.65150379195E+03  0.00000000000E+00 0.  1.
         15    1    5    5    0    0  0.41127547846E+02  0.12996822875E+03  0.33400763363E+03  0.36075957745E+03  0.17770000000E+01 0.  1.
        -15    1    5    5    0    0  0.66850622330E+02  0.42936445245E+03  0.15235568942E+04  0.15843142385E+04  0.17770000000E+01 0. -1.
          4    1    6    6  503    0 -0.20898053263E+02  0.15237270596E+03  0.21066786638E+03  0.26083542719E+03  0.00000000000E+00 0. -1.
         -4    1    6    6    0  503 -0.12438976346E+03  0.26473779078E+03  0.26853071495E+03  0.39707386717E+03  0.00000000000E+00 0.  1.
<mgrwt>
<rscale>  0 0.99923749E+03</rscale>
<asrwt>0</asrwt>
<pdfrwt beam="1">  1        2 0.49551712E+00 0.99923749E+03</pdfrwt>
<pdfrwt beam="2">  1       -2 0.69811124E-01 0.99923749E+03</pdfrwt>
<totfact> 0.24155364E+00</totfact>
</mgrwt>
</event>
<event>
12    1  0.9321077E-008  0.5214290E+03  0.7818608E-02  0.1008332E+00
         -1   -1    0    0    0  501 -0.00000000000E+00  0.00000000000E+00  0.96692964135E+03  0.96692964135E+03  0.00000000000E+00 0.  1.
          1   -1    0    0  501    0  0.00000000000E+00 -0.00000000000E+00 -0.56900810957E+03  0.56900810957E+03  0.00000000000E+00 0. -1.
         23    2    1    2    0    0  0.28521945858E+03  0.23684772082E+03  0.67753677742E+03  0.77736892532E+03  0.88314092217E+02 0.  0.
    5000000    2    1    2    0    0 -0.28521945858E+03 -0.23684772082E+03 -0.27961524564E+03  0.75856882560E+03  0.59982913830E+03 0.  0.
         23    2    4    4    0    0 -0.39201139362E+03  0.19099808988E+02 -0.22575137142E+03  0.46209324661E+03  0.92351239493E+02 0.  0.
         23    2    4    4    0    0  0.10679193504E+03 -0.25594752981E+03 -0.53863874225E+02  0.29647557899E+03  0.89904374666E+02 0.  0.
          4    1    3    3  502    0  0.84353793171E+02  0.72187078948E+02  0.29303718399E+03  0.31336452893E+03  0.00000000000E+00 0. -1.
         -4    1    3    3    0  502  0.20086566541E+03  0.16466064188E+03  0.38449959343E+03  0.46400439639E+03  0.00000000000E+00 0.  1.
         15    1    5    5    0    0 -0.19628481061E+03  0.27695887241E+02 -0.64872064205E+02  0.20858171418E+03  0.17770000000E+01 0.  1.
        -15    1    5    5    0    0 -0.19572658300E+03 -0.85960782538E+01 -0.16087930721E+03  0.25351153243E+03  0.17770000000E+01 0. -1.
          1    1    6    6  503    0  0.45983694783E+02 -0.87365439593E+02 -0.62851781824E+02  0.11703660410E+03  0.00000000000E+00 0. -1.
         -1    1    6    6    0  503  0.60808240253E+02 -0.16858209022E+03  0.89879075988E+01  0.17943897489E+03  0.00000000000E+00 0.  1.
<mgrwt>
<rscale>  0 0.52142900E+03</rscale>
<asrwt>0</asrwt>
<pdfrwt beam="1">  1        1 0.87539709E-01 0.52142900E+03</pdfrwt>
<pdfrwt beam="2">  1       -1 0.14875841E+00 0.52142900E+03</pdfrwt>
<totfact> 0.14013515E+01</totfact>
</mgrwt>
</event>
<event>
12    1  0.9321077E-008  0.4402952E+03  0.7818608E-02  0.1030656E+00
          1   -1    0    0  501    0  0.00000000000E+00  0.00000000000E+00  0.27651410342E+03  0.27651410342E+03  0.00000000000E+00 0. -1.
         -1   -1    0    0    0  501 -0.00000000000E+00 -0.00000000000E+00 -0.10617623421E+04  0.10617623421E+04  0.00000000000E+00 0.  1.
         23    2    1    2    0    0  0.19798682891E+03  0.20790379606E+03  0.13578568643E+02  0.29894290167E+03  0.82217443967E+02 0.  0.
    5000000    2    1    2    0    0 -0.19798682891E+03 -0.20790379606E+03 -0.79882680737E+03  0.10393335439E+04  0.59972258125E+03 0.  0.
         23    2    4    4    0    0  0.12590280225E+03 -0.22492500618E+03 -0.57647567028E+03  0.63795960999E+03  0.90694495615E+02 0.  0.
         23    2    4    4    0    0 -0.32388963116E+03  0.17021210121E+02 -0.22235113709E+03  0.40137393391E+03  0.80416365782E+02 0.  0.
          4    1    3    3  502    0  0.16985104418E+03  0.13578976961E+03  0.30836465346E+02  0.21963407372E+03  0.00000000000E+00 0. -1.
         -4    1    3    3    0  502  0.28135784729E+02  0.72114026445E+02 -0.17257896703E+02  0.79308827952E+02  0.00000000000E+00 0.  1.
         15    1    5    5    0    0  0.20636826053E+02 -0.38702190847E+02 -0.20175779738E+03  0.20647785522E+03  0.17770000000E+01 0.  1.
        -15    1    5    5    0    0  0.10526597620E+03 -0.18622281533E+03 -0.37471787290E+03  0.43148175476E+03  0.17770000000E+01 0. -1.
          3    1    6    6  503    0 -0.23121415538E+03 -0.98115182595E+01 -0.11987909101E+03  0.26062856328E+03  0.00000000000E+00 0. -1.
         -3    1    6    6    0  503 -0.92675475788E+02  0.26832728381E+02 -0.10247204608E+03  0.14074537063E+03  0.00000000000E+00 0.  1.
<mgrwt>
<rscale>  0 0.44029518E+03</rscale>
<asrwt>0</asrwt>
<pdfrwt beam="1">  1        1 0.42540632E-01 0.44029518E+03</pdfrwt>
<pdfrwt beam="2">  1       -1 0.16334805E+00 0.44029518E+03</pdfrwt>
<totfact> 0.28559419E+01</totfact>
</mgrwt>
</event>
<event>
12    1  0.9321077E-008  0.1668537E+04  0.7818608E-02  0.8779515E-01
         -2   -1    0    0    0  501 -0.00000000000E+00  0.00000000000E+00  0.27432029825E+04  0.27432029825E+04  0.00000000000E+00 0.  1.
          2   -1    0    0  501    0  0.00000000000E+00 -0.00000000000E+00 -0.13665498074E+04  0.13665498074E+04  0.00000000000E+00 0. -1.
         23    2    1    2    0    0  0.16476072216E+04  0.96985191018E+02 -0.30204104157E+03  0.16803479730E+04  0.91240535683E+02 0.  0.
    5000000    2    1    2    0    0 -0.16476072216E+04 -0.96985191018E+02  0.16786942167E+04  0.24294048170E+04  0.59998150575E+03 0.  0.
         23    2    4    4    0    0 -0.12680807849E+04 -0.19090819650E+03  0.95356711713E+03  0.16006968144E+04  0.92006674298E+02 0.  0.
         23    2    4    4    0    0 -0.37952643672E+03  0.93923005482E+02  0.72512709961E+03  0.82870800257E+03  0.89921053237E+02 0.  0.
          1    1    3    3  502    0  0.12263905891E+03  0.18458494043E+02 -0.44679839576E+02  0.13182314985E+03  0.00000000000E+00 0. -1.
         -1    1    3    3    0  502  0.15249681627E+04  0.78526696975E+02 -0.25736120199E+03  0.15485248231E+04  0.00000000000E+00 0.  1.
         15    1    5    5    0    0 -0.63849486838E+03 -0.14181620139E+03  0.47465356249E+03  0.80813779396E+03  0.17770000000E+01 0.  1.
        -15    1    5    5    0    0 -0.62958591654E+03 -0.49091995115E+02  0.47891355465E+03  0.79255902042E+03  0.17770000000E+01 0. -1.
          1    1    6    6  503    0 -0.14335615546E+03 -0.73396195568E+01  0.23719083232E+03  0.27724420329E+03  0.00000000000E+00 0. -1.
         -1    1    6    6    0  503 -0.23617028125E+03  0.10126262504E+03  0.48793626729E+03  0.55146379928E+03  0.00000000000E+00 0.  1.
<mgrwt>
<rscale>  0 0.16685368E+04</rscale>
<asrwt>0</asrwt>
<pdfrwt beam="1">  1        2 0.21023843E+00 0.16685368E+04</pdfrwt>
<pdfrwt beam="2">  1       -2 0.42203123E+00 0.16685368E+04</pdfrwt>
<totfact> 0.74409507E-02</totfact>
</mgrwt>
</event>
<event>
12    1  0.9321077E-008  0.4019673E+03  0.7818608E-02  0.1043101E+00
          2   -1    0    0  501    0  0.00000000000E+00  0.00000000000E+00  0.24466476950E+04  0.24466476950E+04  0.00000000000E+00 0. -1.
         -2   -1    0    0    0  501 -0.00000000000E+00 -0.00000000000E+00 -0.11404387261E+03  0.11404387261E+03  0.00000000000E+00 0.  1.
         23    2    1    2    0    0  0.18651959652E+03  0.58199964392E+02  0.94541086151E+02  0.23534484715E+03  0.90952649043E+02 0.  0.
    5000000    2    1    2    0    0 -0.18651959652E+03 -0.58199964392E+02  0.22380627362E+04  0.23253467204E+04  0.60011312538E+03 0.  0.
         23    2    4    4    0    0 -0.26613053195E+03 -0.25404862795E+03  0.16734660307E+04  0.17158027334E+04  0.90134892237E+02 0.  0.
         23    2    4    4    0    0  0.79610935429E+02  0.19584866356E+03  0.56459670550E+03  0.60954398697E+03  0.89887886455E+02 0.  0.
          4    1    3    3  502    0  0.15885040831E+03  0.80234962389E+02  0.65693961159E+02  0.18970186595E+03  0.00000000000E+00 0. -1.
         -4    1    3    3    0  502  0.27669188210E+02 -0.22034997998E+02  0.28847124992E+02  0.45642981204E+02  0.00000000000E+00 0.  1.
         15    1    5    5    0    0 -0.10285800576E+03 -0.41870780319E+02  0.49267226614E+03  0.50503668297E+03  0.17770000000E+01 0. -1.
        -15    1    5    5    0    0 -0.16327252619E+03 -0.21217784764E+03  0.11807937646E+04  0.12107660505E+04  0.17770000000E+01 0.  1.
          1    1    6    6  503    0  0.30719778636E+02  0.92542501472E+02  0.14556680734E+03  0.17520706258E+03  0.00000000000E+00 0. -1.
         -1    1    6    6    0  503  0.48891156793E+02  0.10330616209E+03  0.41902989816E+03  0.43433692439E+03  0.00000000000E+00 0.  1.
<mgrwt>
<rscale>  0 0.40196725E+03</rscale>
<asrwt>0</asrwt>
<pdfrwt beam="1">  1        2 0.37640730E+00 0.40196725E+03</pdfrwt>
<pdfrwt beam="2">  1       -2 0.17545213E-01 0.40196725E+03</pdfrwt>
<totfact> 0.10963378E+02</totfact>
</mgrwt>
</event>
<event>
12    1  0.9321077E-008  0.1291734E+04  0.7818608E-02  0.9036146E-01
         -2   -1    0    0    0  501 -0.00000000000E+00  0.00000000000E+00  0.55869002429E+03  0.55869002429E+03  0.00000000000E+00 0.  1.
          2   -1    0    0  501    0  0.00000000000E+00 -0.00000000000E+00 -0.35237624812E+04  0.35237624812E+04  0.00000000000E+00 0. -1.
         23    2    1    2    0    0 -0.12154386143E+04 -0.19732396775E+03 -0.21768622061E+04  0.25020385099E+04  0.72386927700E+02 0.  0.
    5000000    2    1    2    0    0  0.12154386143E+04  0.19732396775E+03 -0.78821025079E+03  0.15804139956E+04  0.60017099620E+03 0.  0.
         23    2    4    4    0    0  0.28146143324E+03  0.28922748538E+03 -0.14240021145E+03  0.43758802773E+03  0.91281899041E+02 0.  0.
         23    2    4    4    0    0  0.93397718102E+03 -0.91903517628E+02 -0.64581003933E+03  0.11428259678E+04  0.90669480323E+02 0.  0.
          2    1    3    3  502    0 -0.58147307050E+03 -0.11315970434E+03 -0.11099006629E+04  0.12580920205E+04  0.00000000000E+00 0. -1.
         -2    1    3    3    0  502 -0.63396554376E+03 -0.84164263403E+02 -0.10669615432E+04  0.12439464894E+04  0.00000000000E+00 0.  1.
         15    1    5    5    0    0  0.18572448456E+03  0.13871086616E+03 -0.10872742588E+03  0.25604511209E+03  0.17770000000E+01 0.  1.
        -15    1    5    5    0    0  0.95736948680E+02  0.15051661922E+03 -0.33672785575E+02  0.18154291565E+03  0.17770000000E+01 0. -1.
          1    1    6    6  503    0  0.24800018498E+03 -0.57119436253E+02 -0.14637576520E+03  0.29358573941E+03  0.00000000000E+00 0. -1.
         -1    1    6    6    0  503  0.68597699604E+03 -0.34784081375E+02 -0.49943427413E+03  0.84924022843E+03  0.00000000000E+00 0.  1.
<mgrwt>
<rscale>  0 0.12917336E+04</rscale>
<asrwt>0</asrwt>
<pdfrwt beam="1">  1        2 0.54211730E+00 0.12917336E+04</pdfrwt>
<pdfrwt beam="2">  1       -2 0.85952313E-01 0.12917336E+04</pdfrwt>
<totfact> 0.91009910E-01</totfact>
</mgrwt>
</event>
<event>
12    1  0.9321077E-008  0.9093595E+03  0.7818608E-02  0.9413957E-01
          1   -1    0    0  501    0  0.00000000000E+00  0.00000000000E+00  0.15224537800E+04  0.15224537800E+04  0.00000000000E+00 0. -1.
         -1   -1    0    0    0  501 -0.00000000000E+00 -0.00000000000E+00 -0.63232871491E+03  0.63232871491E+03  0.00000000000E+00 0.  1.
         23    2    1    2    0    0  0.34476992059E+03 -0.73721326392E+03  0.17812868664E+02  0.81921052930E+03  0.91863476851E+02 0.  0.
    5000000    2    1    2    0    0 -0.34476992059E+03  0.73721326392E+03  0.87231219642E+03  0.13355719656E+04  0.60039504715E+03 0.  0.
         23    2    4    4    0    0 -0.48070178734E+02 -0.84236828608E+02  0.10814782985E+03  0.17151294603E+03  0.91181972882E+02 0.  0.
         23    2    4    4    0    0 -0.29669974185E+03  0.82145009253E+03  0.76416436658E+03  0.11640590196E+04  0.90968294339E+02 0.  0.
          4    1    3    3  502    0  0.13459700152E+03 -0.39523609968E+03  0.29425434618E+01  0.41753632881E+03  0.00000000000E+00 0. -1.
         -4    1    3    3    0  502  0.21017291906E+03 -0.34197716424E+03  0.14870325202E+02  0.40167420049E+03  0.00000000000E+00 0.  1.
         15    1    5    5    0    0 -0.49466986775E+02 -0.94744925639E+01  0.73407011957E+02  0.89042101971E+02  0.17770000000E+01 0. -1.
        -15    1    5    5    0    0  0.13968080414E+01 -0.74762336044E+02  0.34740817889E+02  0.82470844061E+02  0.17770000000E+01 0.  1.
          2    1    6    6  503    0 -0.13989347897E+03  0.45473012189E+03  0.46724390282E+03  0.66683321298E+03  0.00000000000E+00 0. -1.
         -2    1    6    6    0  503 -0.15680626288E+03  0.36671997064E+03  0.29692046376E+03  0.49722580659E+03  0.00000000000E+00 0.  1.
<mgrwt>
<rscale>  0 0.90935949E+03</rscale>
<asrwt>0</asrwt>
<pdfrwt beam="1">  1        1 0.23422366E+00 0.90935949E+03</pdfrwt>
<pdfrwt beam="2">  1       -1 0.97281341E-01 0.90935949E+03</pdfrwt>
<totfact> 0.65155522E+00</totfact>
</mgrwt>
</event>
<event>
12    1  0.9321077E-008  0.1472480E+04  0.7818608E-02  0.8902962E-01
         -2   -1    0    0    0  501 -0.00000000000E+00  0.00000000000E+00  0.32189877331E+04  0.32189877331E+04  0.00000000000E+00 0.  1.
          2   -1    0    0  501    0  0.00000000000E+00 -0.00000000000E+00 -0.83949968160E+03  0.83949968160E+03  0.00000000000E+00 0. -1.
         23    2    1    2    0    0 -0.60932717172E+03 -0.12978891111E+04  0.30790134759E+03  0.14686179672E+04  0.78992067682E+02 0.  0.
    5000000    2    1    2    0    0  0.60932717172E+03  0.12978891111E+04  0.20715867040E+04  0.25898694476E+04  0.60013043305E+03 0.  0.
         23    2    4    4    0    0  0.38366629465E+03  0.11763271199E+04  0.18976721810E+04  0.22672253729E+04  0.90586237385E+02 0.  0.
         23    2    4    4    0    0  0.22566087707E+03  0.12156199116E+03  0.17391452294E+03  0.32264407464E+03  0.90292793053E+02 0.  0.
          4    1    3    3  502    0 -0.38863203867E+03 -0.76779628409E+03  0.15484913353E+03  0.87437077347E+03  0.00000000000E+00 0. -1.
         -4    1    3    3    0  502 -0.22069513305E+03 -0.53009282700E+03  0.15305221406E+03  0.59424719369E+03  0.00000000000E+00 0.  1.
         15    1    5    5    0    0  0.35154706310E+03  0.10058571611E+04  0.15898740975E+04  0.19139061549E+04  0.17770000000E+01 0. -1.
        -15    1    5    5    0    0  0.32119231552E+02  0.17046995879E+03  0.30779808357E+03  0.35331921808E+03  0.17770000000E+01 0.  1.
          2    1    6    6  503    0  0.24121937293E+02  0.53166450574E+02  0.46062451537E+02  0.74365911324E+02  0.00000000000E+00 0. -1.
         -2    1    6    6    0  503  0.20153893978E+03  0.68395540586E+02  0.12785207140E+03  0.24827816332E+03  0.00000000000E+00 0.  1.
<mgrwt>
<rscale>  0 0.14724803E+04</rscale>
<asrwt>0</asrwt>
<pdfrwt beam="1">  1        2 0.12915380E+00 0.14724803E+04</pdfrwt>
<pdfrwt beam="2">  1       -2 0.49522888E+00 0.14724803E+04</pdfrwt>
<totfact> 0.54053507E-02</totfact>
</mgrwt>
</event>
<event>
12    1  0.9321077E-008  0.7245937E+03  0.7818608E-02  0.9676074E-01
          2   -1    0    0  501    0  0.00000000000E+00  0.00000000000E+00  0.15071275152E+04  0.15071275152E+04  0.00000000000E+00 0. -1.
         -2   -1    0    0    0  501 -0.00000000000E+00 -0.00000000000E+00 -0.64834468596E+03  0.64834468596E+03  0.00000000000E+00 0.  1.
         23    2    1    2    0    0 -0.69196545877E+03  0.60453291954E+02 -0.22458456640E+03  0.73556838547E+03  0.90287460880E+02 0.  0.
    5000000    2    1    2    0    0  0.69196545877E+03 -0.60453291954E+02  0.10833673956E+04  0.14199038157E+04  0.59997594554E+03 0.  0.
         23    2    4    4    0    0  0.57954342861E+03 -0.13005048082E+03  0.40962000870E+03  0.72729326349E+03  0.91559960614E+02 0.  0.
         23    2    4    4    0    0  0.11242203017E+03  0.69597188862E+02  0.67374738693E+03  0.69261055219E+03  0.91056872596E+02 0.  0.
          1    1    3    3  502    0 -0.55408730523E+03  0.36275302498E+02 -0.21436066219E+03  0.59521351873E+03  0.00000000000E+00 0. -1.
         -1    1    3    3    0  502 -0.13787815355E+03  0.24177989457E+02 -0.10223904207E+02  0.14035486674E+03  0.00000000000E+00 0.  1.
         15    1    5    5    0    0  0.40993835260E+03 -0.10510679061E+03  0.33750869159E+03  0.54130598093E+03  0.17770000000E+01 0.  1.
        -15    1    5    5    0    0  0.16960507601E+03 -0.24943690211E+02  0.72111317106E+02  0.18598728256E+03  0.17770000000E+01 0. -1.
          1    1    6    6  503    0 -0.26146449191E+00  0.43660278920E+02  0.22560854810E+03  0.22979448491E+03  0.00000000000E+00 0. -1.
         -1    1    6    6    0  503  0.11268349466E+03  0.25936909942E+02  0.44813883883E+03  0.46281606729E+03  0.00000000000E+00 0.  1.
<mgrwt>
<rscale>  0 0.72459368E+03</rscale>
<asrwt>0</asrwt>
<pdfrwt beam="1">  1        2 0.23186577E+00 0.72459368E+03</pdfrwt>
<pdfrwt beam="2">  1       -2 0.99745337E-01 0.72459368E+03</pdfrwt>
<totfact> 0.10747073E+01</totfact>
</mgrwt>
</event>
<event>
12    1  0.9321077E-008  0.1079401E+04  0.7818608E-02  0.9225505E-01
         -2   -1    0    0    0  501 -0.00000000000E+00  0.00000000000E+00  0.58482667699E+03  0.58482667699E+03  0.00000000000E+00 0.  1.
          2   -1    0    0  501    0  0.00000000000E+00 -0.00000000000E+00 -0.38389424626E+04  0.38389424626E+04  0.00000000000E+00 0. -1.
         23    2    1    2    0    0 -0.82444195167E+03 -0.57119855851E+03 -0.45826664840E+02  0.10092390981E+04  0.10242630988E+03 0.  0.
    5000000    2    1    2    0    0  0.82444195167E+03  0.57119855851E+03 -0.32082891207E+04  0.34145300415E+04  0.59993666088E+03 0.  0.
         23    2    4    4    0    0  0.40309314932E+03 -0.42660863163E+02 -0.10152933765E+04  0.10967210527E+04  0.87592184982E+02 0.  0.
         23    2    4    4    0    0  0.42134880235E+03  0.61385942168E+03 -0.21929957442E+04  0.23178089888E+04  0.93005221807E+02 0.  0.
          4    1    3    3  502    0 -0.65295639322E+03 -0.44235096765E+03 -0.77216125033E+02  0.79245741841E+03  0.00000000000E+00 0. -1.
         -4    1    3    3    0  502 -0.17148555845E+03 -0.12884759086E+03  0.31389460193E+02  0.21678167967E+03  0.00000000000E+00 0.  1.
         15    1    5    5    0    0  0.89449290794E+02 -0.30544941977E+02 -0.32388979504E+03  0.33740469197E+03  0.17770000000E+01 0.  1.
        -15    1    5    5    0    0  0.31364385853E+03 -0.12115921186E+02 -0.69140358146E+03  0.75931636076E+03  0.17770000000E+01 0. -1.
          4    1    6    6  503    0  0.31631594365E+03  0.40965524521E+03 -0.14176802164E+04  0.15092019057E+04  0.00000000000E+00 0. -1.
         -4    1    6    6    0  503  0.10503285870E+03  0.20420417647E+03 -0.77531552784E+03  0.80860708308E+03  0.00000000000E+00 0.  1.
<mgrwt>
<rscale>  0 0.10794007E+04</rscale>
<asrwt>0</asrwt>
<pdfrwt beam="1">  1        2 0.59060653E+00 0.10794007E+04</pdfrwt>
<pdfrwt beam="2">  1       -2 0.89973335E-01 0.10794007E+04</pdfrwt>
<totfact> 0.49984852E-01</totfact>
</mgrwt>
</event>
<event>
12    1  0.9321077E-008  0.8378282E+03  0.7818608E-02  0.9506821E-01
          2   -1    0    0  501    0  0.00000000000E+00  0.00000000000E+00  0.18150353421E+04  0.18150353421E+04  0.00000000000E+00 0. -1.
         -2   -1    0    0    0  501 -0.00000000000E+00 -0.00000000000E+00 -0.68146641943E+03  0.68146641943E+03  0.00000000000E+00 0.  1.
         23    2    1    2    0    0  0.63227512066E+03  0.48505852250E+03  0.12571520093E+04  0.14912909556E+04  0.91999681902E+02 0.  0.
    5000000    2    1    2    0    0 -0.63227512066E+03 -0.48505852250E+03 -0.12358308654E+03  0.10052108060E+04  0.60010198024E+03 0.  0.
         23    2    4    4    0    0 -0.29145828465E+03 -0.43918206124E+03 -0.29383081031E+03  0.61014046511E+03  0.90033479748E+02 0.  0.
         23    2    4    4    0    0 -0.34081683601E+03 -0.45876461264E+02  0.17024772377E+03  0.39507034085E+03  0.93997454023E+02 0.  0.
          1    1    3    3  502    0  0.47278737167E+03  0.31148651720E+03  0.86873068739E+03  0.10369400930E+04  0.00000000000E+00 0. -1.
         -1    1    3    3    0  502  0.15948774899E+03  0.17357200530E+03  0.38842132186E+03  0.45435086264E+03  0.00000000000E+00 0.  1.
         15    1    5    5    0    0 -0.49607131554E+02 -0.99756377860E+02 -0.25038817983E+02  0.11420290084E+03  0.17770000000E+01 0.  1.
        -15    1    5    5    0    0 -0.24185115310E+03 -0.33942568338E+03 -0.26879199233E+03  0.49593756427E+03  0.17770000000E+01 0. -1.
          1    1    6    6  503    0 -0.10698760207E+03  0.14155264150E+01  0.99815949486E+02  0.14632694381E+03  0.00000000000E+00 0. -1.
         -1    1    6    6    0  503 -0.23382923394E+03 -0.47291987679E+02  0.70431774286E+02  0.24874339704E+03  0.00000000000E+00 0.  1.
<mgrwt>
<rscale>  0 0.83782817E+03</rscale>
<asrwt>0</asrwt>
<pdfrwt beam="1">  1        2 0.27923620E+00 0.83782817E+03</pdfrwt>
<pdfrwt beam="2">  1       -2 0.10484099E+00 0.83782817E+03</pdfrwt>
<totfact> 0.63596739E+00</totfact>
</mgrwt>
</event>
<event>
12    1  0.9321077E-008  0.6213516E+03  0.7818608E-02  0.9862072E-01
          2   -1    0    0  501    0  0.00000000000E+00  0.00000000000E+00  0.47163983601E+04  0.47163983601E+04  0.00000000000E+00 0.  1.
         -2   -1    0    0    0  501 -0.00000000000E+00 -0.00000000000E+00 -0.90678553919E+02  0.90678553919E+02  0.00000000000E+00 0. -1.
         23    2    1    2    0    0  0.38393294059E+03 -0.27970816160E+03  0.25393012296E+04  0.25847377747E+04  0.84719952762E+02 0.  0.
    5000000    2    1    2    0    0 -0.38393294059E+03  0.27970816160E+03  0.20864185766E+04  0.22223391394E+04  0.60000634600E+03 0.  0.
         23    2    4    4    0    0  0.14181019677E+03  0.13045356653E+03  0.53644830957E+03  0.57644293742E+03  0.85915111248E+02 0.  0.
         23    2    4    4    0    0 -0.52574313736E+03  0.14925459507E+03  0.15499702670E+04  0.16458962020E+04  0.88790193159E+02 0.  0.
          1    1    3    3  502    0  0.13445739879E+03 -0.51720791693E+02  0.81338795020E+03  0.82604708698E+03  0.00000000000E+00 0. -1.
         -1    1    3    3    0  502  0.24947554180E+03 -0.22798736991E+03  0.17259132794E+04  0.17586906877E+04  0.00000000000E+00 0.  1.
         15    1    5    5    0    0  0.12461765769E+02  0.58605467272E+02  0.11349695562E+03  0.12835346924E+03  0.17770000000E+01 0.  1.
        -15    1    5    5    0    0  0.12934843100E+03  0.71848099260E+02  0.42295135394E+03  0.44808946819E+03  0.17770000000E+01 0. -1.
          1    1    6    6  503    0 -0.44090745276E+03  0.91959938085E+02  0.12244547034E+04  0.13046629192E+04  0.00000000000E+00 0. -1.
         -1    1    6    6    0  503 -0.84835684605E+02  0.57294656982E+02  0.32551556367E+03  0.34123328280E+03  0.00000000000E+00 0.  1.
<mgrwt>
<rscale>  0 0.62135160E+03</rscale>
<asrwt>0</asrwt>
<pdfrwt beam="1">  1        2 0.72559956E+00 0.62135160E+03</pdfrwt>
<pdfrwt beam="2">  1       -2 0.13950550E-01 0.62135160E+03</pdfrwt>
<totfact> 0.34643651E+00</totfact>
</mgrwt>
</event>
<event>
12    1  0.9321077E-008  0.3672117E+03  0.7818608E-02  0.1055764E+00
          1   -1    0    0  501    0  0.00000000000E+00  0.00000000000E+00  0.66937505229E+03  0.66937505229E+03  0.00000000000E+00 0. -1.
         -1   -1    0    0    0  501 -0.00000000000E+00 -0.00000000000E+00 -0.40205296456E+03  0.40205296456E+03  0.00000000000E+00 0.  1.
         23    2    1    2    0    0  0.88108438265E+02  0.28446861123E+03  0.26171427111E+03  0.40253212003E+03  0.69658167411E+02 0.  0.
    5000000    2    1    2    0    0 -0.88108438265E+02 -0.28446861123E+03  0.56078166144E+01  0.66889589682E+03  0.59891968201E+03 0.  0.
         23    2    4    4    0    0  0.92114978264E+02 -0.13608761752E+03 -0.24875093325E+03  0.31216725000E+03  0.92554612627E+02 0.  0.
         23    2    4    4    0    0 -0.18022341653E+03 -0.14838099371E+03  0.25435874986E+03  0.35672864682E+03  0.89775022522E+02 0.  0.
          2    1    3    3  502    0  0.69787646376E+02  0.23889888650E+03  0.17985136357E+03  0.30706596447E+03  0.00000000000E+00 0. -1.
         -2    1    3    3    0  502  0.18320791889E+02  0.45569724733E+02  0.81862907538E+02  0.95466155564E+02  0.00000000000E+00 0.  1.
         15    1    5    5    0    0  0.74784477513E+02 -0.32877238451E+02 -0.13312288933E+03  0.15620016734E+03  0.17770000000E+01 0. -1.
        -15    1    5    5    0    0  0.17330500750E+02 -0.10321037907E+03 -0.11562804392E+03  0.15596708266E+03  0.17770000000E+01 0.  1.
          4    1    6    6  503    0 -0.17914282246E+03 -0.10703513360E+03  0.20908437803E+03  0.29540641124E+03  0.00000000000E+00 0.  1.
         -4    1    6    6    0  503 -0.10805940700E+01 -0.41345860112E+02  0.45274371830E+02  0.61322235580E+02  0.00000000000E+00 0. -1.
<mgrwt>
<rscale>  0 0.36721166E+03</rscale>
<asrwt>0</asrwt>
<pdfrwt beam="1">  1        1 0.10298078E+00 0.36721166E+03</pdfrwt>
<pdfrwt beam="2">  1       -1 0.61854302E-01 0.36721166E+03</pdfrwt>
<totfact> 0.82132432E+01</totfact>
</mgrwt>
</event>
<event>
12    1  0.9321077E-008  0.5439205E+03  0.7818608E-02  0.1002911E+00
         -2   -1    0    0    0  501 -0.00000000000E+00  0.00000000000E+00  0.54802625953E+03  0.54802625953E+03  0.00000000000E+00 0.  1.
          2   -1    0    0  501    0  0.00000000000E+00 -0.00000000000E+00 -0.59764481796E+03  0.59764481796E+03  0.00000000000E+00 0. -1.
         23    2    1    2    0    0 -0.40269240008E+03  0.65735673280E+02 -0.22430555812E+02  0.41921414426E+03  0.93568269683E+02 0.  0.
    5000000    2    1    2    0    0  0.40269240008E+03 -0.65735673280E+02 -0.27188002618E+02  0.72645693322E+03  0.60043162851E+03 0.  0.
         23    2    4    4    0    0  0.49183779157E+03 -0.14872545670E+03  0.94065750623E+02  0.53048601770E+03  0.92430378424E+02 0.  0.
         23    2    4    4    0    0 -0.89145391483E+02  0.82989783421E+02 -0.12125375324E+03  0.19597091552E+03  0.94169645212E+02 0.  0.
          2    1    3    3  502    0 -0.24938489266E+03  0.68844501959E+02  0.21782348731E+02  0.25962831289E+03  0.00000000000E+00 0. -1.
         -2    1    3    3    0  502 -0.15330750742E+03 -0.31088286784E+01 -0.44212904543E+02  0.15958583138E+03  0.00000000000E+00 0.  1.
         15    1    5    5    0    0  0.25603798316E+03 -0.29257637710E+02  0.43782181968E+02  0.26140293681E+03  0.17770000000E+01 0. -1.
        -15    1    5    5    0    0  0.23579980841E+03 -0.11946781899E+03  0.50283568655E+02  0.26908308090E+03  0.17770000000E+01 0.  1.
          2    1    6    6  503    0 -0.29012732221E+02  0.88707773255E+02 -0.78682787269E+02  0.12207288265E+03  0.00000000000E+00 0. -1.
         -2    1    6    6    0  503 -0.60132659262E+02 -0.57179898341E+01 -0.42570965971E+02  0.73898032866E+02  0.00000000000E+00 0.  1.
<mgrwt>
<rscale>  0 0.54392050E+03</rscale>
<asrwt>0</asrwt>
<pdfrwt beam="1">  1        2 0.91945356E-01 0.54392050E+03</pdfrwt>
<pdfrwt beam="2">  1       -2 0.84311732E-01 0.54392050E+03</pdfrwt>
<totfact> 0.62901003E+01</totfact>
</mgrwt>
</event>
<event>
12    1  0.9321077E-008  0.1328126E+04  0.7818608E-02  0.9007554E-01
          1   -1    0    0  501    0  0.00000000000E+00  0.00000000000E+00  0.13972880405E+04  0.13972880405E+04  0.00000000000E+00 0. -1.
         -1   -1    0    0    0  501 -0.00000000000E+00 -0.00000000000E+00 -0.17761271934E+04  0.17761271934E+04  0.00000000000E+00 0.  1.
         23    2    1    2    0    0 -0.57711247452E+02 -0.12626311504E+04  0.66207095389E+03  0.14298165125E+04  0.92028807361E+02 0.  0.
    5000000    2    1    2    0    0  0.57711247452E+02  0.12626311504E+04 -0.10409101069E+04  0.17435987214E+04  0.59922837101E+03 0.  0.
         23    2    4    4    0    0  0.28097242526E+03  0.96877279790E+03 -0.82821167987E+03  0.13083400246E+04  0.91393629785E+02 0.  0.
         23    2    4    4    0    0 -0.22326117780E+03  0.29385835253E+03 -0.21269842698E+03  0.43525869682E+03  0.89505460442E+02 0.  0.
          1    1    3    3  502    0 -0.28396958697E+02 -0.10369258840E+04  0.50846044352E+03  0.11552288513E+04  0.00000000000E+00 0. -1.
         -1    1    3    3    0  502 -0.29314288755E+02 -0.22570526642E+03  0.15361051036E+03  0.27458766125E+03  0.00000000000E+00 0.  1.
         15    1    5    5    0    0  0.14400889815E+03  0.34080834396E+03 -0.31181554949E+03  0.48386050127E+03  0.17770000000E+01 0.  1.
        -15    1    5    5    0    0  0.13696352711E+03  0.62796445394E+03 -0.51639613038E+03  0.82447952332E+03  0.17770000000E+01 0. -1.
          1    1    6    6  503    0 -0.70232336772E+02  0.16217946656E+03 -0.82574803479E+02  0.19507270099E+03  0.00000000000E+00 0. -1.
         -1    1    6    6    0  503 -0.15302884103E+03  0.13167888597E+03 -0.13012362351E+03  0.24018599583E+03  0.00000000000E+00 0.  1.
<mgrwt>
<rscale>  0 0.13281261E+04</rscale>
<asrwt>0</asrwt>
<pdfrwt beam="1">  1        1 0.21496739E+00 0.13281261E+04</pdfrwt>
<pdfrwt beam="2">  1       -1 0.27325034E+00 0.13281261E+04</pdfrwt>
<totfact> 0.36680632E-01</totfact>
</mgrwt>
</event>
<event>
12    1  0.9321077E-008  0.1108663E+04  0.7818608E-02  0.9196789E-01
          2   -1    0    0  501    0  0.00000000000E+00  0.00000000000E+00  0.31455163631E+04  0.31455163631E+04  0.00000000000E+00 0. -1.
         -2   -1    0    0    0  501 -0.00000000000E+00 -0.00000000000E+00 -0.44405911643E+03  0.44405911643E+03  0.00000000000E+00 0.  1.
         23    2    1    2    0    0 -0.85927164863E+03  0.57289746672E+03  0.18569755556E+04  0.21267467274E+04  0.90189550330E+02 0.  0.
    5000000    2    1    2    0    0  0.85927164863E+03 -0.57289746672E+03  0.84448169114E+03  0.14628287522E+04  0.60013278363E+03 0.  0.
         23    2    4    4    0    0  0.24088036526E+03 -0.49528597487E+03  0.47250668179E+03  0.73137529218E+03  0.91190495136E+02 0.  0.
         23    2    4    4    0    0  0.61839128337E+03 -0.77611491850E+02  0.37197500935E+03  0.73145345999E+03  0.90705201263E+02 0.  0.
          2    1    3    3  502    0 -0.31309965360E+03  0.20470669448E+03  0.76323264661E+03  0.84997664480E+03  0.00000000000E+00 0. -1.
         -2    1    3    3    0  502 -0.54617199503E+03  0.36819077224E+03  0.10937429089E+04  0.12767700826E+04  0.00000000000E+00 0.  1.
         15    1    5    5    0    0  0.24207717593E+03 -0.45735917269E+03  0.45685953085E+03  0.69029164895E+03  0.17770000000E+01 0. -1.
        -15    1    5    5    0    0 -0.11968106706E+01 -0.37926802187E+02  0.15647150938E+02  0.41083643234E+02  0.17770000000E+01 0.  1.
          4    1    6    6  503    0  0.72003313181E+02  0.18444900725E+02  0.55520186871E+02  0.92774902975E+02  0.00000000000E+00 0.  1.
         -4    1    6    6    0  503  0.54638797019E+03 -0.96056392575E+02  0.31645482248E+03  0.63867855702E+03  0.00000000000E+00 0. -1.
<mgrwt>
<rscale>  0 0.11086633E+04</rscale>
<asrwt>0</asrwt>
<pdfrwt beam="1">  1        2 0.48392558E+00 0.11086633E+04</pdfrwt>
<pdfrwt beam="2">  1       -2 0.68316789E-01 0.11086633E+04</pdfrwt>
<totfact> 0.27851820E+00</totfact>
</mgrwt>
</event>
<event>
12    1  0.9321077E-008  0.1030968E+04  0.7818608E-02  0.9275217E-01
          2   -1    0    0  501    0  0.00000000000E+00  0.00000000000E+00  0.75652588183E+03  0.75652588183E+03  0.00000000000E+00 0. -1.
         -2   -1    0    0    0  501 -0.00000000000E+00 -0.00000000000E+00 -0.20936906996E+04  0.20936906996E+04  0.00000000000E+00 0.  1.
         23    2    1    2    0    0  0.84862483666E+03  0.54902614022E+03  0.69528791256E+02  0.10170811344E+04  0.89587750251E+02 0.  0.
    5000000    2    1    2    0    0 -0.84862483666E+03 -0.54902614022E+03 -0.14066936091E+04  0.18331354471E+04  0.60000403469E+03 0.  0.
         23    2    4    4    0    0 -0.56940137561E+03 -0.20664659481E+03 -0.11788751143E+04  0.13283747859E+04  0.88951083062E+02 0.  0.
         23    2    4    4    0    0 -0.27922346105E+03 -0.34237954542E+03 -0.22781849482E+03  0.50476066120E+03  0.87707264178E+02 0.  0.
          2    1    3    3  502    0  0.69200912153E+03  0.41116659232E+03  0.35925837680E+02  0.80574515619E+03  0.00000000000E+00 0.  1.
         -2    1    3    3    0  502  0.15661571513E+03  0.13785954790E+03  0.33602953576E+02  0.21133597816E+03  0.00000000000E+00 0. -1.
         15    1    5    5    0    0 -0.10245039709E+03 -0.41078298592E+02 -0.29710458912E+03  0.31695079285E+03  0.17770000000E+01 0. -1.
        -15    1    5    5    0    0 -0.46695097852E+03 -0.16556829621E+03 -0.88177052513E+03  0.10114239931E+04  0.17770000000E+01 0.  1.
          4    1    6    6  503    0 -0.27658384793E+03 -0.33359272034E+03 -0.23513798363E+03  0.49302393385E+03  0.00000000000E+00 0. -1.
         -4    1    6    6    0  503 -0.26396131239E+01 -0.87868250781E+01  0.73194888156E+01  0.11736727351E+02  0.00000000000E+00 0.  1.
<mgrwt>
<rscale>  0 0.10309683E+04</rscale>
<asrwt>0</asrwt>
<pdfrwt beam="1">  1        2 0.11638860E+00 0.10309683E+04</pdfrwt>
<pdfrwt beam="2">  1       -2 0.32210626E+00 0.10309683E+04</pdfrwt>
<totfact> 0.86499551E-01</totfact>
</mgrwt>
</event>
<event>
12    1  0.9321077E-008  0.7204578E+03  0.7818608E-02  0.9682872E-01
         -2   -1    0    0    0  501 -0.00000000000E+00  0.00000000000E+00  0.15401969593E+04  0.15401969593E+04  0.00000000000E+00 0.  1.
          2   -1    0    0  501    0  0.00000000000E+00 -0.00000000000E+00 -0.42220044732E+03  0.42220044732E+03  0.00000000000E+00 0. -1.
         23    2    1    2    0    0 -0.57251025255E+03 -0.34549556526E+03  0.69780107347E+03  0.97050898028E+03  0.88465630480E+02 0.  0.
    5000000    2    1    2    0    0  0.57251025255E+03  0.34549556526E+03  0.42019543854E+03  0.99188842637E+03  0.60011937888E+03 0.  0.
         23    2    4    4    0    0  0.61703204790E+03  0.35371767302E+03  0.49042551159E+03  0.86885183892E+03  0.92420751057E+02 0.  0.
         23    2    4    4    0    0 -0.44521795347E+02 -0.82221077582E+01 -0.70230073050E+02  0.12303658746E+03  0.90310272813E+02 0.  0.
          2    1    3    3  502    0 -0.28686438587E+03 -0.12418130112E+03  0.34357735295E+03  0.46449711397E+03  0.00000000000E+00 0. -1.
         -2    1    3    3    0  502 -0.28564586668E+03 -0.22131426414E+03  0.35422372052E+03  0.50601186631E+03  0.00000000000E+00 0.  1.
         15    1    5    5    0    0  0.30588706843E+03  0.12872359793E+03  0.25409574209E+03  0.41797663472E+03  0.17770000000E+01 0. -1.
        -15    1    5    5    0    0  0.31114497946E+03  0.22499407509E+03  0.23632976951E+03  0.45087520419E+03  0.17770000000E+01 0.  1.
          2    1    6    6  503    0 -0.23395142585E+02  0.77482113860E+01  0.18257444453E+02  0.30670861648E+02  0.00000000000E+00 0. -1.
         -2    1    6    6    0  503 -0.21126652762E+02 -0.15970319144E+02 -0.88487517503E+02  0.92365725810E+02  0.00000000000E+00 0.  1.
<mgrwt>
<rscale>  0 0.72045785E+03</rscale>
<asrwt>0</asrwt>
<pdfrwt beam="1">  1        2 0.64953916E-01 0.72045785E+03</pdfrwt>
<pdfrwt beam="2">  1       -2 0.23695338E+00 0.72045785E+03</pdfrwt>
<totfact> 0.59572113E+00</totfact>
</mgrwt>
</event>
<event>
12    1  0.9321077E-008  0.6404312E+03  0.7818608E-02  0.9824902E-01
          1   -1    0    0  501    0  0.00000000000E+00  0.00000000000E+00  0.12394880863E+04  0.12394880863E+04  0.00000000000E+00 0. -1.
         -1   -1    0    0    0  501 -0.00000000000E+00 -0.00000000000E+00 -0.38460099048E+03  0.38460099048E+03  0.00000000000E+00 0.  1.
         23    2    1    2    0    0 -0.60416873648E+02 -0.54160647673E+03  0.47578498199E+03  0.72932061466E+03  0.92463158175E+02 0.  0.
    5000000    2    1    2    0    0  0.60416873648E+02  0.54160647673E+03  0.37910211383E+03  0.89476846213E+03  0.59992033958E+03 0.  0.
         23    2    4    4    0    0 -0.32860565570E+02 -0.71353366320E+02  0.21671092247E+03  0.24750121773E+03  0.90122745220E+02 0.  0.
         23    2    4    4    0    0  0.93277439219E+02  0.61295984305E+03  0.16239119136E+03  0.64726724439E+03  0.90352292575E+02 0.  0.
          3    1    3    3  502    0 -0.18569173463E+02 -0.31428687489E+03  0.21718865925E+03  0.38248132979E+03  0.00000000000E+00 0. -1.
         -3    1    3    3    0  502 -0.41847700185E+02 -0.22731960184E+03  0.25859632275E+03  0.34683928487E+03  0.00000000000E+00 0.  1.
         15    1    5    5    0    0 -0.57373801654E+02 -0.43391794375E+02  0.18533985888E+03  0.19881806245E+03  0.17770000000E+01 0. -1.
        -15    1    5    5    0    0  0.24513236084E+02 -0.27961571944E+02  0.31371063588E+02  0.48683155285E+02  0.17770000000E+01 0.  1.
          4    1    6    6  503    0  0.36396546214E+02  0.47616733592E+03  0.10939213401E+03  0.48992517730E+03  0.00000000000E+00 0. -1.
         -4    1    6    6    0  503  0.56880893004E+02  0.13679250714E+03  0.52999057348E+02  0.15734206709E+03  0.00000000000E+00 0.  1.
<mgrwt>
<rscale>  0 0.64043121E+03</rscale>
<asrwt>0</asrwt>
<pdfrwt beam="1">  1        1 0.19069047E+00 0.64043121E+03</pdfrwt>
<pdfrwt beam="2">  1       -1 0.59169384E-01 0.64043121E+03</pdfrwt>
<totfact> 0.30218321E+01</totfact>
</mgrwt>
</event>
<event>
12    1  0.9321077E-008  0.8565139E+03  0.7818608E-02  0.9481636E-01
         -2   -1    0    0    0  501 -0.00000000000E+00  0.00000000000E+00  0.69683764543E+03  0.69683764543E+03  0.00000000000E+00 0.  1.
          2   -1    0    0  501    0  0.00000000000E+00 -0.00000000000E+00 -0.28066870210E+04  0.28066870210E+04  0.00000000000E+00 0. -1.
         23    2    1    2    0    0  0.40250737899E+03 -0.73142112313E+03 -0.23080705293E+04  0.24564631999E+04  0.10016403786E+03 0.  0.
    5000000    2    1    2    0    0 -0.40250737899E+03  0.73142112313E+03  0.19822115377E+03  0.10470614665E+04  0.60004753096E+03 0.  0.
         23    2    4    4    0    0 -0.32123213051E+03  0.31382001374E+03 -0.15839601236E+03  0.48460295455E+03  0.89875714912E+02 0.  0.
         23    2    4    4    0    0 -0.81275248485E+02  0.41760110939E+03  0.35661716614E+03  0.56245851200E+03  0.90484374055E+02 0.  0.
          4    1    3    3  502    0  0.19832026677E+03 -0.28917202755E+03 -0.86360267491E+03  0.93207347878E+03  0.00000000000E+00 0. -1.
         -4    1    3    3    0  502  0.20418711222E+03 -0.44224909558E+03 -0.14444678544E+04  0.15243897211E+04  0.00000000000E+00 0.  1.
         15    1    5    5    0    0 -0.18550828679E+03  0.17919008684E+03 -0.13749541071E+03  0.29228506186E+03  0.17770000000E+01 0. -1.
        -15    1    5    5    0    0 -0.13572384372E+03  0.13462992690E+03 -0.20900601650E+02  0.19231789269E+03  0.17770000000E+01 0.  1.
          4    1    6    6  503    0 -0.40498912492E+02  0.27072096373E+03  0.17302783451E+03  0.32383426877E+03  0.00000000000E+00 0. -1.
         -4    1    6    6    0  503 -0.40776335993E+02  0.14688014567E+03  0.18358933162E+03  0.23862424322E+03  0.00000000000E+00 0.  1.
<mgrwt>
<rscale>  0 0.85651385E+03</rscale>
<asrwt>0</asrwt>
<pdfrwt beam="1">  1        2 0.43179800E+00 0.85651385E+03</pdfrwt>
<pdfrwt beam="2">  1       -2 0.10720579E+00 0.85651385E+03</pdfrwt>
<totfact> 0.16643008E+00</totfact>
</mgrwt>
</event>
<event>
12    1  0.9321077E-008  0.7669638E+03  0.7818608E-02  0.9609106E-01
         -2   -1    0    0    0  501 -0.00000000000E+00  0.00000000000E+00  0.13248759050E+04  0.13248759050E+04  0.00000000000E+00 0.  1.
          2   -1    0    0  501    0  0.00000000000E+00 -0.00000000000E+00 -0.52950184411E+03  0.52950184411E+03  0.00000000000E+00 0. -1.
         23    2    1    2    0    0  0.16570037062E+02 -0.71795121061E+03  0.22216600218E+03  0.75709466724E+03  0.90033858604E+02 0.  0.
    5000000    2    1    2    0    0 -0.16570037062E+02  0.71795121061E+03  0.57320805875E+03  0.10972830819E+04  0.59977843935E+03 0.  0.
         23    2    4    4    0    0  0.16000129877E+03  0.48710924550E+03  0.59669212270E+03  0.79180264891E+03  0.89633213065E+02 0.  0.
         23    2    4    4    0    0 -0.17657133583E+03  0.23084196511E+03 -0.23484063943E+02  0.30548043301E+03  0.91111712731E+02 0.  0.
          2    1    3    3  502    0  0.30251712269E+02 -0.69048522526E+03  0.22348361874E+03  0.72638140136E+03  0.00000000000E+00 0. -1.
         -2    1    3    3    0  502 -0.13681675207E+02 -0.27465985352E+02 -0.13176165560E+01  0.30713265883E+02  0.00000000000E+00 0.  1.
         15    1    5    5    0    0  0.97815140583E+02  0.16053544480E+03  0.22068100956E+03  0.28990118398E+03  0.17770000000E+01 0. -1.
        -15    1    5    5    0    0  0.62186158183E+02  0.32657380069E+03  0.37601111314E+03  0.50190146493E+03  0.17770000000E+01 0.  1.
          2    1    6    6  503    0 -0.12102226263E+02  0.28049606103E+02 -0.31997012279E+02  0.44238592629E+02  0.00000000000E+00 0. -1.
         -2    1    6    6    0  503 -0.16446910957E+03  0.20279235901E+03  0.85129483356E+01  0.26124184038E+03  0.00000000000E+00 0.  1.
<mgrwt>
<rscale>  0 0.76696378E+03</rscale>
<asrwt>0</asrwt>
<pdfrwt beam="1">  1        2 0.81461823E-01 0.76696378E+03</pdfrwt>
<pdfrwt beam="2">  1       -2 0.20382706E+00 0.76696378E+03</pdfrwt>
<totfact> 0.73610481E+00</totfact>
</mgrwt>
</event>
<event>
12    1  0.9321077E-008  0.5935563E+03  0.7818608E-02  0.9918866E-01
         -2   -1    0    0    0  501 -0.00000000000E+00  0.00000000000E+00  0.11944197889E+04  0.11944197889E+04  0.00000000000E+00 0.  1.
          2   -1    0    0  501    0  0.00000000000E+00 -0.00000000000E+00 -0.42635396249E+03  0.42635396249E+03  0.00000000000E+00 0. -1.
         23    2    1    2    0    0 -0.27041074140E+03  0.48569772866E+03  0.51832730729E+03  0.76561203089E+03  0.92056133263E+02 0.  0.
    5000000    2    1    2    0    0  0.27041074140E+03 -0.48569772866E+03  0.24973851908E+03  0.85516172046E+03  0.59992331805E+03 0.  0.
         23    2    4    4    0    0  0.82996910137E+02 -0.23797766581E+02 -0.16010369209E+03  0.20403689105E+03  0.92428566468E+02 0.  0.
         23    2    4    4    0    0  0.18741383126E+03 -0.46189996208E+03  0.40984221117E+03  0.65112482941E+03  0.86702862147E+02 0.  0.
          4    1    3    3  502    0 -0.68967424726E+02  0.99713237869E+02  0.16579677070E+03  0.20539670069E+03  0.00000000000E+00 0. -1.
         -4    1    3    3    0  502 -0.20144331667E+03  0.38598449079E+03  0.35253053659E+03  0.56021533020E+03  0.00000000000E+00 0.  1.
         15    1    5    5    0    0  0.21590557971E+02  0.35178143121E+02 -0.51096474863E+02  0.65708914307E+02  0.17770000000E+01 0.  1.
        -15    1    5    5    0    0  0.61406352167E+02 -0.58975909702E+02 -0.10900721723E+03  0.13832797674E+03  0.17770000000E+01 0. -1.
          1    1    6    6  503    0  0.86582024877E+02 -0.12292090148E+03  0.96769403060E+02  0.17880243964E+03  0.00000000000E+00 0. -1.
         -1    1    6    6    0  503  0.10083180638E+03 -0.33897906059E+03  0.31307280811E+03  0.47232238977E+03  0.00000000000E+00 0.  1.
<mgrwt>
<rscale>  0 0.59355627E+03</rscale>
<asrwt>0</asrwt>
<pdfrwt beam="1">  1        2 0.65592918E-01 0.59355627E+03</pdfrwt>
<pdfrwt beam="2">  1       -2 0.18375689E+00 0.59355627E+03</pdfrwt>
<totfact> 0.13065722E+01</totfact>
</mgrwt>
</event>
<event>
12    1  0.9321077E-008  0.4216973E+03  0.7818608E-02  0.1036515E+00
         -1   -1    0    0    0  501 -0.00000000000E+00  0.00000000000E+00  0.15367992251E+03  0.15367992251E+03  0.00000000000E+00 0.  1.
          1   -1    0    0  501    0  0.00000000000E+00 -0.00000000000E+00 -0.14436787593E+04  0.14436787593E+04  0.00000000000E+00 0. -1.
         23    2    1    2    0    0  0.19406556359E+03 -0.12059530079E+03 -0.63085929225E+03  0.67712532562E+03  0.91162439840E+02 0.  0.
    5000000    2    1    2    0    0 -0.19406556359E+03  0.12059530079E+03 -0.65913954449E+03  0.92023335613E+03  0.60013316946E+03 0.  0.
         23    2    4    4    0    0 -0.24137534787E+02 -0.22521646256E+03 -0.24325870799E+03  0.34590659260E+03  0.95767928849E+02 0.  0.
         23    2    4    4    0    0 -0.16992802880E+03  0.34581176335E+03 -0.41588083650E+03  0.57432676353E+03  0.91831642165E+02 0.  0.
          3    1    3    3  502    0  0.16383088133E+03 -0.85367509635E+02 -0.57784861042E+03  0.60666068436E+03  0.00000000000E+00 0. -1.
         -3    1    3    3    0  502  0.30234682258E+02 -0.35227791151E+02 -0.53010681829E+02  0.70464641265E+02  0.00000000000E+00 0.  1.
         15    1    5    5    0    0 -0.11824964031E+02 -0.14272118632E+03 -0.83784706317E+02  0.16592830241E+03  0.17770000000E+01 0.  1.
        -15    1    5    5    0    0 -0.12312570756E+02 -0.82495276242E+02 -0.15947400168E+03  0.17997829019E+03  0.17770000000E+01 0. -1.
          1    1    6    6  503    0 -0.15618346612E+03  0.32586311647E+03 -0.41473080692E+03  0.55007425678E+03  0.00000000000E+00 0. -1.
         -1    1    6    6    0  503 -0.13744562681E+02  0.19948646878E+02 -0.11500295722E+01  0.24252506748E+02  0.00000000000E+00 0.  1.
<mgrwt>
<rscale>  0 0.42169729E+03</rscale>
<asrwt>0</asrwt>
<pdfrwt beam="1">  1        1 0.22210443E+00 0.42169729E+03</pdfrwt>
<pdfrwt beam="2">  1       -1 0.23643064E-01 0.42169729E+03</pdfrwt>
<totfact> 0.11698544E+02</totfact>
</mgrwt>
</event>
<event>
12    1  0.9321077E-008  0.9184927E+03  0.7818608E-02  0.9402755E-01
          2   -1    0    0  501    0  0.00000000000E+00  0.00000000000E+00  0.13492349190E+04  0.13492349190E+04  0.00000000000E+00 0. -1.
         -2   -1    0    0    0  501 -0.00000000000E+00 -0.00000000000E+00 -0.17352511395E+04  0.17352511395E+04  0.00000000000E+00 0.  1.
         23    2    1    2    0    0 -0.23002840057E+03 -0.85398522604E+03  0.99750003337E+03  0.13362070942E+04  0.90770318530E+02 0.  0.
    5000000    2    1    2    0    0  0.23002840057E+03  0.85398522604E+03 -0.13835162538E+04  0.17482789642E+04  0.60013188608E+03 0.  0.
         23    2    4    4    0    0  0.10941432672E+03  0.68247975081E+02 -0.62833096377E+03  0.64802667284E+03  0.92246884388E+02 0.  0.
         23    2    4    4    0    0  0.12061407385E+03  0.78573725096E+03 -0.75518529006E+03  0.11002522914E+04  0.91211293022E+02 0.  0.
          3    1    3    3  502    0 -0.13221041308E+03 -0.51558535663E+03  0.53312391455E+03  0.75334518088E+03  0.00000000000E+00 0. -1.
         -3    1    3    3    0  502 -0.97817987485E+02 -0.33839986941E+03  0.46437611883E+03  0.58286191335E+03  0.00000000000E+00 0.  1.
         15    1    5    5    0    0  0.21213209131E+01 -0.16027345404E+02 -0.14164981970E+03  0.14258052094E+03  0.17770000000E+01 0. -1.
        -15    1    5    5    0    0  0.10729300580E+03  0.84275320485E+02 -0.48668114408E+03  0.50544615190E+03  0.17770000000E+01 0.  1.
          3    1    6    6  503    0  0.11280670467E+03  0.44988840648E+03 -0.42071187483E+03  0.62619758266E+03  0.00000000000E+00 0. -1.
         -3    1    6    6    0  503  0.78073691808E+01  0.33584884448E+03 -0.33447341523E+03  0.47405470871E+03  0.00000000000E+00 0.  1.
<mgrwt>
<rscale>  0 0.91849274E+03</rscale>
<asrwt>0</asrwt>
<pdfrwt beam="1">  1        2 0.20757460E+00 0.91849274E+03</pdfrwt>
<pdfrwt beam="2">  1       -2 0.26696171E+00 0.91849274E+03</pdfrwt>
<totfact> 0.79256855E-01</totfact>
</mgrwt>
</event>
<event>
12    1  0.9321077E-008  0.1716570E+04  0.7818608E-02  0.8751970E-01
         -2   -1    0    0    0  501 -0.00000000000E+00  0.00000000000E+00  0.28209870822E+04  0.28209870822E+04  0.00000000000E+00 0.  1.
          2   -1    0    0  501    0  0.00000000000E+00 -0.00000000000E+00 -0.11614026041E+04  0.11614026041E+04  0.00000000000E+00 0. -1.
         23    2    1    2    0    0 -0.24301727347E+03 -0.16554708237E+04  0.21000447970E+03  0.16887660694E+04  0.90487084428E+02 0.  0.
    5000000    2    1    2    0    0  0.24301727347E+03  0.16554708237E+04  0.14495799984E+04  0.22936236168E+04  0.59982170735E+03 0.  0.
         23    2    4    4    0    0  0.28611698677E+03  0.16442499288E+04  0.14004551131E+04  0.21803452584E+04  0.84912682128E+02 0.  0.
         23    2    4    4    0    0 -0.43099713302E+02  0.11220894864E+02  0.49124885320E+02  0.11327835841E+03  0.91843553707E+02 0.  0.
          2    1    3    3  502    0 -0.13333479630E+03 -0.74656994747E+03  0.13390289292E+03  0.77011352351E+03  0.00000000000E+00 0. -1.
         -2    1    3    3    0  502 -0.10968247717E+03 -0.90890087624E+03  0.76101586782E+02  0.91865254593E+03  0.00000000000E+00 0.  1.
         15    1    5    5    0    0  0.11628777749E+03  0.62654252137E+03  0.58807777725E+03  0.86713148259E+03  0.17770000000E+01 0. -1.
        -15    1    5    5    0    0  0.16982920928E+03  0.10177074075E+04  0.81237733583E+03  0.13132137758E+04  0.17770000000E+01 0.  1.
          4    1    6    6  503    0 -0.58044650807E+02 -0.15092160435E+02  0.56211038924E+02  0.82198757234E+02  0.00000000000E+00 0. -1.
         -4    1    6    6    0  503  0.14944937506E+02  0.26313055299E+02 -0.70861536038E+01  0.31079601173E+02  0.00000000000E+00 0.  1.
<mgrwt>
<rscale>  0 0.17165703E+04</rscale>
<asrwt>0</asrwt>
<pdfrwt beam="1">  1        2 0.17867732E+00 0.17165703E+04</pdfrwt>
<pdfrwt beam="2">  1       -2 0.43399801E+00 0.17165703E+04</pdfrwt>
<totfact> 0.81762365E-02</totfact>
</mgrwt>
</event>
<event>
12    1  0.9321077E-008  0.7238956E+03  0.7818608E-02  0.9677218E-01
         -1   -1    0    0    0  501 -0.00000000000E+00  0.00000000000E+00  0.98115381583E+03  0.98115381583E+03  0.00000000000E+00 0.  1.
          1   -1    0    0  501    0  0.00000000000E+00 -0.00000000000E+00 -0.77087287218E+03  0.77087287218E+03  0.00000000000E+00 0. -1.
         23    2    1    2    0    0 -0.69698514944E+03 -0.87832600710E+01  0.40599590638E+03  0.81173548001E+03  0.90644190729E+02 0.  0.
    5000000    2    1    2    0    0  0.69698514944E+03  0.87832600710E+01 -0.19571496273E+03  0.94029120800E+03  0.59998147055E+03 0.  0.
         23    2    4    4    0    0  0.22231108083E+03 -0.99098244260E+02 -0.33672440834E+03  0.42576765643E+03  0.93016619001E+02 0.  0.
         23    2    4    4    0    0  0.47467406861E+03  0.10788150433E+03  0.14100944561E+03  0.51452355157E+03  0.88864677923E+02 0.  0.
          4    1    3    3  502    0 -0.40067697816E+03  0.39693729237E+02  0.23586523407E+03  0.46663694840E+03  0.00000000000E+00 0. -1.
         -4    1    3    3    0  502 -0.29630817128E+03 -0.48476989308E+02  0.17013067231E+03  0.34509853161E+03  0.00000000000E+00 0.  1.
         15    1    5    5    0    0  0.20713877379E+03 -0.64718920421E+02 -0.24890826746E+03  0.33023248417E+03  0.17770000000E+01 0. -1.
        -15    1    5    5    0    0  0.15172307047E+02 -0.34379323839E+02 -0.87816140884E+02  0.95535172253E+02  0.17770000000E+01 0.  1.
          2    1    6    6  503    0  0.13800650775E+03  0.58907377693E+02  0.75829915689E+02  0.16812510652E+03  0.00000000000E+00 0. -1.
         -2    1    6    6    0  503  0.33666756086E+03  0.48974126637E+02  0.65179529925E+02  0.34639844505E+03  0.00000000000E+00 0.  1.
<mgrwt>
<rscale>  0 0.72389562E+03</rscale>
<asrwt>0</asrwt>
<pdfrwt beam="1">  1        1 0.11859583E+00 0.72389562E+03</pdfrwt>
<pdfrwt beam="2">  1       -1 0.15094674E+00 0.72389562E+03</pdfrwt>
<totfact> 0.83351617E+00</totfact>
</mgrwt>
</event>
<event>
12    1  0.9321077E-008  0.6608566E+03  0.7818608E-02  0.9786618E-01
          2   -1    0    0  501    0  0.00000000000E+00  0.00000000000E+00  0.21197308328E+04  0.21197308328E+04  0.00000000000E+00 0. -1.
         -2   -1    0    0    0  501 -0.00000000000E+00 -0.00000000000E+00 -0.31128663097E+03  0.31128663097E+03  0.00000000000E+00 0.  1.
         23    2    1    2    0    0  0.58198203171E+03  0.56052297508E+02  0.13544950247E+04  0.14781029097E+04  0.91030184224E+02 0.  0.
    5000000    2    1    2    0    0 -0.58198203171E+03 -0.56052297508E+02  0.45394917717E+03  0.95291455411E+03  0.60010944560E+03 0.  0.
         23    2    4    4    0    0 -0.50119504831E+03 -0.20266971453E+03  0.51636087612E+03  0.75254135709E+03  0.86130424998E+02 0.  0.
         23    2    4    4    0    0 -0.80786983394E+02  0.14661741702E+03 -0.62411698952E+02  0.20037319702E+03  0.90724827125E+02 0.  0.
          4    1    3    3  502    0  0.35946599747E+03  0.78616381220E+02  0.85552564881E+03  0.93130042118E+03  0.00000000000E+00 0. -1.
         -4    1    3    3    0  502  0.22251603424E+03 -0.22564083712E+02  0.49896937585E+03  0.54680248848E+03  0.00000000000E+00 0.  1.
         15    1    5    5    0    0 -0.20383244710E+03 -0.94070538395E+02  0.27164288891E+03  0.35240594420E+03  0.17770000000E+01 0. -1.
        -15    1    5    5    0    0 -0.29736260122E+03 -0.10859917613E+03  0.24471798721E+03  0.40013541289E+03  0.17770000000E+01 0.  1.
          2    1    6    6  503    0 -0.53930462892E+02  0.15229872103E+03 -0.61600255440E+02  0.17291034302E+03  0.00000000000E+00 0. -1.
         -2    1    6    6    0  503 -0.26856520503E+02 -0.56813040096E+01 -0.81144351213E+00  0.27462853991E+02  0.00000000000E+00 0.  1.
<mgrwt>
<rscale>  0 0.66085663E+03</rscale>
<asrwt>0</asrwt>
<pdfrwt beam="1">  1        2 0.32611243E+00 0.66085663E+03</pdfrwt>
<pdfrwt beam="2">  1       -2 0.47890252E-01 0.66085663E+03</pdfrwt>
<totfact> 0.24839174E+01</totfact>
</mgrwt>
</event>
<event>
12    1  0.9321077E-008  0.3034878E+04  0.7818608E-02  0.8233841E-01
          2   -1    0    0  501    0  0.00000000000E+00  0.00000000000E+00  0.27483707768E+04  0.27483707768E+04  0.00000000000E+00 0. -1.
         -2   -1    0    0    0  501 -0.00000000000E+00 -0.00000000000E+00 -0.38570128365E+04  0.38570128365E+04  0.00000000000E+00 0.  1.
         23    2    1    2    0    0 -0.25568172878E+04  0.16052696976E+04  0.60816002770E+03  0.30809656431E+04  0.91023235912E+02 0.  0.
    5000000    2    1    2    0    0  0.25568172878E+04 -0.16052696976E+04 -0.17168020874E+04  0.35244179703E+04  0.59992264274E+03 0.  0.
         23    2    4    4    0    0  0.15707714676E+04 -0.12149305187E+04 -0.13306964883E+04  0.23921309008E+04  0.90321281982E+02 0.  0.
         23    2    4    4    0    0  0.98604582013E+03 -0.39033917890E+03 -0.38610559912E+03  0.11322870695E+04  0.91353380474E+02 0.  0.
          3    1    3    3  502    0 -0.20773350691E+04  0.13356186170E+04  0.47386574051E+03  0.25147061099E+04  0.00000000000E+00 0. -1.
         -3    1    3    3    0  502 -0.47948221869E+03  0.26965108061E+03  0.13429428719E+03  0.56625953315E+03  0.00000000000E+00 0.  1.
         15    1    5    5    0    0  0.94657613082E+03 -0.68298928697E+03 -0.75563147697E+03  0.13904901381E+04  0.17770000000E+01 0. -1.
        -15    1    5    5    0    0  0.62419533680E+03 -0.53194123171E+03 -0.57506501128E+03  0.10016407627E+04  0.17770000000E+01 0.  1.
          1    1    6    6  503    0  0.77915604698E+03 -0.33741439051E+03 -0.33447726117E+03  0.91258295772E+03  0.00000000000E+00 0. -1.
         -1    1    6    6    0  503  0.20688977315E+03 -0.52924788393E+02 -0.51628337943E+02  0.21970411179E+03  0.00000000000E+00 0.  1.
<mgrwt>
<rscale>  0 0.30348783E+04</rscale>
<asrwt>0</asrwt>
<pdfrwt beam="1">  1        2 0.42282627E+00 0.30348783E+04</pdfrwt>
<pdfrwt beam="2">  1       -2 0.59338659E+00 0.30348783E+04</pdfrwt>
<totfact> 0.10433852E-03</totfact>
</mgrwt>
</event>
<event>
12    1  0.9321077E-008  0.4521742E+03  0.7818608E-02  0.1027076E+00
         -2   -1    0    0    0  501 -0.00000000000E+00  0.00000000000E+00  0.15241451761E+03  0.15241451761E+03  0.00000000000E+00 0.  1.
          2   -1    0    0  501    0  0.00000000000E+00 -0.00000000000E+00 -0.18226464640E+04  0.18226464640E+04  0.00000000000E+00 0. -1.
         23    2    1    2    0    0  0.16118512428E+02  0.34085191621E+03 -0.43140986106E+03  0.55692474024E+03  0.87240259333E+02 0.  0.
    5000000    2    1    2    0    0 -0.16118512428E+02 -0.34085191621E+03 -0.12388220854E+04  0.14181362414E+04  0.59999200390E+03 0.  0.
         23    2    4    4    0    0 -0.21612231213E+03 -0.10157304732E+03 -0.94734673302E+03  0.98150120170E+03  0.94089524618E+02 0.  0.
         23    2    4    4    0    0  0.20000379970E+03 -0.23927886889E+03 -0.29147535237E+03  0.43663503971E+03  0.91849767951E+02 0.  0.
          1    1    3    3  502    0  0.37248304122E+02  0.21875839176E+03 -0.22390422387E+03  0.31523922914E+03  0.00000000000E+00 0. -1.
         -1    1    3    3    0  502 -0.21129791694E+02  0.12209352446E+03 -0.20750563719E+03  0.24168551110E+03  0.00000000000E+00 0.  1.
         15    1    5    5    0    0 -0.12159102376E+03 -0.28572307133E+02 -0.63335443361E+03  0.64555538112E+03  0.17770000000E+01 0. -1.
        -15    1    5    5    0    0 -0.94531288371E+02 -0.73000740192E+02 -0.31399229941E+03  0.33594582058E+03  0.17770000000E+01 0.  1.
          1    1    6    6  503    0  0.14056819727E+03 -0.13957963545E+03 -0.23560425327E+03  0.30781692104E+03  0.00000000000E+00 0. -1.
         -1    1    6    6    0  503  0.59435602431E+02 -0.99699233438E+02 -0.55871099097E+02  0.12881811867E+03  0.00000000000E+00 0.  1.
<mgrwt>
<rscale>  0 0.45217418E+03</rscale>
<asrwt>0</asrwt>
<pdfrwt beam="1">  1        2 0.28040713E+00 0.45217418E+03</pdfrwt>
<pdfrwt beam="2">  1       -2 0.23448389E-01 0.45217418E+03</pdfrwt>
<totfact> 0.14271832E+02</totfact>
</mgrwt>
</event>
<event>
12    1  0.9321077E-008  0.9130860E+03  0.7818608E-02  0.9409370E-01
          2   -1    0    0  501    0  0.00000000000E+00  0.00000000000E+00  0.19816144417E+04  0.19816144417E+04  0.00000000000E+00 0. -1.
         -2   -1    0    0    0  501 -0.00000000000E+00 -0.00000000000E+00 -0.51343710764E+03  0.51343710764E+03  0.00000000000E+00 0.  1.
         23    2    1    2    0    0 -0.15472327972E+03  0.89107777787E+03  0.86280727942E+03  0.12533869209E+04  0.92647032111E+02 0.  0.
    5000000    2    1    2    0    0  0.15472327972E+03 -0.89107777787E+03  0.60537005464E+03  0.12416646284E+04  0.59774513547E+03 0.  0.
         23    2    4    4    0    0  0.38669714298E+02 -0.63036840466E+03  0.68079957164E+03  0.93318586152E+03  0.92131009941E+02 0.  0.
         23    2    4    4    0    0  0.11605356543E+03 -0.26070937320E+03 -0.75429517003E+02  0.30847876692E+03  0.89619921244E+02 0.  0.
          1    1    3    3  502    0 -0.19325021517E+02  0.85505304443E+02  0.12477850555E+03  0.15249357033E+03  0.00000000000E+00 0. -1.
         -1    1    3    3    0  502 -0.13539825821E+03  0.80557247342E+03  0.73802877387E+03  0.11008933506E+04  0.00000000000E+00 0.  1.
         15    1    5    5    0    0 -0.19794701344E+01 -0.31957962537E+03  0.40312683320E+03  0.51444091656E+03  0.17770000000E+01 0. -1.
        -15    1    5    5    0    0  0.40649184432E+02 -0.31078877929E+03  0.27767273844E+03  0.41874494496E+03  0.17770000000E+01 0.  1.
          3    1    6    6  503    0  0.28192954460E+02 -0.11545189008E+03  0.84115046258E+01  0.11914165944E+03  0.00000000000E+00 0. -1.
         -3    1    6    6    0  503  0.87860610966E+02 -0.14525748312E+03 -0.83841021629E+02  0.18933710748E+03  0.00000000000E+00 0.  1.
<mgrwt>
<rscale>  0 0.91308600E+03</rscale>
<asrwt>0</asrwt>
<pdfrwt beam="1">  1        2 0.30486376E+00 0.91308600E+03</pdfrwt>
<pdfrwt beam="2">  1       -2 0.78990325E-01 0.91308600E+03</pdfrwt>
<totfact> 0.98486379E+00</totfact>
</mgrwt>
</event>
<event>
12    1  0.9321077E-008  0.6852864E+03  0.7818608E-02  0.9742731E-01
         -2   -1    0    0    0  501 -0.00000000000E+00  0.00000000000E+00  0.41642566871E+03  0.41642566871E+03  0.00000000000E+00 0.  1.
          2   -1    0    0  501    0  0.00000000000E+00 -0.00000000000E+00 -0.12534565631E+04  0.12534565631E+04  0.00000000000E+00 0. -1.
         23    2    1    2    0    0  0.34220012256E+03 -0.48439233900E+03 -0.37732430457E+03  0.70914315928E+03  0.93667110407E+02 0.  0.
    5000000    2    1    2    0    0 -0.34220012256E+03  0.48439233900E+03 -0.45970658987E+03  0.96073907258E+03  0.59996046108E+03 0.  0.
         23    2    4    4    0    0 -0.30354782240E+03  0.56452953062E+03 -0.50568140114E+03  0.82260546511E+03  0.10065386399E+03 0.  0.
         23    2    4    4    0    0 -0.38652300163E+02 -0.80137191626E+02  0.45974811273E+02  0.13813360748E+03  0.95138007405E+02 0.  0.
          4    1    3    3  502    0  0.14849587129E+03 -0.13579031363E+03 -0.11440474407E+03  0.23147025410E+03  0.00000000000E+00 0. -1.
         -4    1    3    3    0  502  0.19370425127E+03 -0.34860202537E+03 -0.26291956050E+03  0.47767290518E+03  0.00000000000E+00 0.  1.
         15    1    5    5    0    0 -0.12641779390E+02  0.77876483261E+02 -0.37787459038E+02  0.87496348614E+02  0.17770000000E+01 0. -1.
        -15    1    5    5    0    0 -0.29090604301E+03  0.48665304736E+03 -0.46789394210E+03  0.73510911649E+03  0.17770000000E+01 0.  1.
          3    1    6    6  503    0  0.24236620525E+02 -0.48588191419E+02  0.39093878722E+00  0.54298977458E+02  0.00000000000E+00 0. -1.
         -3    1    6    6    0  503 -0.62888920688E+02 -0.31549000206E+02  0.45583872486E+02  0.83834630017E+02  0.00000000000E+00 0.  1.
<mgrwt>
<rscale>  0 0.68528635E+03</rscale>
<asrwt>0</asrwt>
<pdfrwt beam="1">  1        2 0.19283947E+00 0.68528635E+03</pdfrwt>
<pdfrwt beam="2">  1       -2 0.64065487E-01 0.68528635E+03</pdfrwt>
<totfact> 0.40673387E+01</totfact>
</mgrwt>
</event>
<event>
12    1  0.9321077E-008  0.8195790E+03  0.7818608E-02  0.9532102E-01
          2   -1    0    0  501    0  0.00000000000E+00  0.00000000000E+00  0.69271252951E+03  0.69271252951E+03  0.00000000000E+00 0. -1.
         -2   -1    0    0    0  501 -0.00000000000E+00 -0.00000000000E+00 -0.10044276886E+04  0.10044276886E+04  0.00000000000E+00 0.  1.
         23    2    1    2    0    0  0.70664814261E+03  0.13426248890E+03 -0.20769572354E+03  0.75468140884E+03  0.95018429152E+02 0.  0.
    5000000    2    1    2    0    0 -0.70664814261E+03 -0.13426248890E+03 -0.10401943558E+03  0.94245880930E+03  0.60002545851E+03 0.  0.
         23    2    4    4    0    0 -0.56864433119E+03 -0.32964004639E+03  0.80155682311E+01  0.66354464361E+03  0.90599719366E+02 0.  0.
         23    2    4    4    0    0 -0.13800381142E+03  0.19537755749E+03 -0.11203500381E+03  0.27891416568E+03  0.89575821526E+02 0.  0.
          3    1    3    3  502    0  0.58980525854E+03  0.13992179077E+03 -0.19620790303E+03  0.63713883239E+03  0.00000000000E+00 0. -1.
         -3    1    3    3    0  502  0.11684288408E+03 -0.56593018672E+01 -0.11487820514E+02  0.11754257645E+03  0.00000000000E+00 0.  1.
         15    1    5    5    0    0 -0.52726275407E+03 -0.27428698850E+03  0.87472018986E+01  0.59440645619E+03  0.17770000000E+01 0. -1.
        -15    1    5    5    0    0 -0.41381577125E+02 -0.55353057896E+02 -0.73163366741E+00  0.69138187427E+02  0.17770000000E+01 0.  1.
          3    1    6    6  503    0 -0.99377657649E+02  0.70588445142E+02 -0.33190803860E+02  0.12633398944E+03  0.00000000000E+00 0. -1.
         -3    1    6    6    0  503 -0.38626153772E+02  0.12478911235E+03 -0.78844199948E+02  0.15258017624E+03  0.00000000000E+00 0.  1.
<mgrwt>
<rscale>  0 0.81957895E+03</rscale>
<asrwt>0</asrwt>
<pdfrwt beam="1">  1        2 0.10657116E+00 0.81957895E+03</pdfrwt>
<pdfrwt beam="2">  1       -2 0.15452734E+00 0.81957895E+03</pdfrwt>
<totfact> 0.11588202E+01</totfact>
</mgrwt>
</event>
<event>
12    1  0.9321077E-008  0.1354142E+04  0.7818608E-02  0.8987698E-01
          2   -1    0    0  501    0  0.00000000000E+00  0.00000000000E+00  0.11246474765E+04  0.11246474765E+04  0.00000000000E+00 0. -1.
         -2   -1    0    0    0  501 -0.00000000000E+00 -0.00000000000E+00 -0.24818139622E+04  0.24818139622E+04  0.00000000000E+00 0.  1.
         23    2    1    2    0    0 -0.12362916108E+04 -0.40663265951E+03 -0.16905333612E+04  0.21354215076E+04  0.91405158998E+02 0.  0.
    5000000    2    1    2    0    0  0.12362916108E+04  0.40663265951E+03  0.33336687550E+03  0.14710399311E+04  0.59921443451E+03 0.  0.
         23    2    4    4    0    0  0.43556716254E+01 -0.54273613080E+02 -0.19687812419E+02  0.10608044768E+03  0.88886750815E+02 0.  0.
         23    2    4    4    0    0  0.12319359392E+04  0.46090627259E+03  0.35305468791E+03  0.13649594834E+04  0.91465995876E+02 0.  0.
          3    1    3    3  502    0 -0.30262036404E+03 -0.10909186176E+03 -0.48263736499E+03  0.58001633177E+03  0.00000000000E+00 0. -1.
         -3    1    3    3    0  502 -0.93367124675E+03 -0.29754079775E+03 -0.12078959962E+04  0.15554051758E+04  0.00000000000E+00 0.  1.
         15    1    5    5    0    0 -0.27284498332E+02  0.57660262010E+00 -0.31421426933E+02  0.41656213454E+02  0.17770000000E+01 0. -1.
        -15    1    5    5    0    0  0.31640169957E+02 -0.54850215700E+02  0.11733614514E+02  0.64424234228E+02  0.17770000000E+01 0.  1.
          3    1    6    6  503    0  0.95216634428E+03  0.33776494563E+03  0.30646075970E+03  0.10557575967E+04  0.00000000000E+00 0. -1.
         -3    1    6    6    0  503  0.27976959489E+03  0.12314132696E+03  0.46593928211E+02  0.30920188676E+03  0.00000000000E+00 0.  1.
<mgrwt>
<rscale>  0 0.13541421E+04</rscale>
<asrwt>0</asrwt>
<pdfrwt beam="1">  1        2 0.17302269E+00 0.13541421E+04</pdfrwt>
<pdfrwt beam="2">  1       -2 0.38181753E+00 0.13541421E+04</pdfrwt>
<totfact> 0.19765974E-01</totfact>
</mgrwt>
</event>
<event>
12    1  0.9321077E-008  0.9367591E+03  0.7818608E-02  0.9380762E-01
         -2   -1    0    0    0  501 -0.00000000000E+00  0.00000000000E+00  0.17596929540E+04  0.17596929540E+04  0.00000000000E+00 0.  1.
          2   -1    0    0  501    0  0.00000000000E+00 -0.00000000000E+00 -0.19421665614E+04  0.19421665614E+04  0.00000000000E+00 0. -1.
         23    2    1    2    0    0 -0.28264611174E+03 -0.84909237118E+03 -0.16511337644E+04  0.18803837522E+04  0.93561041183E+02 0.  0.
    5000000    2    1    2    0    0  0.28264611174E+03  0.84909237118E+03  0.14686601569E+04  0.18214757632E+04  0.59997051615E+03 0.  0.
         23    2    4    4    0    0  0.35803997921E+03  0.57664685728E+03  0.62638789276E+03  0.92832246979E+03  0.93309115252E+02 0.  0.
         23    2    4    4    0    0 -0.75393867474E+02  0.27244551390E+03  0.84227226417E+03  0.89315329346E+03  0.91593915306E+02 0.  0.
          4    1    3    3  502    0 -0.12511056827E+03 -0.38810801318E+03 -0.85016726135E+03  0.94290235786E+03  0.00000000000E+00 0. -1.
         -4    1    3    3    0  502 -0.15753554347E+03 -0.46098435800E+03 -0.80096650300E+03  0.93748139433E+03  0.00000000000E+00 0.  1.
         15    1    5    5    0    0  0.24727293901E+03  0.44936069624E+03  0.51019834615E+03  0.72344623285E+03  0.17770000000E+01 0.  1.
        -15    1    5    5    0    0  0.11076704021E+03  0.12728616104E+03  0.11618954661E+03  0.20487623693E+03  0.17770000000E+01 0. -1.
          1    1    6    6  503    0 -0.70377622160E+02  0.89197298348E+02  0.33906249810E+03  0.35759270875E+03  0.00000000000E+00 0. -1.
         -1    1    6    6    0  503 -0.50162453144E+01  0.18324821556E+03  0.50320976607E+03  0.53556058470E+03  0.00000000000E+00 0.  1.
<mgrwt>
<rscale>  0 0.93675914E+03</rscale>
<asrwt>0</asrwt>
<pdfrwt beam="1">  1        2 0.29879485E+00 0.93675914E+03</pdfrwt>
<pdfrwt beam="2">  1       -2 0.27072200E+00 0.93675914E+03</pdfrwt>
<totfact> 0.35099879E-01</totfact>
</mgrwt>
</event>
<event>
12    1  0.9321077E-008  0.1033660E+04  0.7818608E-02  0.9272378E-01
         -1   -1    0    0    0  501 -0.00000000000E+00  0.00000000000E+00  0.81154713992E+03  0.81154713992E+03  0.00000000000E+00 0.  1.
          1   -1    0    0  501    0  0.00000000000E+00 -0.00000000000E+00 -0.25954841196E+04  0.25954841196E+04  0.00000000000E+00 0. -1.
         23    2    1    2    0    0  0.92435997492E+03  0.37665328397E+03 -0.19862539946E+04  0.22249653069E+04  0.94639453946E+02 0.  0.
    5000000    2    1    2    0    0 -0.92435997492E+03 -0.37665328397E+03  0.20231701498E+03  0.11820659526E+04  0.60003223422E+03 0.  0.
         23    2    4    4    0    0 -0.67579302540E+03 -0.91351489821E+02  0.34170407270E+03  0.76826832468E+03  0.91832660517E+02 0.  0.
         23    2    4    4    0    0 -0.24856694952E+03 -0.28530179414E+03 -0.13938705771E+03  0.41379762788E+03  0.92828243807E+02 0.  0.
          3    1    3    3  502    0  0.44467867652E+03  0.22844689867E+03 -0.10309868750E+04  0.11458014868E+04  0.00000000000E+00 0. -1.
         -3    1    3    3    0  502  0.47968129840E+03  0.14820638529E+03 -0.95526711964E+03  0.10791638201E+04  0.00000000000E+00 0.  1.
         15    1    5    5    0    0 -0.67323171543E+03 -0.84219813517E+02  0.33068565410E+03  0.75477816556E+03  0.17770000000E+01 0. -1.
        -15    1    5    5    0    0 -0.25613099653E+01 -0.71316763040E+01  0.11018418593E+02  0.13490159114E+02  0.17770000000E+01 0.  1.
          3    1    6    6  503    0 -0.18641358290E+03 -0.19844172140E+03 -0.14176702865E+03  0.30696421793E+03  0.00000000000E+00 0. -1.
         -3    1    6    6    0  503 -0.62153366626E+02 -0.86860072747E+02  0.23799709323E+01  0.10683340995E+03  0.00000000000E+00 0.  1.
<mgrwt>
<rscale>  0 0.10336602E+04</rscale>
<asrwt>0</asrwt>
<pdfrwt beam="1">  1        1 0.39930525E+00 0.10336602E+04</pdfrwt>
<pdfrwt beam="2">  1       -1 0.12485341E+00 0.10336602E+04</pdfrwt>
<totfact> 0.66167388E-01</totfact>
</mgrwt>
</event>
<event>
12    1  0.9321077E-008  0.6623757E+03  0.7818608E-02  0.9783830E-01
          1   -1    0    0  501    0  0.00000000000E+00  0.00000000000E+00  0.81017891950E+03  0.81017891950E+03  0.00000000000E+00 0. -1.
         -1   -1    0    0    0  501 -0.00000000000E+00 -0.00000000000E+00 -0.73812167820E+03  0.73812167820E+03  0.00000000000E+00 0.  1.
         23    2    1    2    0    0  0.13188834399E+03  0.55045869792E+03 -0.29629509897E+03  0.64505864757E+03  0.88941327505E+02 0.  0.
    5000000    2    1    2    0    0 -0.13188834399E+03 -0.55045869792E+03  0.36835234027E+03  0.90324195013E+03  0.59980268464E+03 0.  0.
         23    2    4    4    0    0 -0.30174799991E+03 -0.41198021873E+03  0.41211349715E+03  0.66244048957E+03  0.90610769876E+02 0.  0.
         23    2    4    4    0    0  0.16985965592E+03 -0.13847847918E+03 -0.43761156876E+02  0.24080146056E+03  0.89675596734E+02 0.  0.
          2    1    3    3  502    0 -0.86200591033E+01  0.11647340181E+03 -0.62932113186E+02  0.13266804294E+03  0.00000000000E+00 0. -1.
         -2    1    3    3    0  502  0.14050840309E+03  0.43398529611E+03 -0.23336298578E+03  0.51239060463E+03  0.00000000000E+00 0.  1.
         15    1    5    5    0    0 -0.10762624748E+03 -0.83600024998E+02  0.91822112655E+02  0.16433755331E+03  0.17770000000E+01 0.  1.
        -15    1    5    5    0    0 -0.19412175243E+03 -0.32838019373E+03  0.32029138449E+03  0.49810293626E+03  0.17770000000E+01 0. -1.
          4    1    6    6  503    0  0.55290655294E+02 -0.13033376874E+01  0.50321059318E+01  0.55534469855E+02  0.00000000000E+00 0.  1.
         -4    1    6    6    0  503  0.11456900063E+03 -0.13717514150E+03 -0.48793262808E+02  0.18526699071E+03  0.00000000000E+00 0. -1.
<mgrwt>
<rscale>  0 0.66237568E+03</rscale>
<asrwt>0</asrwt>
<pdfrwt beam="1">  1        1 0.12464291E+00 0.66237568E+03</pdfrwt>
<pdfrwt beam="2">  1       -1 0.11355718E+00 0.66237568E+03</pdfrwt>
<totfact> 0.15948360E+01</totfact>
</mgrwt>
</event>
<event>
12    1  0.9321077E-008  0.9882875E+03  0.7818608E-02  0.9321485E-01
         -2   -1    0    0    0  501 -0.00000000000E+00  0.00000000000E+00  0.59568944530E+03  0.59568944530E+03  0.00000000000E+00 0. -1.
          2   -1    0    0  501    0  0.00000000000E+00 -0.00000000000E+00 -0.19530423281E+04  0.19530423281E+04  0.00000000000E+00 0.  1.
         23    2    1    2    0    0 -0.41014577148E+02  0.96297831281E+03 -0.90927792890E+03  0.13282208073E+04  0.91513574593E+02 0.  0.
    5000000    2    1    2    0    0  0.41014577148E+02 -0.96297831281E+03 -0.44807495391E+03  0.12205109662E+04  0.59988867944E+03 0.  0.
         23    2    4    4    0    0 -0.20803258713E+02 -0.37526941197E+02 -0.24692522879E+03  0.26684235900E+03  0.91606381086E+02 0.  0.
         23    2    4    4    0    0  0.61817835862E+02 -0.92545137162E+03 -0.20114972512E+03  0.95366860716E+03  0.93492857012E+02 0.  0.
          4    1    3    3  502    0 -0.56672247311E+02  0.31848773668E+03 -0.30037121181E+03  0.44143974325E+03  0.00000000000E+00 0. -1.
         -4    1    3    3    0  502  0.15657670163E+02  0.64449057613E+03 -0.60890671709E+03  0.88678106400E+03  0.00000000000E+00 0.  1.
         15    1    5    5    0    0 -0.32289203363E+02 -0.52662241851E+02 -0.23778316083E+03  0.24568250584E+03  0.17770000000E+01 0.  1.
        -15    1    5    5    0    0  0.11485944650E+02  0.15135300653E+02 -0.91420679594E+01  0.21159853165E+02  0.17770000000E+01 0. -1.
          4    1    6    6  503    0  0.37379016628E+02 -0.58796795284E+03 -0.81477173695E+02  0.59476216615E+03  0.00000000000E+00 0. -1.
         -4    1    6    6    0  503  0.24438819234E+02 -0.33748341878E+03 -0.11967255143E+03  0.35890644102E+03  0.00000000000E+00 0.  1.
<mgrwt>
<rscale>  0 0.98828750E+03</rscale>
<asrwt>0</asrwt>
<pdfrwt beam="1">  1        2 0.30046805E+00 0.98828750E+03</pdfrwt>
<pdfrwt beam="2">  1       -2 0.91644530E-01 0.98828750E+03</pdfrwt>
<totfact> 0.72046657E+00</totfact>
</mgrwt>
</event>
<event>
12    1  0.9321077E-008  0.7982066E+03  0.7818608E-02  0.9562617E-01
          1   -1    0    0  501    0  0.00000000000E+00  0.00000000000E+00  0.13255507327E+04  0.13255507327E+04  0.00000000000E+00 0. -1.
         -1   -1    0    0    0  501 -0.00000000000E+00 -0.00000000000E+00 -0.64693994249E+03  0.64693994249E+03  0.00000000000E+00 0.  1.
         23    2    1    2    0    0  0.54325995459E+03 -0.43062823343E+03 -0.17405136212E+03  0.72045106337E+03  0.90464381738E+02 0.  0.
    5000000    2    1    2    0    0 -0.54325995459E+03  0.43062823343E+03  0.85266215237E+03  0.12520396119E+04  0.59999865823E+03 0.  0.
         23    2    4    4    0    0  0.78897535709E+02  0.21678371959E+03  0.17475501041E+03  0.30295025141E+03  0.89551878509E+02 0.  0.
         23    2    4    4    0    0 -0.62215749030E+03  0.21384451384E+03  0.67790714196E+03  0.94908936045E+03  0.91668435994E+02 0.  0.
          2    1    3    3  502    0  0.33618762796E+03 -0.21519420390E+03 -0.11978174089E+03  0.41674732396E+03  0.00000000000E+00 0.  1.
         -2    1    3    3    0  502  0.20707232663E+03 -0.21543402954E+03 -0.54269621236E+02  0.30370373940E+03  0.00000000000E+00 0. -1.
         15    1    5    5    0    0  0.25419590485E+02  0.13883134819E+03  0.14837584639E+03  0.20478976620E+03  0.17770000000E+01 0.  1.
        -15    1    5    5    0    0  0.53477945224E+02  0.77952371404E+02  0.26379164022E+02  0.98160485209E+02  0.17770000000E+01 0. -1.
          1    1    6    6  503    0 -0.34865692033E+03  0.16161170345E+03  0.42434391742E+03  0.57249257728E+03  0.00000000000E+00 0. -1.
         -1    1    6    6    0  503 -0.27350056996E+03  0.52232810391E+02  0.25356322454E+03  0.37659678317E+03  0.00000000000E+00 0.  1.
<mgrwt>
<rscale>  0 0.79820662E+03</rscale>
<asrwt>0</asrwt>
<pdfrwt beam="1">  1        1 0.20393088E+00 0.79820662E+03</pdfrwt>
<pdfrwt beam="2">  1       -1 0.99529223E-01 0.79820662E+03</pdfrwt>
<totfact> 0.86047145E+00</totfact>
</mgrwt>
</event>
<event>
12    1  0.9321077E-008  0.1141156E+04  0.7818608E-02  0.9165981E-01
          2   -1    0    0  501    0  0.00000000000E+00  0.00000000000E+00  0.64307079699E+03  0.64307079699E+03  0.00000000000E+00 0. -1.
         -2   -1    0    0    0  501 -0.00000000000E+00 -0.00000000000E+00 -0.30257307432E+04  0.30257307432E+04  0.00000000000E+00 0.  1.
         23    2    1    2    0    0 -0.88910591931E+03  0.58459162310E+03 -0.21841148022E+04  0.24311691984E+04  0.89272059122E+02 0.  0.
    5000000    2    1    2    0    0  0.88910591931E+03 -0.58459162310E+03 -0.19854514404E+03  0.12376323418E+04  0.60004744622E+03 0.  0.
         23    2    4    4    0    0  0.66212246694E+03 -0.68540367917E+03 -0.15442246988E+03  0.96981617137E+03  0.92264523997E+02 0.  0.
         23    2    4    4    0    0  0.22698345237E+03  0.10081205607E+03 -0.44122674166E+02  0.26781617044E+03  0.89967396759E+02 0.  0.
          2    1    3    3  502    0 -0.79778080129E+03  0.49082224837E+03 -0.18988442804E+04  0.21173025971E+04  0.00000000000E+00 0. -1.
         -2    1    3    3    0  502 -0.91325118019E+02  0.93769374737E+02 -0.28527052179E+03  0.31386660132E+03  0.00000000000E+00 0.  1.
         15    1    5    5    0    0  0.51060198878E+03 -0.54160359695E+03 -0.15778785696E+03  0.76088699076E+03  0.17770000000E+01 0. -1.
        -15    1    5    5    0    0  0.15152047817E+03 -0.14380008222E+03  0.33653870809E+01  0.20892918061E+03  0.17770000000E+01 0.  1.
          2    1    6    6  503    0  0.20117514296E+03  0.54417212216E+02 -0.50239052874E+02  0.21437498353E+03  0.00000000000E+00 0. -1.
         -2    1    6    6    0  503  0.25808309410E+02  0.46394843852E+02  0.61163787082E+01  0.53441186917E+02  0.00000000000E+00 0.  1.
<mgrwt>
<rscale>  0 0.11411561E+04</rscale>
<asrwt>0</asrwt>
<pdfrwt beam="1">  1        2 0.98933970E-01 0.11411561E+04</pdfrwt>
<pdfrwt beam="2">  1       -2 0.46549703E+00 0.11411561E+04</pdfrwt>
<totfact> 0.12461174E-01</totfact>
</mgrwt>
</event>
<event>
12    1  0.9321077E-008  0.4469884E+03  0.7818608E-02  0.1028624E+00
          1   -1    0    0  501    0  0.00000000000E+00  0.00000000000E+00  0.15547492424E+04  0.15547492424E+04  0.00000000000E+00 0. -1.
         -1   -1    0    0    0  501 -0.00000000000E+00 -0.00000000000E+00 -0.30022587053E+03  0.30022587053E+03  0.00000000000E+00 0.  1.
         23    2    1    2    0    0  0.37339486605E+03 -0.12466588300E+03 -0.68258517545E+01  0.40372903997E+03  0.89360153794E+02 0.  0.
    5000000    2    1    2    0    0 -0.37339486605E+03  0.12466588300E+03  0.12613492236E+04  0.14512460729E+04  0.60012331394E+03 0.  0.
         23    2    4    4    0    0 -0.26118718188E+03 -0.56884101698E+02  0.15918201034E+03  0.32452245560E+03  0.92311249406E+02 0.  0.
         23    2    4    4    0    0 -0.11220768417E+03  0.18154998470E+03  0.11021672132E+04  0.11267236173E+04  0.95825792689E+02 0.  0.
          1    1    3    3  502    0  0.16978061372E+03 -0.87845907307E+02 -0.36746377054E+02  0.19466036179E+03  0.00000000000E+00 0. -1.
         -1    1    3    3    0  502  0.20361425232E+03 -0.36819975695E+02  0.29920525299E+02  0.20906867817E+03  0.00000000000E+00 0.  1.
         15    1    5    5    0    0 -0.16621159674E+03  0.74902239819E+01  0.76777474982E+02  0.18324938401E+03  0.17770000000E+01 0. -1.
        -15    1    5    5    0    0 -0.94975585141E+02 -0.64374325680E+02  0.82404535362E+02  0.14127307159E+03  0.17770000000E+01 0.  1.
          3    1    6    6  503    0 -0.48117209024E+02  0.56268998202E+02  0.19269479317E+03  0.20642855733E+03  0.00000000000E+00 0. -1.
         -3    1    6    6    0  503 -0.64090475143E+02  0.12528098650E+03  0.90947242007E+03  0.92029505999E+03  0.00000000000E+00 0.  1.
<mgrwt>
<rscale>  0 0.44698836E+03</rscale>
<asrwt>0</asrwt>
<pdfrwt beam="1">  1        1 0.23919219E+00 0.44698836E+03</pdfrwt>
<pdfrwt beam="2">  1       -1 0.46188596E-01 0.44698836E+03</pdfrwt>
<totfact> 0.30312968E+01</totfact>
</mgrwt>
</event>
<event>
12    1  0.9321077E-008  0.8550665E+03  0.7818608E-02  0.9483562E-01
         -2   -1    0    0    0  501 -0.00000000000E+00  0.00000000000E+00  0.80614859923E+03  0.80614859923E+03  0.00000000000E+00 0.  1.
          2   -1    0    0  501    0  0.00000000000E+00 -0.00000000000E+00 -0.11131858197E+04  0.11131858197E+04  0.00000000000E+00 0. -1.
         23    2    1    2    0    0 -0.66902193888E+03  0.51455604003E+03 -0.39049379512E+02  0.84984132923E+03  0.91362781233E+02 0.  0.
    5000000    2    1    2    0    0  0.66902193888E+03 -0.51455604003E+03 -0.26798784091E+03  0.10694930897E+04  0.59969968561E+03 0.  0.
         23    2    4    4    0    0  0.46540963972E+03 -0.33983808393E+03 -0.44595090589E+03  0.73390564275E+03  0.87459853430E+02 0.  0.
         23    2    4    4    0    0  0.20361229915E+03 -0.17471795611E+03  0.17796306498E+03  0.33558744691E+03  0.94677079968E+02 0.  0.
          1    1    3    3  502    0 -0.38131187980E+03  0.34840410611E+03 -0.14940836169E+02  0.51672758724E+03  0.00000000000E+00 0. -1.
         -1    1    3    3    0  502 -0.28771005907E+03  0.16615193393E+03 -0.24108543343E+02  0.33311374199E+03  0.00000000000E+00 0.  1.
         15    1    5    5    0    0  0.45713878760E+03 -0.32785685589E+03 -0.41313443405E+03  0.69796074919E+03  0.17770000000E+01 0.  1.
        -15    1    5    5    0    0  0.82708521255E+01 -0.11981228032E+02 -0.32816471838E+02  0.35944893559E+02  0.17770000000E+01 0. -1.
          1    1    6    6  503    0  0.25931733089E+02 -0.77279915468E+02  0.43561550528E+02  0.92424286853E+02  0.00000000000E+00 0. -1.
         -1    1    6    6    0  503  0.17768056606E+03 -0.97438040640E+02  0.13440151445E+03  0.24316316005E+03  0.00000000000E+00 0.  1.
<mgrwt>
<rscale>  0 0.85506650E+03</rscale>
<asrwt>0</asrwt>
<pdfrwt beam="1">  1        2 0.17125936E+00 0.85506650E+03</pdfrwt>
<pdfrwt beam="2">  1       -2 0.12402286E+00 0.85506650E+03</pdfrwt>
<totfact> 0.10524403E+01</totfact>
</mgrwt>
</event>
<event>
12    1  0.9321077E-008  0.1393683E+04  0.7818608E-02  0.8958404E-01
          2   -1    0    0  501    0  0.00000000000E+00  0.00000000000E+00  0.18865736250E+04  0.18865736250E+04  0.00000000000E+00 0. -1.
         -2   -1    0    0    0  501 -0.00000000000E+00 -0.00000000000E+00 -0.11381930285E+04  0.11381930285E+04  0.00000000000E+00 0.  1.
         23    2    1    2    0    0  0.13304905384E+04 -0.39253436665E+03  0.14554057964E+03  0.13977478427E+04  0.90712015623E+02 0.  0.
    5000000    2    1    2    0    0 -0.13304905384E+04  0.39253436665E+03  0.60284001690E+03  0.16270188108E+04  0.59957136609E+03 0.  0.
         23    2    4    4    0    0 -0.40449903204E+03  0.66229575377E+02  0.47270930357E+03  0.63230687370E+03  0.91389678157E+02 0.  0.
         23    2    4    4    0    0 -0.92599150634E+03  0.32630479127E+03  0.13013071334E+03  0.99471193712E+03  0.92643125260E+02 0.  0.
          3    1    3    3  502    0  0.86237166587E+03 -0.23366991969E+03  0.13245466813E+03  0.90323350279E+03  0.00000000000E+00 0. -1.
         -3    1    3    3    0  502  0.46811887251E+03 -0.15886444696E+03  0.13085911509E+02  0.49451433992E+03  0.00000000000E+00 0.  1.
         15    1    5    5    0    0 -0.20472765717E+03  0.71327710063E+02  0.20629503250E+03  0.29926886573E+03  0.17770000000E+01 0.  1.
        -15    1    5    5    0    0 -0.19977137487E+03 -0.50981346864E+01  0.26641427106E+03  0.33303800797E+03  0.17770000000E+01 0. -1.
          4    1    6    6  503    0 -0.55553742974E+03  0.17147845302E+03  0.11660076679E+03  0.59297760034E+03  0.00000000000E+00 0. -1.
         -4    1    6    6    0  503 -0.37045407661E+03  0.15482633825E+03  0.13529946548E+02  0.40173433677E+03  0.00000000000E+00 0.  1.
<mgrwt>
<rscale>  0 0.13936830E+04</rscale>
<asrwt>0</asrwt>
<pdfrwt beam="1">  1        2 0.29024210E+00 0.13936830E+04</pdfrwt>
<pdfrwt beam="2">  1       -2 0.17510662E+00 0.13936830E+04</pdfrwt>
<totfact> 0.14416491E+00</totfact>
</mgrwt>
</event>
<event>
12    1  0.9321077E-008  0.7537155E+03  0.7818608E-02  0.9629539E-01
          1   -1    0    0  501    0  0.00000000000E+00  0.00000000000E+00  0.91566588876E+03  0.91566588876E+03  0.00000000000E+00 0. -1.
         -1   -1    0    0    0  501 -0.00000000000E+00 -0.00000000000E+00 -0.74783008882E+03  0.74783008882E+03  0.00000000000E+00 0.  1.
         23    2    1    2    0    0  0.61655194140E+03  0.21671739592E+03 -0.21968692469E+03  0.69544288289E+03  0.90971052212E+02 0.  0.
    5000000    2    1    2    0    0 -0.61655194140E+03 -0.21671739592E+03  0.38752272463E+03  0.96805309469E+03  0.59987515859E+03 0.  0.
         23    2    4    4    0    0  0.77742672935E+02  0.11670559247E+02  0.14711513473E+03  0.19346880118E+03  0.98016269133E+02 0.  0.
         23    2    4    4    0    0 -0.69429461433E+03 -0.22838795517E+03  0.24040758990E+03  0.77458429351E+03  0.89324962433E+02 0.  0.
          4    1    3    3  502    0  0.17623243146E+03  0.31867436496E+02 -0.29918089743E+02  0.18157228726E+03  0.00000000000E+00 0. -1.
         -4    1    3    3    0  502  0.44031950994E+03  0.18484995942E+03 -0.18976883495E+03  0.51387059563E+03  0.00000000000E+00 0.  1.
         15    1    5    5    0    0  0.46420468532E+02 -0.37321671372E+02  0.40613589330E+02  0.72113718667E+02  0.17770000000E+01 0. -1.
        -15    1    5    5    0    0  0.31322204403E+02  0.48992230620E+02  0.10650154540E+03  0.12135508251E+03  0.17770000000E+01 0.  1.
          4    1    6    6  503    0 -0.59235900566E+03 -0.21522188659E+03  0.23149550690E+03  0.67141628054E+03  0.00000000000E+00 0. -1.
         -4    1    6    6    0  503 -0.10193560867E+03 -0.13166068573E+02  0.89120829968E+01  0.10316801297E+03  0.00000000000E+00 0.  1.
<mgrwt>
<rscale>  0 0.75371554E+03</rscale>
<asrwt>0</asrwt>
<pdfrwt beam="1">  1        1 0.14087168E+00 0.75371554E+03</pdfrwt>
<pdfrwt beam="2">  1       -1 0.11505078E+00 0.75371554E+03</pdfrwt>
<totfact> 0.12480696E+01</totfact>
</mgrwt>
</event>
<event>
12    1  0.9321077E-008  0.1121812E+04  0.7818608E-02  0.9184189E-01
          1   -1    0    0  501    0  0.00000000000E+00  0.00000000000E+00  0.30908975551E+04  0.30908975551E+04  0.00000000000E+00 0. -1.
         -1   -1    0    0    0  501 -0.00000000000E+00 -0.00000000000E+00 -0.46548064074E+03  0.46548064074E+03  0.00000000000E+00 0.  1.
         23    2    1    2    0    0  0.88420954716E+03  0.66461903532E+03  0.15174110585E+04  0.18799610661E+04  0.90400798696E+02 0.  0.
    5000000    2    1    2    0    0 -0.88420954716E+03 -0.66461903532E+03  0.11080058559E+04  0.16764171297E+04  0.59929327598E+03 0.  0.
         23    2    4    4    0    0 -0.14884053170E+03 -0.21959895277E+03  0.62803932081E+03  0.68800285538E+03  0.92397708777E+02 0.  0.
         23    2    4    4    0    0 -0.73536901546E+03 -0.44502008255E+03  0.47996653504E+03  0.98841427429E+03  0.88229474007E+02 0.  0.
          4    1    3    3  502    0  0.19426094313E+03  0.19430310571E+03  0.38488728497E+03  0.47289452634E+03  0.00000000000E+00 0.  1.
         -4    1    3    3    0  502  0.68994860403E+03  0.47031592961E+03  0.11325237735E+04  0.14070665398E+04  0.00000000000E+00 0. -1.
         15    1    5    5    0    0 -0.13340041848E+03 -0.21945334317E+03  0.53238758227E+03  0.59109655469E+03  0.17770000000E+01 0.  1.
        -15    1    5    5    0    0 -0.15440113221E+02 -0.14560960109E+00  0.95651738540E+02  0.96906300689E+02  0.17770000000E+01 0. -1.
          1    1    6    6  503    0 -0.10436910659E+03 -0.87898674763E+02  0.49180662537E+02  0.14504421741E+03  0.00000000000E+00 0. -1.
         -1    1    6    6    0  503 -0.63099990887E+03 -0.35712140779E+03  0.43078587251E+03  0.84337005688E+03  0.00000000000E+00 0.  1.
<mgrwt>
<rscale>  0 0.11218124E+04</rscale>
<asrwt>0</asrwt>
<pdfrwt beam="1">  1        1 0.47552269E+00 0.11218124E+04</pdfrwt>
<pdfrwt beam="2">  1       -1 0.71612408E-01 0.11218124E+04</pdfrwt>
<totfact> 0.10201028E+00</totfact>
</mgrwt>
</event>
<event>
12    1  0.9321077E-008  0.1253553E+04  0.7818608E-02  0.9067231E-01
          1   -1    0    0  501    0  0.00000000000E+00  0.00000000000E+00  0.15971648278E+04  0.15971648278E+04  0.00000000000E+00 0. -1.
         -1   -1    0    0    0  501 -0.00000000000E+00 -0.00000000000E+00 -0.11233898848E+04  0.11233898848E+04  0.00000000000E+00 0.  1.
         23    2    1    2    0    0 -0.21719286490E+03 -0.12211347068E+04 -0.48888956436E+02  0.12469531343E+04  0.11899275793E+03 0.  0.
    5000000    2    1    2    0    0  0.21719286490E+03  0.12211347068E+04  0.52266389943E+03  0.14736015783E+04  0.59998445560E+03 0.  0.
         23    2    4    4    0    0  0.15533174822E+03  0.31096310566E+03  0.41670360930E+03  0.55047865056E+03  0.92514007744E+02 0.  0.
         23    2    4    4    0    0  0.61861116679E+02  0.91017160113E+03  0.10596029013E+03  0.92312292769E+03  0.93215960450E+02 0.  0.
          4    1    3    3  502    0 -0.16844527653E+03 -0.74811283112E+03 -0.76351965865E+02  0.77063366262E+03  0.00000000000E+00 0. -1.
         -4    1    3    3    0  502 -0.48747588377E+02 -0.47302187568E+03  0.27463009430E+02  0.47631947171E+03  0.00000000000E+00 0.  1.
         15    1    5    5    0    0  0.55459851014E+02  0.13809647623E+03  0.24736429526E+03  0.28868440228E+03  0.17770000000E+01 0. -1.
        -15    1    5    5    0    0  0.99871897210E+02  0.17286662944E+03  0.16933931405E+03  0.26179424829E+03  0.17770000000E+01 0.  1.
          1    1    6    6  503    0  0.83228019086E+02  0.67274906780E+03  0.61843019069E+02  0.68069286054E+03  0.00000000000E+00 0.  1.
         -1    1    6    6    0  503 -0.21366902406E+02  0.23742253334E+03  0.44117271056E+02  0.24243006715E+03  0.00000000000E+00 0. -1.
<mgrwt>
<rscale>  0 0.12535535E+04</rscale>
<asrwt>0</asrwt>
<pdfrwt beam="1">  1        1 0.24571767E+00 0.12535535E+04</pdfrwt>
<pdfrwt beam="2">  1       -1 0.17282921E+00 0.12535535E+04</pdfrwt>
<totfact> 0.12808706E+00</totfact>
</mgrwt>
</event>
<event>
12    1  0.9321077E-008  0.8140744E+03  0.7818608E-02  0.9539866E-01
         -1   -1    0    0    0  501 -0.00000000000E+00  0.00000000000E+00  0.18915601158E+03  0.18915601158E+03  0.00000000000E+00 0.  1.
          1   -1    0    0  501    0  0.00000000000E+00 -0.00000000000E+00 -0.36998499454E+04  0.36998499454E+04  0.00000000000E+00 0. -1.
         23    2    1    2    0    0 -0.64548909802E+01  0.72510839211E+03 -0.15061327338E+04  0.16745038037E+04  0.98505486010E+02 0.  0.
    5000000    2    1    2    0    0  0.64548909802E+01 -0.72510839211E+03 -0.20045612000E+04  0.22145021533E+04  0.59994194424E+03 0.  0.
         23    2    4    4    0    0  0.24257409842E+03 -0.20661990591E+03 -0.10304597948E+04  0.10824667170E+04  0.91393796811E+02 0.  0.
         23    2    4    4    0    0 -0.23611920744E+03 -0.51848848620E+03 -0.97410140528E+03  0.11320354363E+04  0.89711152311E+02 0.  0.
          2    1    3    3  502    0  0.35078260723E+02  0.29589985901E+03 -0.68593707573E+03  0.74786153986E+03  0.00000000000E+00 0. -1.
         -2    1    3    3    0  502 -0.41533151703E+02  0.42920853311E+03 -0.82019565809E+03  0.92664226384E+03  0.00000000000E+00 0.  1.
         15    1    5    5    0    0  0.18790102144E+03 -0.18440227428E+03 -0.92348174463E+03  0.96027739899E+03  0.17770000000E+01 0.  1.
        -15    1    5    5    0    0  0.54673076978E+02 -0.22217631634E+02 -0.10697805012E+03  0.12218931802E+03  0.17770000000E+01 0. -1.
          4    1    6    6  503    0 -0.10784276861E+03 -0.13815129848E+03 -0.30559351940E+03  0.35228290210E+03  0.00000000000E+00 0.  1.
         -4    1    6    6    0  503 -0.12827643882E+03 -0.38033718772E+03 -0.66850788588E+03  0.77975253421E+03  0.00000000000E+00 0. -1.
<mgrwt>
<rscale>  0 0.81407436E+03</rscale>
<asrwt>0</asrwt>
<pdfrwt beam="1">  1        1 0.56920759E+00 0.81407436E+03</pdfrwt>
<pdfrwt beam="2">  1       -1 0.29100930E-01 0.81407436E+03</pdfrwt>
<totfact> 0.20000035E+00</totfact>
</mgrwt>
</event>
<event>
12    1  0.9321077E-008  0.1204906E+04  0.7818608E-02  0.9108573E-01
          2   -1    0    0  501    0  0.00000000000E+00  0.00000000000E+00  0.11675704756E+04  0.11675704756E+04  0.00000000000E+00 0. -1.
         -2   -1    0    0    0  501 -0.00000000000E+00 -0.00000000000E+00 -0.13469174212E+04  0.13469174212E+04  0.00000000000E+00 0.  1.
         23    2    1    2    0    0 -0.89415579525E+03 -0.74030764118E+03 -0.29921734134E+03  0.12022332458E+04  0.90905280958E+02 0.  0.
    5000000    2    1    2    0    0  0.89415579525E+03  0.74030764118E+03  0.11987039575E+03  0.13122546510E+04  0.60006113657E+03 0.  0.
         23    2    4    4    0    0  0.37566266340E+03  0.58102807877E+03 -0.12645761890E+03  0.70983153503E+03  0.95672429388E+02 0.  0.
         23    2    4    4    0    0  0.51849313185E+03  0.15927956241E+03  0.24632801465E+03  0.60242311601E+03  0.89615920041E+02 0.  0.
          3    1    3    3  502    0 -0.13217138200E+03 -0.76215425561E+02 -0.22033772294E+02  0.15415431371E+03  0.00000000000E+00 0. -1.
         -3    1    3    3    0  502 -0.76198441325E+03 -0.66409221562E+03 -0.27718356904E+03  0.10480789321E+04  0.00000000000E+00 0.  1.
         15    1    5    5    0    0  0.32299778314E+03  0.43596761997E+03 -0.11798129074E+03  0.55526396990E+03  0.17770000000E+01 0. -1.
        -15    1    5    5    0    0  0.52664880262E+02  0.14506045881E+03 -0.84763281572E+01  0.15456756513E+03  0.17770000000E+01 0.  1.
          1    1    6    6  503    0  0.28198613438E+03  0.13242351032E+03  0.13155050438E+03  0.33816815532E+03  0.00000000000E+00 0. -1.
         -1    1    6    6    0  503  0.23650699747E+03  0.26856052082E+02  0.11477751027E+03  0.26425496069E+03  0.00000000000E+00 0.  1.
<mgrwt>
<rscale>  0 0.12049059E+04</rscale>
<asrwt>0</asrwt>
<pdfrwt beam="1">  1        2 0.17962623E+00 0.12049059E+04</pdfrwt>
<pdfrwt beam="2">  1       -2 0.20721806E+00 0.12049059E+04</pdfrwt>
<totfact> 0.22952869E+00</totfact>
</mgrwt>
</event>
<event>
12    1  0.9321077E-008  0.1879574E+04  0.7818608E-02  0.8665091E-01
         -2   -1    0    0    0  501 -0.00000000000E+00  0.00000000000E+00  0.14480743576E+04  0.14480743576E+04  0.00000000000E+00 0.  1.
          2   -1    0    0  501    0  0.00000000000E+00 -0.00000000000E+00 -0.34453570654E+04  0.34453570654E+04  0.00000000000E+00 0. -1.
         23    2    1    2    0    0  0.14050260266E+04 -0.12270899819E+04  0.28063831894E+03  0.18886710472E+04  0.92046181051E+02 0.  0.
    5000000    2    1    2    0    0 -0.14050260266E+04  0.12270899819E+04 -0.22779210267E+04  0.30047603757E+04  0.59984394018E+03 0.  0.
         23    2    4    4    0    0 -0.11340171850E+03  0.76632054879E+02 -0.48689213306E+03  0.51321695026E+03  0.87150830191E+02 0.  0.
         23    2    4    4    0    0 -0.12916243081E+04  0.11504579271E+04 -0.17910288937E+04  0.24915434255E+04  0.90318038282E+02 0.  0.
          2    1    3    3  502    0  0.31872092301E+03 -0.26762480174E+03  0.24889615204E+02  0.41692391898E+03  0.00000000000E+00 0. -1.
         -2    1    3    3    0  502  0.10863051035E+04 -0.95946518019E+03  0.25574870374E+03  0.14717471282E+04  0.00000000000E+00 0.  1.
         15    1    5    5    0    0 -0.58515915865E+02  0.88446328466E+02 -0.31437599484E+03  0.33178651162E+03  0.17770000000E+01 0.  1.
        -15    1    5    5    0    0 -0.54885802632E+02 -0.11814273587E+02 -0.17251613822E+03  0.18143043864E+03  0.17770000000E+01 0. -1.
          4    1    6    6  503    0 -0.95269565373E+03  0.80270981806E+03 -0.13196786194E+04  0.18148067994E+04  0.00000000000E+00 0. -1.
         -4    1    6    6    0  503 -0.33892865433E+03  0.34774810899E+03 -0.47135027426E+03  0.67673662608E+03  0.00000000000E+00 0.  1.
<mgrwt>
<rscale>  0 0.18795744E+04</rscale>
<asrwt>0</asrwt>
<pdfrwt beam="1">  1        2 0.53005492E+00 0.18795744E+04</pdfrwt>
<pdfrwt beam="2">  1       -2 0.22278067E+00 0.18795744E+04</pdfrwt>
<totfact> 0.76002938E-02</totfact>
</mgrwt>
</event>
<event>
12    1  0.9321077E-008  0.9076122E+03  0.7818608E-02  0.9416116E-01
          2   -1    0    0  501    0  0.00000000000E+00  0.00000000000E+00  0.70764140349E+03  0.70764140349E+03  0.00000000000E+00 0.  1.
         -2   -1    0    0    0  501 -0.00000000000E+00 -0.00000000000E+00 -0.16522873380E+04  0.16522873380E+04  0.00000000000E+00 0. -1.
         23    2    1    2    0    0 -0.87025961024E+03  0.21597407403E+03  0.36362921448E+02  0.90145980855E+03  0.85504002948E+02 0.  0.
    5000000    2    1    2    0    0  0.87025961024E+03 -0.21597407403E+03 -0.98100885597E+03  0.14584689330E+04  0.60063022155E+03 0.  0.
         23    2    4    4    0    0  0.38941887964E+03 -0.13682374479E+02 -0.80848763848E+03  0.90214890450E+03  0.91575723440E+02 0.  0.
         23    2    4    4    0    0  0.48084073059E+03 -0.20229169955E+03 -0.17252121749E+03  0.55632002845E+03  0.87170314144E+02 0.  0.
          2    1    3    3  502    0 -0.25172303175E+03  0.29608203474E+02 -0.11222619263E+02  0.25370667632E+03  0.00000000000E+00 0.  1.
         -2    1    3    3    0  502 -0.61853657849E+03  0.18636587056E+03  0.47585540711E+02  0.64775313223E+03  0.00000000000E+00 0. -1.
         15    1    5    5    0    0  0.26532790947E+03  0.66741727738E+01 -0.45247490865E+03  0.52457615730E+03  0.17770000000E+01 0. -1.
        -15    1    5    5    0    0  0.12409097017E+03 -0.20356547253E+02 -0.35601272983E+03  0.37757274719E+03  0.17770000000E+01 0.  1.
          1    1    6    6  503    0  0.42919753195E+03 -0.19827878016E+03 -0.17581531717E+03  0.50441651623E+03  0.00000000000E+00 0. -1.
         -1    1    6    6    0  503  0.51643198647E+02 -0.40129193880E+01  0.32940996803E+01  0.51903512224E+02  0.00000000000E+00 0.  1.
<mgrwt>
<rscale>  0 0.90761217E+03</rscale>
<asrwt>0</asrwt>
<pdfrwt beam="1">  1        2 0.10886791E+00 0.90761217E+03</pdfrwt>
<pdfrwt beam="2">  1       -2 0.25419805E+00 0.90761217E+03</pdfrwt>
<totfact> 0.24706853E+00</totfact>
</mgrwt>
</event>
<event>
12    1  0.9321077E-008  0.6052762E+03  0.7818608E-02  0.9894520E-01
          1   -1    0    0  501    0  0.00000000000E+00  0.00000000000E+00  0.14460076551E+04  0.14460076551E+04  0.00000000000E+00 0. -1.
         -1   -1    0    0    0  501 -0.00000000000E+00 -0.00000000000E+00 -0.26137064716E+03  0.26137064716E+03  0.00000000000E+00 0.  1.
         23    2    1    2    0    0 -0.32322211868E+03  0.32699645807E+03  0.52461235575E+03  0.70385741000E+03  0.93797165266E+02 0.  0.
    5000000    2    1    2    0    0  0.32322211868E+03 -0.32699645807E+03  0.66002465224E+03  0.10035208923E+04  0.60001868149E+03 0.  0.
         23    2    4    4    0    0 -0.49523406613E+02  0.12603892830E+03  0.14363388877E+03  0.21695164372E+03  0.89994124572E+02 0.  0.
         23    2    4    4    0    0  0.37274552529E+03 -0.45303538637E+03  0.51639076347E+03  0.78656924859E+03  0.88608545317E+02 0.  0.
          1    1    3    3  502    0 -0.30131441428E+03  0.28564196843E+03  0.50325194344E+03  0.65241415447E+03  0.00000000000E+00 0. -1.
         -1    1    3    3    0  502 -0.21907704402E+02  0.41354489631E+02  0.21360412311E+02  0.51443255524E+02  0.00000000000E+00 0.  1.
         15    1    5    5    0    0  0.10367803113E+02  0.84966171963E+02  0.10220163861E+03  0.13332319522E+03  0.17770000000E+01 0. -1.
        -15    1    5    5    0    0 -0.59891209726E+02  0.41072756341E+02  0.41432250158E+02  0.83628448497E+02  0.17770000000E+01 0.  1.
          1    1    6    6  503    0  0.80612770368E+02 -0.14413536933E+03  0.18122129937E+03  0.24518275384E+03  0.00000000000E+00 0. -1.
         -1    1    6    6    0  503  0.29213275492E+03 -0.30890001704E+03  0.33516946410E+03  0.54138649474E+03  0.00000000000E+00 0.  1.
<mgrwt>
<rscale>  0 0.60527623E+03</rscale>
<asrwt>0</asrwt>
<pdfrwt beam="1">  1        1 0.22246271E+00 0.60527623E+03</pdfrwt>
<pdfrwt beam="2">  1       -1 0.40210870E-01 0.60527623E+03</pdfrwt>
<totfact> 0.45052899E+01</totfact>
</mgrwt>
</event>
<event>
12    1  0.9321077E-008  0.7688979E+03  0.7818608E-02  0.9606160E-01
         -2   -1    0    0    0  501 -0.00000000000E+00  0.00000000000E+00  0.32872912213E+03  0.32872912213E+03  0.00000000000E+00 0. -1.
          2   -1    0    0  501    0  0.00000000000E+00 -0.00000000000E+00 -0.22358694190E+04  0.22358694190E+04  0.00000000000E+00 0.  1.
         23    2    1    2    0    0  0.21943006179E+03  0.69976573208E+03 -0.60978220915E+03  0.95811666101E+03  0.91277388703E+02 0.  0.
    5000000    2    1    2    0    0 -0.21943006179E+03 -0.69976573208E+03 -0.12973580878E+04  0.16064818802E+04  0.59985364182E+03 0.  0.
         23    2    4    4    0    0  0.52271808134E+02 -0.88552753170E+02  0.75497279800E+01  0.13729283943E+03  0.90655354755E+02 0.  0.
         23    2    4    4    0    0 -0.27170186993E+03 -0.61121297891E+03 -0.13049078157E+04  0.14691890407E+04  0.91262358770E+02 0.  0.
          2    1    3    3  502    0  0.94511975639E+02  0.38937319510E+03 -0.28397587101E+03  0.49110721224E+03  0.00000000000E+00 0. -1.
         -2    1    3    3    0  502  0.12491808616E+03  0.31039253698E+03 -0.32580633814E+03  0.46700944877E+03  0.00000000000E+00 0.  1.
         15    1    5    5    0    0  0.23209245848E+02  0.11772195230E+02 -0.15462770844E+02  0.30323401599E+02  0.17770000000E+01 0. -1.
        -15    1    5    5    0    0  0.29062562286E+02 -0.10032494840E+03  0.23012498825E+02  0.10696943783E+03  0.17770000000E+01 0.  1.
          3    1    6    6  503    0 -0.79805233923E+02 -0.11521213852E+03 -0.33290348503E+03  0.36120277209E+03  0.00000000000E+00 0. -1.
         -3    1    6    6    0  503 -0.19189663601E+03 -0.49600084039E+03 -0.97200433071E+03  0.11079862686E+04  0.00000000000E+00 0.  1.
<mgrwt>
<rscale>  0 0.76889793E+03</rscale>
<asrwt>0</asrwt>
<pdfrwt beam="1">  1        2 0.34397992E+00 0.76889793E+03</pdfrwt>
<pdfrwt beam="2">  1       -2 0.50573710E-01 0.76889793E+03</pdfrwt>
<totfact> 0.18891911E+01</totfact>
</mgrwt>
</event>
<event>
12    1  0.9321077E-008  0.8001729E+03  0.7818608E-02  0.9559767E-01
         -1   -1    0    0    0  501 -0.00000000000E+00  0.00000000000E+00  0.14728114349E+04  0.14728114349E+04  0.00000000000E+00 0.  1.
          1   -1    0    0  501    0  0.00000000000E+00 -0.00000000000E+00 -0.53572912674E+03  0.53572912674E+03  0.00000000000E+00 0. -1.
         23    2    1    2    0    0 -0.22819852314E+03 -0.72778166411E+03  0.62099446301E+03  0.98788836694E+03  0.92458562930E+02 0.  0.
    5000000    2    1    2    0    0  0.22819852314E+03  0.72778166411E+03  0.31608784517E+03  0.10206521947E+04  0.60006554656E+03 0.  0.
         23    2    4    4    0    0 -0.68931548842E+02  0.17243154884E+03  0.32381813607E+03  0.38433972905E+03  0.91513084412E+02 0.  0.
         23    2    4    4    0    0  0.29713007198E+03  0.55535011526E+03 -0.77302909007E+01  0.63631246568E+03  0.90187395893E+02 0.  0.
          2    1    3    3  502    0 -0.20401017082E+03 -0.69034576858E+03  0.55840348386E+03  0.91104987832E+03  0.00000000000E+00 0. -1.
         -2    1    3    3    0  502 -0.24188352325E+02 -0.37435895529E+02  0.62590979151E+02  0.76838488620E+02  0.00000000000E+00 0.  1.
         15    1    5    5    0    0 -0.36134831460E+02  0.16824788161E+03  0.25080616477E+03  0.30417094820E+03  0.17770000000E+01 0.  1.
        -15    1    5    5    0    0 -0.32796717381E+02  0.41836672395E+01  0.73011971294E+02  0.80168780855E+02  0.17770000000E+01 0. -1.
          1    1    6    6  503    0  0.18289793350E+03  0.37507154075E+03 -0.44824844645E+02  0.41968986342E+03  0.00000000000E+00 0. -1.
         -1    1    6    6    0  503  0.11423213849E+03  0.18027857451E+03  0.37094553745E+02  0.21662260226E+03  0.00000000000E+00 0.  1.
<mgrwt>
<rscale>  0 0.80017289E+03</rscale>
<asrwt>0</asrwt>
<pdfrwt beam="1">  1        1 0.82419866E-01 0.80017289E+03</pdfrwt>
<pdfrwt beam="2">  1       -1 0.22658637E+00 0.80017289E+03</pdfrwt>
<totfact> 0.41295793E+00</totfact>
</mgrwt>
</event>
<event>
12    1  0.9321077E-008  0.6936975E+03  0.7818608E-02  0.9728071E-01
         -1   -1    0    0    0  501 -0.00000000000E+00  0.00000000000E+00  0.63626207215E+03  0.63626207215E+03  0.00000000000E+00 0.  1.
          1   -1    0    0  501    0  0.00000000000E+00 -0.00000000000E+00 -0.90618314179E+03  0.90618314179E+03  0.00000000000E+00 0. -1.
         23    2    1    2    0    0  0.35383253050E+03  0.52998708234E+03 -0.11639540672E+03  0.65384476526E+03  0.88776794644E+02 0.  0.
    5000000    2    1    2    0    0 -0.35383253050E+03 -0.52998708234E+03 -0.15352566292E+03  0.88860044868E+03  0.59996404986E+03 0.  0.
         23    2    4    4    0    0 -0.25478748133E+03 -0.57052030766E+02  0.14610781937E+03  0.31233933051E+03  0.89648020885E+02 0.  0.
         23    2    4    4    0    0 -0.99045049170E+02 -0.47293505157E+03 -0.29963348229E+03  0.57626111817E+03  0.93910424490E+02 0.  0.
          3    1    3    3  502    0  0.25769355571E+03  0.43862670547E+03 -0.11328036383E+03  0.52118307363E+03  0.00000000000E+00 0. -1.
         -3    1    3    3    0  502  0.96138974785E+02  0.91360376872E+02 -0.31150428903E+01  0.13266169163E+03  0.00000000000E+00 0.  1.
         15    1    5    5    0    0 -0.23056591849E+03 -0.57661081660E+02  0.95386454298E+02  0.25609993460E+03  0.17770000000E+01 0.  1.
        -15    1    5    5    0    0 -0.24221562832E+02  0.60905089426E+00  0.50721365068E+02  0.56239395911E+02  0.17770000000E+01 0. -1.
          3    1    6    6  503    0 -0.29303377630E+02 -0.21071982864E+03 -0.18414842942E+03  0.28137551098E+03  0.00000000000E+00 0. -1.
         -3    1    6    6    0  503 -0.69741671540E+02 -0.26221522294E+03 -0.11548505287E+03  0.29488560719E+03  0.00000000000E+00 0.  1.
<mgrwt>
<rscale>  0 0.69369748E+03</rscale>
<asrwt>0</asrwt>
<pdfrwt beam="1">  1        1 0.13941279E+00 0.69369748E+03</pdfrwt>
<pdfrwt beam="2">  1       -1 0.97886473E-01 0.69369748E+03</pdfrwt>
<totfact> 0.18645655E+01</totfact>
</mgrwt>
</event>
<event>
12    1  0.9321077E-008  0.1005214E+04  0.7818608E-02  0.9302844E-01
          1   -1    0    0  501    0  0.00000000000E+00  0.00000000000E+00  0.77514518792E+03  0.77514518792E+03  0.00000000000E+00 0.  1.
         -1   -1    0    0    0  501 -0.00000000000E+00 -0.00000000000E+00 -0.14776192372E+04  0.14776192372E+04  0.00000000000E+00 0. -1.
         23    2    1    2    0    0  0.96489944153E+03  0.89673973892E+02 -0.50268718027E+03  0.10954137585E+04  0.90357884585E+02 0.  0.
    5000000    2    1    2    0    0 -0.96489944153E+03 -0.89673973892E+02 -0.19978686900E+03  0.11573506666E+04  0.60039438583E+03 0.  0.
         23    2    4    4    0    0 -0.24528535696E+02 -0.22275333019E+02  0.12180877713E+03  0.15717917639E+03  0.93648682746E+02 0.  0.
         23    2    4    4    0    0 -0.94037090584E+03 -0.67398640873E+02 -0.32159564613E+03  0.10001714902E+04  0.89884552853E+02 0.  0.
          1    1    3    3  502    0  0.35452770197E+03  0.20419336822E+02 -0.13772019362E+03  0.38088540601E+03  0.00000000000E+00 0. -1.
         -1    1    3    3    0  502  0.61037173957E+03  0.69254637071E+02 -0.36496698665E+03  0.71452835253E+03  0.00000000000E+00 0.  1.
         15    1    5    5    0    0 -0.37950782559E+02  0.24566246274E+02  0.33470818342E+02  0.56278022019E+02  0.17770000000E+01 0. -1.
        -15    1    5    5    0    0  0.13422246863E+02 -0.46841579294E+02  0.88337958785E+02  0.10090115437E+03  0.17770000000E+01 0.  1.
          4    1    6    6  503    0 -0.44628048606E+03 -0.76813970947E+02 -0.14947053173E+03  0.47687325174E+03  0.00000000000E+00 0. -1.
         -4    1    6    6    0  503 -0.49409041978E+03  0.94153300737E+01 -0.17212511440E+03  0.52329823845E+03  0.00000000000E+00 0.  1.
<mgrwt>
<rscale>  0 0.10052142E+04</rscale>
<asrwt>0</asrwt>
<pdfrwt beam="1">  1        1 0.11925311E+00 0.10052142E+04</pdfrwt>
<pdfrwt beam="2">  1       -1 0.22732603E+00 0.10052142E+04</pdfrwt>
<totfact> 0.22985558E+00</totfact>
</mgrwt>
</event>
<event>
12    1  0.9321077E-008  0.3505488E+03  0.7818608E-02  0.1062390E+00
          2   -1    0    0  501    0  0.00000000000E+00  0.00000000000E+00  0.67484606732E+03  0.67484606732E+03  0.00000000000E+00 0. -1.
         -2   -1    0    0    0  501 -0.00000000000E+00 -0.00000000000E+00 -0.34400801627E+03  0.34400801627E+03  0.00000000000E+00 0.  1.
         23    2    1    2    0    0 -0.22765312645E+03  0.17322468179E+03  0.11819326776E+03  0.32103124287E+03  0.85197852018E+02 0.  0.
    5000000    2    1    2    0    0  0.22765312645E+03 -0.17322468179E+03  0.21264478329E+03  0.69782284072E+03  0.59992180891E+03 0.  0.
         23    2    4    4    0    0  0.12208154308E+03 -0.23673485540E+03  0.37954348290E+03  0.47212192292E+03  0.88873841920E+02 0.  0.
         23    2    4    4    0    0  0.10557158338E+03  0.63510173605E+02 -0.16689869961E+03  0.22570091780E+03  0.88920340732E+02 0.  0.
          2    1    3    3  502    0 -0.41839219866E+02  0.39806917969E+02 -0.10300351706E+02  0.58661812813E+02  0.00000000000E+00 0. -1.
         -2    1    3    3    0  502 -0.18581390659E+03  0.13341776382E+03  0.12849361946E+03  0.26236943006E+03  0.00000000000E+00 0.  1.
         15    1    5    5    0    0  0.13333854400E+03 -0.19918392695E+03  0.30540247825E+03  0.38823605644E+03  0.17770000000E+01 0.  1.
        -15    1    5    5    0    0 -0.11257000919E+02 -0.37550928450E+02  0.74141004647E+02  0.83885866487E+02  0.17770000000E+01 0. -1.
          4    1    6    6  503    0  0.21822299288E+02  0.44809843157E+02 -0.11519865967E+03  0.12551838901E+03  0.00000000000E+00 0. -1.
         -4    1    6    6    0  503  0.83749284089E+02  0.18700330448E+02 -0.51700039933E+02  0.10018252878E+03  0.00000000000E+00 0.  1.
<mgrwt>
<rscale>  0 0.35054879E+03</rscale>
<asrwt>0</asrwt>
<pdfrwt beam="1">  1        2 0.10382247E+00 0.35054879E+03</pdfrwt>
<pdfrwt beam="2">  1       -2 0.52924311E-01 0.35054879E+03</pdfrwt>
<totfact> 0.15039130E+02</totfact>
</mgrwt>
</event>
<event>
12    1  0.9321077E-008  0.5714416E+03  0.7818608E-02  0.9966494E-01
          1   -1    0    0  501    0  0.00000000000E+00  0.00000000000E+00  0.86326828906E+03  0.86326828906E+03  0.00000000000E+00 0. -1.
         -1   -1    0    0    0  501 -0.00000000000E+00 -0.00000000000E+00 -0.39192405102E+03  0.39192405102E+03  0.00000000000E+00 0.  1.
         23    2    1    2    0    0 -0.16478452682E+03  0.38390457443E+03  0.22608401323E+03  0.48399770327E+03  0.92753076417E+02 0.  0.
    5000000    2    1    2    0    0  0.16478452682E+03 -0.38390457443E+03  0.24526022482E+03  0.77119463681E+03  0.60004327129E+03 0.  0.
         23    2    4    4    0    0 -0.20177413483E+03 -0.54540170967E+02  0.50171468183E+02  0.23306936698E+03  0.90092851374E+02 0.  0.
         23    2    4    4    0    0  0.36655866165E+03 -0.32936440347E+03  0.19508875664E+03  0.53812526983E+03  0.93129052220E+02 0.  0.
          1    1    3    3  502    0 -0.13630658199E+03  0.36567295502E+03  0.22434071801E+03  0.45013881424E+03  0.00000000000E+00 0. -1.
         -1    1    3    3    0  502 -0.28477944833E+02  0.18231619414E+02  0.17432952159E+01  0.33858889034E+02  0.00000000000E+00 0.  1.
         15    1    5    5    0    0 -0.15788464417E+03 -0.76845158389E+02  0.53836937113E+02  0.18366903048E+03  0.17770000000E+01 0. -1.
        -15    1    5    5    0    0 -0.43889490659E+02  0.22304987421E+02 -0.36654689302E+01  0.49400336493E+02  0.17770000000E+01 0.  1.
          3    1    6    6  503    0  0.17309711071E+03 -0.13296724083E+03  0.13279769862E+03  0.25549584269E+03  0.00000000000E+00 0. -1.
         -3    1    6    6    0  503  0.19346155093E+03 -0.19639716263E+03  0.62291058023E+02  0.28262942715E+03  0.00000000000E+00 0.  1.
<mgrwt>
<rscale>  0 0.57144160E+03</rscale>
<asrwt>0</asrwt>
<pdfrwt beam="1">  1        1 0.13281051E+00 0.57144160E+03</pdfrwt>
<pdfrwt beam="2">  1       -1 0.60296008E-01 0.57144160E+03</pdfrwt>
<totfact> 0.56724963E+01</totfact>
</mgrwt>
</event>
<event>
12    1  0.9321077E-008  0.8091720E+03  0.7818608E-02  0.9546835E-01
          2   -1    0    0  501    0  0.00000000000E+00  0.00000000000E+00  0.26481742920E+04  0.26481742920E+04  0.00000000000E+00 0. -1.
         -2   -1    0    0    0  501 -0.00000000000E+00 -0.00000000000E+00 -0.26805817797E+03  0.26805817797E+03  0.00000000000E+00 0.  1.
         23    2    1    2    0    0  0.66932896006E+03  0.26174424590E+03  0.12864046124E+04  0.14763614569E+04  0.91076987265E+02 0.  0.
    5000000    2    1    2    0    0 -0.66932896006E+03 -0.26174424590E+03  0.10937115016E+04  0.14398710130E+04  0.60042683017E+03 0.  0.
         23    2    4    4    0    0  0.65333962019E+02  0.69316274643E-01  0.31376423791E+03  0.33314382038E+03  0.90930064720E+02 0.  0.
         23    2    4    4    0    0 -0.73466292208E+03 -0.26181356218E+03  0.77994726367E+03  0.11067271926E+04  0.90837186090E+02 0.  0.
          2    1    3    3  502    0  0.42829220619E+03  0.21144154260E+03  0.82091864505E+03  0.94976268700E+03  0.00000000000E+00 0. -1.
         -2    1    3    3    0  502  0.24103675387E+03  0.50302703307E+02  0.46548596736E+03  0.52659876992E+03  0.00000000000E+00 0.  1.
         15    1    5    5    0    0  0.23895496714E+02 -0.43290526764E+02  0.17721005470E+03  0.18398811289E+03  0.17770000000E+01 0.  1.
        -15    1    5    5    0    0  0.41438465305E+02  0.43359843039E+02  0.13655418321E+03  0.14915570749E+03  0.17770000000E+01 0. -1.
          2    1    6    6  503    0 -0.51966511011E+03 -0.14135849924E+03  0.54668760439E+03  0.76739910658E+03  0.00000000000E+00 0. -1.
         -2    1    6    6    0  503 -0.21499781197E+03 -0.12045506294E+03  0.23325965927E+03  0.33932808605E+03  0.00000000000E+00 0.  1.
<mgrwt>
<rscale>  0 0.80917200E+03</rscale>
<asrwt>0</asrwt>
<pdfrwt beam="1">  1        2 0.40741141E+00 0.80917200E+03</pdfrwt>
<pdfrwt beam="2">  1       -2 0.41239721E-01 0.80917200E+03</pdfrwt>
<totfact> 0.16527951E+01</totfact>
</mgrwt>
</event>
<event>
12    1  0.9321077E-008  0.1320138E+04  0.7818608E-02  0.9013746E-01
          2   -1    0    0  501    0  0.00000000000E+00  0.00000000000E+00  0.21616644068E+04  0.21616644068E+04  0.00000000000E+00 0. -1.
         -2   -1    0    0    0  501 -0.00000000000E+00 -0.00000000000E+00 -0.82875405815E+03  0.82875405815E+03  0.00000000000E+00 0.  1.
         23    2    1    2    0    0  0.11226003269E+04 -0.55649700522E+03  0.40522573020E+03  0.13199168664E+04  0.89734224122E+02 0.  0.
    5000000    2    1    2    0    0 -0.11226003269E+04  0.55649700522E+03  0.92768461849E+03  0.16705015986E+04  0.60004702209E+03 0.  0.
         23    2    4    4    0    0 -0.13946635461E+03  0.33661367589E+03  0.21766205710E+03  0.43489078949E+03  0.94834576089E+02 0.  0.
         23    2    4    4    0    0 -0.98313397231E+03  0.21988332933E+03  0.71002256140E+03  0.12356108091E+04  0.87755044711E+02 0.  0.
          4    1    3    3  502    0  0.99086685362E+03 -0.52088873261E+03  0.36971258767E+03  0.11789103405E+04  0.00000000000E+00 0. -1.
         -4    1    3    3    0  502  0.13173347330E+03 -0.35608272607E+02  0.35513142531E+02  0.14100652594E+03  0.00000000000E+00 0.  1.
         15    1    5    5    0    0 -0.43687686092E+02  0.22591380250E+03  0.13247151424E+03  0.26551369059E+03  0.17770000000E+01 0.  1.
        -15    1    5    5    0    0 -0.95778668518E+02  0.11069987338E+03  0.85190542854E+02  0.16937709890E+03  0.17770000000E+01 0. -1.
          2    1    6    6  503    0 -0.21322360645E+03  0.60519628770E+02  0.11570836176E+03  0.25003071171E+03  0.00000000000E+00 0. -1.
         -2    1    6    6    0  503 -0.76991036585E+03  0.15936370056E+03  0.59431419964E+03  0.98558009740E+03  0.00000000000E+00 0.  1.
<mgrwt>
<rscale>  0 0.13201381E+04</rscale>
<asrwt>0</asrwt>
<pdfrwt beam="1">  1        2 0.33256375E+00 0.13201381E+04</pdfrwt>
<pdfrwt beam="2">  1       -2 0.12750062E+00 0.13201381E+04</pdfrwt>
<totfact> 0.23866518E+00</totfact>
</mgrwt>
</event>
<event>
12    1  0.9321077E-008  0.1370634E+04  0.7818608E-02  0.8975354E-01
          2   -1    0    0  501    0  0.00000000000E+00  0.00000000000E+00  0.13273152427E+04  0.13273152427E+04  0.00000000000E+00 0.  1.
         -2   -1    0    0    0  501 -0.00000000000E+00 -0.00000000000E+00 -0.15326820865E+04  0.15326820865E+04  0.00000000000E+00 0. -1.
         23    2    1    2    0    0  0.66685199179E+03  0.11805658801E+04 -0.22337834196E+03  0.13771884347E+04  0.91228969114E+02 0.  0.
    5000000    2    1    2    0    0 -0.66685199179E+03 -0.11805658801E+04  0.18011498226E+02  0.14828088945E+04  0.59997535543E+03 0.  0.
         23    2    4    4    0    0 -0.20269211736E+03 -0.57161640819E+03 -0.25557984474E+03  0.66426764275E+03  0.90005731044E+02 0.  0.
         23    2    4    4    0    0 -0.46415987443E+03 -0.60894947194E+03  0.27359134296E+03  0.81854125170E+03  0.94306465234E+02 0.  0.
          4    1    3    3  502    0  0.27397445404E+03  0.57250296292E+03 -0.11941941085E+03  0.64581935532E+03  0.00000000000E+00 0. -1.
         -4    1    3    3    0  502  0.39287753774E+03  0.60806291722E+03 -0.10395893110E+03  0.73136907941E+03  0.00000000000E+00 0.  1.
         15    1    5    5    0    0 -0.12167335973E+03 -0.45321623801E+03 -0.18566545403E+03  0.50466244502E+03  0.17770000000E+01 0. -1.
        -15    1    5    5    0    0 -0.81018757626E+02 -0.11840017018E+03 -0.69914390710E+02  0.15960519773E+03  0.17770000000E+01 0.  1.
          4    1    6    6  503    0 -0.10575856924E+03 -0.19910269058E+03  0.56609389160E+02  0.23244650848E+03  0.00000000000E+00 0. -1.
         -4    1    6    6    0  503 -0.35840130519E+03 -0.40984678136E+03  0.21698195380E+03  0.58609474322E+03  0.00000000000E+00 0.  1.
<mgrwt>
<rscale>  0 0.13706344E+04</rscale>
<asrwt>0</asrwt>
<pdfrwt beam="1">  1        2 0.20420235E+00 0.13706344E+04</pdfrwt>
<pdfrwt beam="2">  1       -2 0.23579724E+00 0.13706344E+04</pdfrwt>
<totfact> 0.11960922E+00</totfact>
</mgrwt>
</event>
<event>
12    1  0.9321077E-008  0.4211883E+03  0.7818608E-02  0.1036680E+00
         -2   -1    0    0    0  501 -0.00000000000E+00  0.00000000000E+00  0.28651601518E+03  0.28651601518E+03  0.00000000000E+00 0.  1.
          2   -1    0    0  501    0  0.00000000000E+00 -0.00000000000E+00 -0.77474992528E+03  0.77474992528E+03  0.00000000000E+00 0. -1.
         23    2    1    2    0    0  0.97448617214E+02 -0.24494271454E+03 -0.18396612106E+03  0.33862007761E+03  0.10642770721E+03 0.  0.
    5000000    2    1    2    0    0 -0.97448617214E+02  0.24494271454E+03 -0.30426778905E+03  0.72264586285E+03  0.60012081220E+03 0.  0.
         23    2    4    4    0    0  0.16369471110E+03  0.22172079914E+03 -0.33612980976E+03  0.44434463927E+03  0.92210835730E+02 0.  0.
         23    2    4    4    0    0 -0.26114332831E+03  0.23221915396E+02  0.31862020705E+02  0.27830122358E+03  0.87756979259E+02 0.  0.
          3    1    3    3  502    0 -0.19353992497E+02 -0.53443595853E+02 -0.58670876876E+02  0.81688841078E+02  0.00000000000E+00 0. -1.
         -3    1    3    3    0  502  0.11680260971E+03 -0.19149911868E+03 -0.12529524418E+03  0.25693123653E+03  0.00000000000E+00 0.  1.
         15    1    5    5    0    0  0.12381942681E+01  0.52459603943E+02 -0.90799540310E+02  0.10488687916E+03  0.17770000000E+01 0. -1.
        -15    1    5    5    0    0  0.16245651683E+03  0.16926119520E+03 -0.24533026945E+03  0.33945776010E+03  0.17770000000E+01 0.  1.
          3    1    6    6  503    0 -0.69770094416E+02  0.42612111051E+02 -0.70314614334E+01  0.82055466198E+02  0.00000000000E+00 0. -1.
         -3    1    6    6    0  503 -0.19137323389E+03 -0.19390195655E+02  0.38893482138E+02  0.19624575738E+03  0.00000000000E+00 0.  1.
<mgrwt>
<rscale>  0 0.42118825E+03</rscale>
<asrwt>0</asrwt>
<pdfrwt beam="1">  1        2 0.11919230E+00 0.42118825E+03</pdfrwt>
<pdfrwt beam="2">  1       -2 0.44079387E-01 0.42118825E+03</pdfrwt>
<totfact> 0.18123396E+02</totfact>
</mgrwt>
</event>
<event>
12    1  0.9321077E-008  0.4801214E+03  0.7818608E-02  0.1019102E+00
          1   -1    0    0  501    0  0.00000000000E+00  0.00000000000E+00  0.13918226914E+03  0.13918226914E+03  0.00000000000E+00 0. -1.
         -1   -1    0    0    0  501 -0.00000000000E+00 -0.00000000000E+00 -0.17553151585E+04  0.17553151585E+04  0.00000000000E+00 0.  1.
         23    2    1    2    0    0 -0.28855879808E+03 -0.79668464570E+02 -0.60828556741E+03  0.68401522611E+03  0.90841916666E+02 0.  0.
    5000000    2    1    2    0    0  0.28855879808E+03  0.79668464570E+02 -0.10078473219E+04  0.12104822015E+04  0.59991473699E+03 0.  0.
         23    2    4    4    0    0  0.94475365167E+02 -0.24576311973E+03 -0.44980517817E+03  0.52965821920E+03  0.94276323718E+02 0.  0.
         23    2    4    4    0    0  0.19408343292E+03  0.32543158430E+03 -0.55804214378E+03  0.68082398233E+03  0.92391372351E+02 0.  0.
          4    1    3    3  502    0 -0.15120450581E+03 -0.65781651725E+02 -0.24442668341E+03  0.29484645470E+03  0.00000000000E+00 0.  1.
         -4    1    3    3    0  502 -0.13735429227E+03 -0.13886812845E+02 -0.36385888400E+03  0.38916877141E+03  0.00000000000E+00 0. -1.
         15    1    5    5    0    0  0.66562906160E+01 -0.12968303923E+03 -0.25829434742E+03  0.28910400293E+03  0.17770000000E+01 0. -1.
        -15    1    5    5    0    0  0.87819074551E+02 -0.11608008050E+03 -0.19151083074E+03  0.24055421627E+03  0.17770000000E+01 0.  1.
          2    1    6    6  503    0  0.10268029859E+03  0.12644276873E+03 -0.30824697819E+03  0.34863622452E+03  0.00000000000E+00 0. -1.
         -2    1    6    6    0  503  0.91403134323E+02  0.19898881557E+03 -0.24979516559E+03  0.33218775781E+03  0.00000000000E+00 0.  1.
<mgrwt>
<rscale>  0 0.48012141E+03</rscale>
<asrwt>0</asrwt>
<pdfrwt beam="1">  1        1 0.21412655E-01 0.48012141E+03</pdfrwt>
<pdfrwt beam="2">  1       -1 0.27004850E+00 0.48012141E+03</pdfrwt>
<totfact> 0.13307511E+01</totfact>
</mgrwt>
</event>
<event>
12    1  0.9321077E-008  0.5745766E+03  0.7818608E-02  0.9959602E-01
         -2   -1    0    0    0  501 -0.00000000000E+00  0.00000000000E+00  0.41605806622E+03  0.41605806622E+03  0.00000000000E+00 0. -1.
          2   -1    0    0  501    0  0.00000000000E+00 -0.00000000000E+00 -0.85607505210E+03  0.85607505210E+03  0.00000000000E+00 0.  1.
         23    2    1    2    0    0 -0.27316943757E+03  0.32093194256E+03 -0.30162123187E+03  0.52605459466E+03  0.90217601789E+02 0.  0.
    5000000    2    1    2    0    0  0.27316943757E+03 -0.32093194256E+03 -0.13839575401E+03  0.74607852366E+03  0.59988409327E+03 0.  0.
         23    2    4    4    0    0 -0.16830020755E+03 -0.17308800127E+03 -0.69185600784E+02  0.26694601684E+03  0.90493715276E+02 0.  0.
         23    2    4    4    0    0  0.44146964512E+03 -0.14784394129E+03 -0.69210153229E+02  0.47913250682E+03  0.89580328439E+02 0.  0.
          3    1    3    3  502    0 -0.12445646262E+03  0.17227107033E+03 -0.10052969568E+03  0.23510200440E+03  0.00000000000E+00 0. -1.
         -3    1    3    3    0  502 -0.14871297496E+03  0.14866087222E+03 -0.20109153619E+03  0.29095259026E+03  0.00000000000E+00 0.  1.
         15    1    5    5    0    0 -0.41669451698E+02 -0.96730938029E+02 -0.42201646292E+01  0.10542383552E+03  0.17770000000E+01 0. -1.
        -15    1    5    5    0    0 -0.12663075585E+03 -0.76357063240E+02 -0.64965436155E+02  0.16152218132E+03  0.17770000000E+01 0.  1.
          4    1    6    6  503    0  0.17916399701E+03 -0.10407965192E+03 -0.15090528129E+02  0.20774993576E+03  0.00000000000E+00 0. -1.
         -4    1    6    6    0  503  0.26230564811E+03 -0.43764289365E+02 -0.54119625100E+02  0.27138257106E+03  0.00000000000E+00 0.  1.
<mgrwt>
<rscale>  0 0.57457655E+03</rscale>
<asrwt>0</asrwt>
<pdfrwt beam="1">  1        2 0.13170385E+00 0.57457655E+03</pdfrwt>
<pdfrwt beam="2">  1       -2 0.64008934E-01 0.57457655E+03</pdfrwt>
<totfact> 0.72951895E+01</totfact>
</mgrwt>
</event>
<event>
12    1  0.9321077E-008  0.7080902E+03  0.7818608E-02  0.9703496E-01
          1   -1    0    0  501    0  0.00000000000E+00  0.00000000000E+00  0.87016015214E+03  0.87016015214E+03  0.00000000000E+00 0. -1.
         -1   -1    0    0    0  501 -0.00000000000E+00 -0.00000000000E+00 -0.62973630107E+03  0.62973630107E+03  0.00000000000E+00 0.  1.
         23    2    1    2    0    0 -0.10472496663E+03  0.59468767797E+03  0.21768835455E+03  0.64842661787E+03  0.91913579434E+02 0.  0.
    5000000    2    1    2    0    0  0.10472496663E+03 -0.59468767797E+03  0.22735496521E+02  0.85146983534E+03  0.59988600978E+03 0.  0.
         23    2    4    4    0    0  0.23735088268E+03 -0.52236197948E+02 -0.90374146250E+02  0.27471168394E+03  0.90746686424E+02 0.  0.
         23    2    4    4    0    0 -0.13262591605E+03 -0.54245148002E+03  0.11310964277E+03  0.57675815141E+03  0.89514982768E+02 0.  0.
          3    1    3    3  502    0 -0.13362593927E+02  0.26429281892E+03  0.61265967164E+02  0.27162984332E+03  0.00000000000E+00 0. -1.
         -3    1    3    3    0  502 -0.91362372702E+02  0.33039485905E+03  0.15642238738E+03  0.37679677454E+03  0.00000000000E+00 0.  1.
         15    1    5    5    0    0  0.71631305793E+02 -0.32562970867E+02 -0.72247482916E+02  0.10683748199E+03  0.17770000000E+01 0.  1.
        -15    1    5    5    0    0  0.16571957688E+03 -0.19673227081E+02 -0.18126663335E+02  0.16787420195E+03  0.17770000000E+01 0. -1.
          3    1    6    6  503    0 -0.71795259295E+02 -0.15328413234E+03  0.58546619695E+02  0.17910413497E+03  0.00000000000E+00 0. -1.
         -3    1    6    6    0  503 -0.60830656753E+02 -0.38916734769E+03  0.54563023076E+02  0.39765401644E+03  0.00000000000E+00 0.  1.
<mgrwt>
<rscale>  0 0.70809022E+03</rscale>
<asrwt>0</asrwt>
<pdfrwt beam="1">  1        1 0.13387079E+00 0.70809022E+03</pdfrwt>
<pdfrwt beam="2">  1       -1 0.96882507E-01 0.70809022E+03</pdfrwt>
<totfact> 0.20385910E+01</totfact>
</mgrwt>
</event>
<event>
12    1  0.9321077E-008  0.4620065E+03  0.7818608E-02  0.1024201E+00
         -1   -1    0    0    0  501 -0.00000000000E+00  0.00000000000E+00  0.55780150729E+03  0.55780150729E+03  0.00000000000E+00 0.  1.
          1   -1    0    0  501    0  0.00000000000E+00 -0.00000000000E+00 -0.64537446778E+03  0.64537446778E+03  0.00000000000E+00 0. -1.
         23    2    1    2    0    0  0.12563308028E+03  0.42231417480E+03  0.18516307483E+02  0.45122224439E+03  0.95528671558E+02 0.  0.
    5000000    2    1    2    0    0 -0.12563308028E+03 -0.42231417480E+03 -0.10608926797E+03  0.75195373067E+03  0.60003878807E+03 0.  0.
         23    2    4    4    0    0 -0.36956144950E+02 -0.15964080184E+03 -0.33323991576E+03  0.38140727231E+03  0.87015651807E+02 0.  0.
         23    2    4    4    0    0 -0.88676935331E+02 -0.26267337297E+03  0.22715064778E+03  0.37054645836E+03  0.94055097087E+02 0.  0.
          1    1    3    3  502    0 -0.15121916196E+02  0.65125276049E+02  0.54207215022E+01  0.67077255098E+02  0.00000000000E+00 0. -1.
         -1    1    3    3    0  502  0.14075499648E+03  0.35718889875E+03  0.13095585980E+02  0.38414498929E+03  0.00000000000E+00 0.  1.
         15    1    5    5    0    0 -0.49704608572E+02 -0.16085462157E+03 -0.28090385004E+03  0.32749792074E+03  0.17770000000E+01 0.  1.
        -15    1    5    5    0    0  0.12748463622E+02  0.12138197355E+01 -0.52336065718E+02  0.53909351572E+02  0.17770000000E+01 0. -1.
          3    1    6    6  503    0  0.25875381004E+01 -0.13485400075E+03  0.11882871749E+03  0.17975694972E+03  0.00000000000E+00 0. -1.
         -3    1    6    6    0  503 -0.91264473431E+02 -0.12781937221E+03  0.10832193029E+03  0.19078950864E+03  0.00000000000E+00 0.  1.
<mgrwt>
<rscale>  0 0.46200645E+03</rscale>
<asrwt>0</asrwt>
<pdfrwt beam="1">  1        1 0.99288380E-01 0.46200645E+03</pdfrwt>
<pdfrwt beam="2">  1       -1 0.85815616E-01 0.46200645E+03</pdfrwt>
<totfact> 0.43669057E+01</totfact>
</mgrwt>
</event>
<event>
12    1  0.9321077E-008  0.1053582E+04  0.7818608E-02  0.9251654E-01
          2   -1    0    0  501    0  0.00000000000E+00  0.00000000000E+00  0.25750877205E+04  0.25750877205E+04  0.00000000000E+00 0. -1.
         -2   -1    0    0    0  501 -0.00000000000E+00 -0.00000000000E+00 -0.47521545903E+03  0.47521545903E+03  0.00000000000E+00 0.  1.
         23    2    1    2    0    0 -0.32637630396E+03  0.94838727391E+03  0.12501094918E+04  0.16053494088E+04  0.91722787298E+02 0.  0.
    5000000    2    1    2    0    0  0.32637630396E+03 -0.94838727391E+03  0.84976276970E+03  0.14449537708E+04  0.59986225237E+03 0.  0.
         23    2    4    4    0    0  0.36845887425E+03 -0.39162185702E+03  0.19484934547E+03  0.57962127721E+03  0.94153792565E+02 0.  0.
         23    2    4    4    0    0 -0.42082570290E+02 -0.55676541689E+03  0.65491342423E+03  0.86533249357E+03  0.90166839942E+02 0.  0.
          1    1    3    3  502    0 -0.24156518887E+03  0.78413623796E+03  0.10560867456E+04  0.13373640471E+04  0.00000000000E+00 0. -1.
         -1    1    3    3    0  502 -0.84811115086E+02  0.16425103595E+03  0.19402274617E+03  0.26798536169E+03  0.00000000000E+00 0.  1.
         15    1    5    5    0    0  0.35316618107E+03 -0.34820102211E+03  0.19663929762E+03  0.53351707971E+03  0.17770000000E+01 0. -1.
        -15    1    5    5    0    0  0.15292693183E+02 -0.43420834913E+02 -0.17899521483E+01  0.46104197499E+02  0.17770000000E+01 0.  1.
          3    1    6    6  503    0 -0.16024305234E+01 -0.28610399550E+03  0.39640822215E+03  0.48887374916E+03  0.00000000000E+00 0. -1.
         -3    1    6    6    0  503 -0.40480139767E+02 -0.27066142139E+03  0.25850520208E+03  0.37645874441E+03  0.00000000000E+00 0.  1.
<mgrwt>
<rscale>  0 0.10535818E+04</rscale>
<asrwt>0</asrwt>
<pdfrwt beam="1">  1        2 0.39616733E+00 0.10535818E+04</pdfrwt>
<pdfrwt beam="2">  1       -2 0.73110073E-01 0.10535818E+04</pdfrwt>
<totfact> 0.53459444E+00</totfact>
</mgrwt>
</event>
<event>
12    1  0.9321077E-008  0.7016014E+03  0.7818608E-02  0.9714498E-01
          2   -1    0    0  501    0  0.00000000000E+00  0.00000000000E+00  0.17197442050E+04  0.17197442050E+04  0.00000000000E+00 0. -1.
         -2   -1    0    0    0  501 -0.00000000000E+00 -0.00000000000E+00 -0.36935884298E+03  0.36935884298E+03  0.00000000000E+00 0.  1.
         23    2    1    2    0    0 -0.65653501640E+03 -0.72512704425E+01  0.81748428519E+03  0.10523032722E+04  0.89279401009E+02 0.  0.
    5000000    2    1    2    0    0  0.65653501640E+03  0.72512704425E+01  0.53290107686E+03  0.10367997758E+04  0.59989949886E+03 0.  0.
         23    2    4    4    0    0  0.12050641909E+02  0.29109570791E+02 -0.92527159511E+02  0.13400338963E+03  0.91668141152E+02 0.  0.
         23    2    4    4    0    0  0.64448437449E+03 -0.21858300348E+02  0.62542823637E+03  0.90279638619E+03  0.89682449841E+02 0.  0.
          2    1    3    3  502    0 -0.39426828609E+03 -0.45902076328E+02  0.51168139300E+03  0.64758963084E+03  0.00000000000E+00 0. -1.
         -2    1    3    3    0  502 -0.26226673031E+03  0.38650805886E+02  0.30580289219E+03  0.40471364135E+03  0.00000000000E+00 0.  1.
         15    1    5    5    0    0 -0.37983016742E+02 -0.72321561090E+00 -0.44060185650E+02  0.58203868343E+02  0.17770000000E+01 0. -1.
        -15    1    5    5    0    0  0.50033658651E+02  0.29832786402E+02 -0.48466973861E+02  0.75799521283E+02  0.17770000000E+01 0.  1.
          1    1    6    6  503    0  0.28629695492E+03 -0.83427113180E+01  0.21668096835E+03  0.35914647328E+03  0.00000000000E+00 0. -1.
         -1    1    6    6    0  503  0.35818741957E+03 -0.13515589030E+02  0.40874726802E+03  0.54364991291E+03  0.00000000000E+00 0.  1.
<mgrwt>
<rscale>  0 0.70160135E+03</rscale>
<asrwt>0</asrwt>
<pdfrwt beam="1">  1        2 0.26457603E+00 0.70160135E+03</pdfrwt>
<pdfrwt beam="2">  1       -2 0.56824438E-01 0.70160135E+03</pdfrwt>
<totfact> 0.28702375E+01</totfact>
</mgrwt>
</event>
<event>
12    1  0.9321077E-008  0.1342993E+04  0.7818608E-02  0.8996149E-01
          2   -1    0    0  501    0  0.00000000000E+00  0.00000000000E+00  0.96825239153E+03  0.96825239153E+03  0.00000000000E+00 0. -1.
         -2   -1    0    0    0  501 -0.00000000000E+00 -0.00000000000E+00 -0.26220400831E+04  0.26220400831E+04  0.00000000000E+00 0.  1.
         23    2    1    2    0    0 -0.86288190599E+03 -0.99835510217E+03  0.85586422155E+02  0.13260891831E+04  0.99545929887E+02 0.  0.
    5000000    2    1    2    0    0  0.86288190599E+03  0.99835510217E+03 -0.17393741137E+04  0.22642032915E+04  0.59993011605E+03 0.  0.
         23    2    4    4    0    0  0.91567199106E+02  0.31387969224E+03 -0.15882857119E+03  0.37486041610E+03  0.91590410953E+02 0.  0.
         23    2    4    4    0    0  0.77131470689E+03  0.68447540993E+03 -0.15805455425E+04  0.18893428754E+04  0.89773743614E+02 0.  0.
          4    1    3    3  502    0 -0.29764224354E+03 -0.34467111930E+03  0.77049121729E+02  0.46187190083E+03  0.00000000000E+00 0. -1.
         -4    1    3    3    0  502 -0.56523966246E+03 -0.65368398287E+03  0.85373004253E+01  0.86421728227E+03  0.00000000000E+00 0.  1.
         15    1    5    5    0    0  0.98560451854E+02  0.29983349595E+03 -0.16699988191E+03  0.35708039186E+03  0.17770000000E+01 0.  1.
        -15    1    5    5    0    0 -0.69932527480E+01  0.14046196297E+02  0.81713107161E+01  0.17780024247E+02  0.17770000000E+01 0. -1.
          3    1    6    6  503    0  0.31490052544E+03  0.22241819027E+03 -0.60332590706E+03  0.71598487583E+03  0.00000000000E+00 0. -1.
         -3    1    6    6    0  503  0.45641418145E+03  0.46205721965E+03 -0.97721963544E+03  0.11733579996E+04  0.00000000000E+00 0.  1.
<mgrwt>
<rscale>  0 0.13429933E+04</rscale>
<asrwt>0</asrwt>
<pdfrwt beam="1">  1        2 0.14896191E+00 0.13429933E+04</pdfrwt>
<pdfrwt beam="2">  1       -2 0.40339078E+00 0.13429933E+04</pdfrwt>
<totfact> 0.18030364E-01</totfact>
</mgrwt>
</event>
<event>
12    1  0.9321077E-008  0.1047480E+04  0.7818608E-02  0.9257950E-01
         -2   -1    0    0    0  501 -0.00000000000E+00  0.00000000000E+00  0.11100383894E+04  0.11100383894E+04  0.00000000000E+00 0.  1.
          2   -1    0    0  501    0  0.00000000000E+00 -0.00000000000E+00 -0.17248755740E+04  0.17248755740E+04  0.00000000000E+00 0. -1.
         23    2    1    2    0    0 -0.93857534398E+03  0.33313964230E+03  0.58951411208E+03  0.11608890649E+04  0.90723949480E+02 0.  0.
    5000000    2    1    2    0    0  0.93857534398E+03 -0.33313964230E+03 -0.12043512967E+04  0.16740248986E+04  0.59999301464E+03 0.  0.
         23    2    4    4    0    0 -0.67649869981E+01  0.23734311509E+02  0.73141142248E+01  0.93721369356E+02  0.90117235950E+02 0.  0.
         23    2    4    4    0    0  0.94534033098E+03 -0.35687395381E+03 -0.12116654109E+04  0.15803035292E+04  0.90547314590E+02 0.  0.
          2    1    3    3  502    0 -0.55077844179E+03  0.18019370084E+03  0.29333024634E+03  0.64951466126E+03  0.00000000000E+00 0. -1.
         -2    1    3    3    0  502 -0.38779690219E+03  0.15294594146E+03  0.29618386574E+03  0.51137440362E+03  0.00000000000E+00 0.  1.
         15    1    5    5    0    0 -0.30900707586E+02  0.43171968300E+02 -0.15342034288E+02  0.55292027647E+02  0.17770000000E+01 0.  1.
        -15    1    5    5    0    0  0.24135720588E+02 -0.19437656791E+02  0.22656148513E+02  0.38429341710E+02  0.17770000000E+01 0. -1.
          4    1    6    6  503    0  0.22437168137E+03 -0.44739684689E+02 -0.28179256403E+03  0.36297567402E+03  0.00000000000E+00 0. -1.
         -4    1    6    6    0  503  0.72096864961E+03 -0.31213426912E+03 -0.92987284685E+03  0.12173278552E+04  0.00000000000E+00 0.  1.
<mgrwt>
<rscale>  0 0.10474797E+04</rscale>
<asrwt>0</asrwt>
<pdfrwt beam="1">  1        2 0.26536547E+00 0.10474797E+04</pdfrwt>
<pdfrwt beam="2">  1       -2 0.17077514E+00 0.10474797E+04</pdfrwt>
<totfact> 0.19757648E+00</totfact>
</mgrwt>
</event>
<event>
12    1  0.9321077E-008  0.9878515E+03  0.7818608E-02  0.9321970E-01
          2   -1    0    0  501    0  0.00000000000E+00  0.00000000000E+00  0.23139826138E+04  0.23139826138E+04  0.00000000000E+00 0. -1.
         -2   -1    0    0    0  501 -0.00000000000E+00 -0.00000000000E+00 -0.58619627935E+03  0.58619627935E+03  0.00000000000E+00 0.  1.
         23    2    1    2    0    0 -0.44338982985E+03  0.86229001494E+03  0.14151014540E+04  0.17177930866E+04  0.90345736389E+02 0.  0.
    5000000    2    1    2    0    0  0.44338982985E+03 -0.86229001494E+03  0.31268488044E+03  0.11823858066E+04  0.60010478255E+03 0.  0.
         23    2    4    4    0    0  0.12940641649E+02 -0.23905519077E+03 -0.14300722058E+03  0.29376723584E+03  0.92375750490E+02 0.  0.
         23    2    4    4    0    0  0.43044918820E+03 -0.62323482417E+03  0.45569210101E+03  0.88861857072E+03  0.90991887705E+02 0.  0.
          1    1    3    3  502    0 -0.37962535853E+03  0.75729859602E+03  0.11807408018E+04  0.14531914593E+04  0.00000000000E+00 0. -1.
         -1    1    3    3    0  502 -0.63764471322E+02  0.10499141891E+03  0.23436065223E+03  0.26460162728E+03  0.00000000000E+00 0.  1.
         15    1    5    5    0    0  0.84370572635E+01 -0.24226943856E+03 -0.14968783785E+03  0.28491274335E+03  0.17770000000E+01 0. -1.
        -15    1    5    5    0    0  0.45035843857E+01  0.32142477928E+01  0.66806172696E+01  0.88544924923E+01  0.17770000000E+01 0.  1.
          3    1    6    6  503    0  0.24491286086E+03 -0.36375790234E+03  0.31528381088E+03  0.54009814139E+03  0.00000000000E+00 0. -1.
         -3    1    6    6    0  503  0.18553632735E+03 -0.25947692183E+03  0.14040829014E+03  0.34852042934E+03  0.00000000000E+00 0.  1.
<mgrwt>
<rscale>  0 0.98785147E+03</rscale>
<asrwt>0</asrwt>
<pdfrwt beam="1">  1        2 0.35599732E+00 0.98785147E+03</pdfrwt>
<pdfrwt beam="2">  1       -2 0.90184044E-01 0.98785147E+03</pdfrwt>
<totfact> 0.47180015E+00</totfact>
</mgrwt>
</event>
<event>
12    1  0.9321077E-008  0.1221177E+04  0.7818608E-02  0.9094520E-01
         -1   -1    0    0    0  501 -0.00000000000E+00  0.00000000000E+00  0.67431545111E+03  0.67431545111E+03  0.00000000000E+00 0.  1.
          1   -1    0    0  501    0  0.00000000000E+00 -0.00000000000E+00 -0.23873639529E+04  0.23873639529E+04  0.00000000000E+00 0. -1.
         23    2    1    2    0    0  0.11283264984E+04  0.21767087603E+03 -0.12097504902E+04  0.16710274465E+04  0.91297214324E+02 0.  0.
    5000000    2    1    2    0    0 -0.11283264984E+04 -0.21767087603E+03 -0.50329801168E+03  0.13906519575E+04  0.60008556165E+03 0.  0.
         23    2    4    4    0    0 -0.44939981061E+03  0.18713191961E+03 -0.25587207638E+03  0.55724538486E+03  0.89851846775E+02 0.  0.
         23    2    4    4    0    0 -0.67892668775E+03 -0.40480279565E+03 -0.24742593530E+03  0.83340657268E+03  0.92413046853E+02 0.  0.
          1    1    3    3  502    0  0.46932979704E+03  0.12851033224E+03 -0.47458192473E+03  0.67971565170E+03  0.00000000000E+00 0. -1.
         -1    1    3    3    0  502  0.65899670132E+03  0.89160543791E+02 -0.73516856542E+03  0.99131179480E+03  0.00000000000E+00 0.  1.
         15    1    5    5    0    0 -0.80792141838E+01 -0.87999331971E+01 -0.46732223655E+01  0.12950261093E+02  0.17770000000E+01 0. -1.
        -15    1    5    5    0    0 -0.44132059642E+03  0.19593185281E+03 -0.25119885401E+03  0.54429512377E+03  0.17770000000E+01 0.  1.
          1    1    6    6  503    0 -0.42648465648E+02 -0.18950282454E+01 -0.14731873402E+02  0.45160943836E+02  0.00000000000E+00 0. -1.
         -1    1    6    6    0  503 -0.63627822210E+03 -0.40290776740E+03 -0.23269406189E+03  0.78824562885E+03  0.00000000000E+00 0.  1.
<mgrwt>
<rscale>  0 0.12211772E+04</rscale>
<asrwt>0</asrwt>
<pdfrwt beam="1">  1        1 0.36728677E+00 0.12211772E+04</pdfrwt>
<pdfrwt beam="2">  1       -1 0.10374084E+00 0.12211772E+04</pdfrwt>
<totfact> 0.13996488E+00</totfact>
</mgrwt>
</event>
<event>
12    1  0.9321077E-008  0.7938931E+03  0.7818608E-02  0.9568899E-01
         -2   -1    0    0    0  501 -0.00000000000E+00  0.00000000000E+00  0.48590413740E+03  0.48590413740E+03  0.00000000000E+00 0.  1.
          2   -1    0    0  501    0  0.00000000000E+00 -0.00000000000E+00 -0.17044402390E+04  0.17044402390E+04  0.00000000000E+00 0. -1.
         23    2    1    2    0    0  0.39907583571E+02  0.70210066082E+03 -0.64257835089E+02  0.71151904082E+03  0.87133936720E+02 0.  0.
    5000000    2    1    2    0    0 -0.39907583571E+02 -0.70210066082E+03 -0.11542782665E+04  0.14788253356E+04  0.60002341914E+03 0.  0.
         23    2    4    4    0    0 -0.23615116511E+03 -0.12693632423E+03 -0.53952084386E+03  0.60975225113E+03  0.93993955103E+02 0.  0.
         23    2    4    4    0    0  0.19624358154E+03 -0.57516433658E+03 -0.61475742266E+03  0.86907308448E+03  0.89642512701E+02 0.  0.
          4    1    3    3  502    0 -0.15712067319E+02  0.17241892724E+03  0.11736679605E+02  0.17353070385E+03  0.00000000000E+00 0. -1.
         -4    1    3    3    0  502  0.55619650889E+02  0.52968173358E+03 -0.75994514695E+02  0.53798833697E+03  0.00000000000E+00 0.  1.
         15    1    5    5    0    0 -0.15595162750E+03 -0.97806038776E+02 -0.44934546579E+03  0.48559390101E+03  0.17770000000E+01 0. -1.
        -15    1    5    5    0    0 -0.80199537613E+02 -0.29130285459E+02 -0.90175378070E+02  0.12415835012E+03  0.17770000000E+01 0.  1.
          3    1    6    6  503    0  0.79864580273E+02 -0.13066317695E+03 -0.12670777593E+03  0.19876135810E+03  0.00000000000E+00 0. -1.
         -3    1    6    6    0  503  0.11637900127E+03 -0.44450115964E+03 -0.48804964673E+03  0.67031172639E+03  0.00000000000E+00 0.  1.
<mgrwt>
<rscale>  0 0.79389307E+03</rscale>
<asrwt>0</asrwt>
<pdfrwt beam="1">  1        2 0.26222157E+00 0.79389307E+03</pdfrwt>
<pdfrwt beam="2">  1       -2 0.74754484E-01 0.79389307E+03</pdfrwt>
<totfact> 0.16035500E+01</totfact>
</mgrwt>
</event>
<event>
12    1  0.9321077E-008  0.1794004E+04  0.7818608E-02  0.8709494E-01
         -1   -1    0    0    0  501 -0.00000000000E+00  0.00000000000E+00  0.10067628915E+04  0.10067628915E+04  0.00000000000E+00 0.  1.
          1   -1    0    0  501    0  0.00000000000E+00 -0.00000000000E+00 -0.34426284061E+04  0.34426284061E+04  0.00000000000E+00 0. -1.
         23    2    1    2    0    0 -0.88084036694E+03  0.15419353216E+04 -0.16190033962E+04  0.24047307275E+04  0.90075451313E+02 0.  0.
    5000000    2    1    2    0    0  0.88084036694E+03 -0.15419353216E+04 -0.81686211847E+03  0.20446605701E+04  0.59994069568E+03 0.  0.
         23    2    4    4    0    0  0.65157963518E+03 -0.83438669820E+03 -0.21589034671E+03  0.10841689537E+04  0.89757981119E+02 0.  0.
         23    2    4    4    0    0  0.22926073176E+03 -0.70754862342E+03 -0.60097177176E+03  0.96049161645E+03  0.90507111351E+02 0.  0.
          1    1    3    3  502    0 -0.49798424960E+03  0.94245642929E+03 -0.93466248354E+03  0.14176764060E+04  0.00000000000E+00 0. -1.
         -1    1    3    3    0  502 -0.38285611734E+03  0.59947889232E+03 -0.68434091262E+03  0.98705432151E+03  0.00000000000E+00 0.  1.
         15    1    5    5    0    0  0.62266131086E+02 -0.12595297151E+03 -0.39163358429E+02  0.14587031393E+03  0.17770000000E+01 0.  1.
        -15    1    5    5    0    0  0.58931350409E+03 -0.70843372669E+03 -0.17672698828E+03  0.93829863974E+03  0.17770000000E+01 0. -1.
          2    1    6    6  503    0 -0.74419040128E+01 -0.34505858642E+02 -0.21242896272E+02  0.41198262802E+02  0.00000000000E+00 0.  1.
         -2    1    6    6    0  503  0.23670263578E+03 -0.67304276478E+03 -0.57972887548E+03  0.91929335365E+03  0.00000000000E+00 0. -1.
<mgrwt>
<rscale>  0 0.17940044E+04</rscale>
<asrwt>0</asrwt>
<pdfrwt beam="1">  1        1 0.52963514E+00 0.17940044E+04</pdfrwt>
<pdfrwt beam="2">  1       -1 0.15488660E+00 0.17940044E+04</pdfrwt>
<totfact> 0.81658876E-02</totfact>
</mgrwt>
</event>
<event>
12    1  0.9321077E-008  0.5730581E+03  0.7818608E-02  0.9962934E-01
          2   -1    0    0  501    0  0.00000000000E+00  0.00000000000E+00  0.26921937730E+04  0.26921937730E+04  0.00000000000E+00 0. -1.
         -2   -1    0    0    0  501 -0.00000000000E+00 -0.00000000000E+00 -0.16410240741E+03  0.16410240741E+03  0.00000000000E+00 0.  1.
         23    2    1    2    0    0 -0.15975210334E+03 -0.41673010578E+03  0.42120972147E+03  0.62064331472E+03  0.92713424391E+02 0.  0.
    5000000    2    1    2    0    0  0.15975210334E+03  0.41673010578E+03  0.21068816441E+04  0.22356528657E+04  0.60000729822E+03 0.  0.
         23    2    4    4    0    0 -0.68583239737E+02  0.43544690238E+03  0.17121716347E+04  0.17705825817E+04  0.95463639758E+02 0.  0.
         23    2    4    4    0    0  0.22833534308E+03 -0.18716796598E+02  0.39471000948E+03  0.46507028400E+03  0.89482009965E+02 0.  0.
          3    1    3    3  502    0 -0.10168110474E+03 -0.14878605858E+03  0.14310939673E+03  0.23012309254E+03  0.00000000000E+00 0. -1.
         -3    1    3    3    0  502 -0.58070998593E+02 -0.26794404720E+03  0.27810032475E+03  0.39052022218E+03  0.00000000000E+00 0.  1.
         15    1    5    5    0    0 -0.41197871100E+02  0.68980959350E+02  0.23408086383E+03  0.24749271883E+03  0.17770000000E+01 0. -1.
        -15    1    5    5    0    0 -0.27385368637E+02  0.36646594303E+03  0.14780907708E+04  0.15230898629E+04  0.17770000000E+01 0.  1.
          3    1    6    6  503    0  0.11444286960E+03 -0.51306716742E+02  0.23301776339E+03  0.26462582572E+03  0.00000000000E+00 0. -1.
         -3    1    6    6    0  503  0.11389247348E+03  0.32589920144E+02  0.16169224609E+03  0.20044445828E+03  0.00000000000E+00 0.  1.
<mgrwt>
<rscale>  0 0.57305812E+03</rscale>
<asrwt>0</asrwt>
<pdfrwt beam="1">  1        2 0.41418363E+00 0.57305812E+03</pdfrwt>
<pdfrwt beam="2">  1       -2 0.25246526E-01 0.57305812E+03</pdfrwt>
<totfact> 0.40733693E+01</totfact>
</mgrwt>
</event>
<event>
12    1  0.9321077E-008  0.1755509E+04  0.7818608E-02  0.8730324E-01
         -2   -1    0    0    0  501 -0.00000000000E+00  0.00000000000E+00  0.20412767184E+04  0.20412767184E+04  0.00000000000E+00 0.  1.
          2   -1    0    0  501    0  0.00000000000E+00 -0.00000000000E+00 -0.23212557740E+04  0.23212557740E+04  0.00000000000E+00 0. -1.
         23    2    1    2    0    0  0.10746230028E+04  0.13805728306E+04 -0.13625634634E+04  0.22194147237E+04  0.91796432557E+02 0.  0.
    5000000    2    1    2    0    0 -0.10746230028E+04 -0.13805728306E+04  0.10825844078E+04  0.21431177688E+04  0.60014067681E+03 0.  0.
         23    2    4    4    0    0 -0.82314633571E+03 -0.11762154074E+04  0.60872649882E+03  0.15618916195E+04  0.88909539486E+02 0.  0.
         23    2    4    4    0    0 -0.25147666712E+03 -0.20435742326E+03  0.47385790895E+03  0.58122614925E+03  0.90994769927E+02 0.  0.
          3    1    3    3  502    0  0.51419363931E+03  0.66945463448E+03 -0.71518437831E+03  0.11063694235E+04  0.00000000000E+00 0. -1.
         -3    1    3    3    0  502  0.56042936351E+03  0.71111819615E+03 -0.64737908505E+03  0.11130453001E+04  0.00000000000E+00 0.  1.
         15    1    5    5    0    0 -0.77158232037E+03 -0.11044710326E+04  0.59348400388E+03  0.14722166823E+04  0.17770000000E+01 0. -1.
        -15    1    5    5    0    0 -0.51564015341E+02 -0.71744374754E+02  0.15242494946E+02  0.89674937235E+02  0.17770000000E+01 0.  1.
          2    1    6    6  503    0 -0.22221590493E+03 -0.16505042101E+03  0.33848350259E+03  0.43725579630E+03  0.00000000000E+00 0.  1.
         -2    1    6    6    0  503 -0.29260762189E+02 -0.39307002258E+02  0.13537440637E+03  0.14397035295E+03  0.00000000000E+00 0. -1.
<mgrwt>
<rscale>  0 0.17555092E+04</rscale>
<asrwt>0</asrwt>
<pdfrwt beam="1">  1        2 0.35711627E+00 0.17555092E+04</pdfrwt>
<pdfrwt beam="2">  1       -2 0.31404257E+00 0.17555092E+04</pdfrwt>
<totfact> 0.10453270E-01</totfact>
</mgrwt>
</event>
<event>
12    1  0.9321077E-008  0.6259277E+03  0.7818608E-02  0.9853028E-01
         -1   -1    0    0    0  501 -0.00000000000E+00  0.00000000000E+00  0.12824004016E+04  0.12824004016E+04  0.00000000000E+00 0.  1.
          1   -1    0    0  501    0  0.00000000000E+00 -0.00000000000E+00 -0.49785324225E+03  0.49785324225E+03  0.00000000000E+00 0. -1.
         23    2    1    2    0    0 -0.44965183887E+03  0.27864368780E+03 -0.14306157426E+03  0.55546483284E+03  0.90804655933E+02 0.  0.
    5000000    2    1    2    0    0  0.44965183887E+03 -0.27864368780E+03  0.92760873359E+03  0.12247888110E+04  0.59985047130E+03 0.  0.
         23    2    4    4    0    0  0.27171035752E+03 -0.39444282366E+03  0.85191507234E+03  0.98163856412E+03  0.91887543111E+02 0.  0.
         23    2    4    4    0    0  0.17794148136E+03  0.11579913587E+03  0.75693661255E+02  0.24315024686E+03  0.91213494276E+02 0.  0.
          4    1    3    3  502    0 -0.16866016237E+02  0.34122559677E+02 -0.21560644972E+02  0.43745548279E+02  0.00000000000E+00 0. -1.
         -4    1    3    3    0  502 -0.43278582264E+03  0.24452112812E+03 -0.12150092929E+03  0.51171928456E+03  0.00000000000E+00 0.  1.
         15    1    5    5    0    0  0.11060848568E+03 -0.23193531214E+03  0.40719048415E+03  0.48149296385E+03  0.17770000000E+01 0.  1.
        -15    1    5    5    0    0  0.16110187184E+03 -0.16250751153E+03  0.44472458818E+03  0.50014560028E+03  0.17770000000E+01 0. -1.
          4    1    6    6  503    0  0.14275408184E+03  0.41450042807E+02  0.53084760594E+02  0.15784430854E+03  0.00000000000E+00 0. -1.
         -4    1    6    6    0  503  0.35187399517E+02  0.74349093059E+02  0.22608900661E+02  0.85305938320E+02  0.00000000000E+00 0.  1.
<mgrwt>
<rscale>  0 0.62592773E+03</rscale>
<asrwt>0</asrwt>
<pdfrwt beam="1">  1        1 0.76592807E-01 0.62592773E+03</pdfrwt>
<pdfrwt beam="2">  1       -1 0.19729237E+00 0.62592773E+03</pdfrwt>
<totfact> 0.73736936E+00</totfact>
</mgrwt>
</event>
<event>
12    1  0.9321077E-008  0.3901452E+03  0.7818608E-02  0.1047246E+00
         -2   -1    0    0    0  501 -0.00000000000E+00  0.00000000000E+00  0.16087486653E+03  0.16087486653E+03  0.00000000000E+00 0. -1.
          2   -1    0    0  501    0  0.00000000000E+00 -0.00000000000E+00 -0.13402223749E+04  0.13402223749E+04  0.00000000000E+00 0.  1.
         23    2    1    2    0    0 -0.16958427350E+03  0.63355976960E+02 -0.64890482889E+03  0.68006731683E+03  0.92958446771E+02 0.  0.
    5000000    2    1    2    0    0  0.16958427350E+03 -0.63355976960E+02 -0.53044267951E+03  0.82102992464E+03  0.59995657782E+03 0.  0.
         23    2    4    4    0    0 -0.19828829017E+03 -0.64900138959E+02 -0.30860327314E+03  0.38120851657E+03  0.80954795162E+02 0.  0.
         23    2    4    4    0    0  0.36787256367E+03  0.15441619987E+01 -0.22183940637E+03  0.43982140807E+03  0.94326778998E+02 0.  0.
          4    1    3    3  502    0 -0.61879610641E+02 -0.18848526106E+02 -0.27081773404E+03  0.27843598586E+03  0.00000000000E+00 0. -1.
         -4    1    3    3    0  502 -0.10770466286E+03  0.82204503066E+02 -0.37808709485E+03  0.40163133097E+03  0.00000000000E+00 0.  1.
         15    1    5    5    0    0 -0.11302150032E+03 -0.36727579800E+02 -0.24126488374E+03  0.26895106712E+03  0.17770000000E+01 0. -1.
        -15    1    5    5    0    0 -0.85266789849E+02 -0.28172559159E+02 -0.67338389403E+02  0.11225744945E+03  0.17770000000E+01 0.  1.
          1    1    6    6  503    0  0.84938486021E+02 -0.21357833992E+02 -0.15627225118E+02  0.88965800425E+02  0.00000000000E+00 0. -1.
         -1    1    6    6    0  503  0.28293407765E+03  0.22901995991E+02 -0.20621218125E+03  0.35085560764E+03  0.00000000000E+00 0.  1.
<mgrwt>
<rscale>  0 0.39014520E+03</rscale>
<asrwt>0</asrwt>
<pdfrwt beam="1">  1        2 0.20618805E+00 0.39014520E+03</pdfrwt>
<pdfrwt beam="2">  1       -2 0.24749980E-01 0.39014520E+03</pdfrwt>
<totfact> 0.23904248E+02</totfact>
</mgrwt>
</event>
<event>
12    1  0.9321077E-008  0.5934907E+03  0.7818608E-02  0.9919004E-01
          2   -1    0    0  501    0  0.00000000000E+00  0.00000000000E+00  0.37460239271E+03  0.37460239271E+03  0.00000000000E+00 0. -1.
         -2   -1    0    0    0  501 -0.00000000000E+00 -0.00000000000E+00 -0.13787266558E+04  0.13787266558E+04  0.00000000000E+00 0.  1.
         23    2    1    2    0    0 -0.52452723709E+03 -0.13170358233E+03 -0.13087513689E+03  0.56366922741E+03  0.90111266873E+02 0.  0.
    5000000    2    1    2    0    0  0.52452723709E+03  0.13170358233E+03 -0.87324912624E+03  0.11896598211E+04  0.60020979457E+03 0.  0.
         23    2    4    4    0    0  0.72733547153E+02 -0.78164266614E+02 -0.59568979654E+03  0.61210052220E+03  0.91765429827E+02 0.  0.
         23    2    4    4    0    0  0.45179368994E+03  0.20986784895E+03 -0.27755932970E+03  0.57755929894E+03  0.91506884988E+02 0.  0.
          2    1    3    3  502    0 -0.28396532876E+03 -0.11712195680E+03 -0.68236400457E+02  0.31465865164E+03  0.00000000000E+00 0. -1.
         -2    1    3    3    0  502 -0.24056190833E+03 -0.14581625537E+02 -0.62638736432E+02  0.24901057577E+03  0.00000000000E+00 0.  1.
         15    1    5    5    0    0  0.72323787950E+02 -0.18009145750E+02 -0.23865128911E+03  0.25002530903E+03  0.17770000000E+01 0. -1.
        -15    1    5    5    0    0  0.40975920330E+00 -0.60155120863E+02 -0.35703850744E+03  0.36207521317E+03  0.17770000000E+01 0.  1.
          2    1    6    6  503    0  0.17627957242E+03  0.41207985285E+02 -0.72977396978E+02  0.19518782281E+03  0.00000000000E+00 0. -1.
         -2    1    6    6    0  503  0.27551411752E+03  0.16865986366E+03 -0.20458193272E+03  0.38237147613E+03  0.00000000000E+00 0.  1.
<mgrwt>
<rscale>  0 0.59349068E+03</rscale>
<asrwt>0</asrwt>
<pdfrwt beam="1">  1        2 0.57631137E-01 0.59349068E+03</pdfrwt>
<pdfrwt beam="2">  1       -2 0.21211180E+00 0.59349068E+03</pdfrwt>
<totfact> 0.98748043E+00</totfact>
</mgrwt>
</event>
<event>
12    1  0.9321077E-008  0.6865749E+03  0.7818608E-02  0.9740470E-01
          3   -1    0    0  501    0  0.00000000000E+00  0.00000000000E+00  0.27737190527E+03  0.27737190527E+03  0.00000000000E+00 0. -1.
         -3   -1    0    0    0  501 -0.00000000000E+00 -0.00000000000E+00 -0.19157467107E+04  0.19157467107E+04  0.00000000000E+00 0.  1.
         23    2    1    2    0    0 -0.47046434161E+03 -0.29678102642E+03 -0.10282474689E+04  0.11725460173E+04  0.90308531950E+02 0.  0.
    5000000    2    1    2    0    0  0.47046434161E+03  0.29678102642E+03 -0.61012733647E+03  0.10205725987E+04  0.59991448395E+03 0.  0.
         23    2    4    4    0    0  0.98107860672E+02 -0.16810735389E+03 -0.15941987425E+03  0.26747585669E+03  0.90793187265E+02 0.  0.
         23    2    4    4    0    0  0.37235648093E+03  0.46488838031E+03 -0.45070746223E+03  0.75309674196E+03  0.96160965106E+02 0.  0.
          1    1    3    3  502    0 -0.29364442710E+03 -0.19035872258E+03 -0.73383462049E+03  0.81300476201E+03  0.00000000000E+00 0. -1.
         -1    1    3    3    0  502 -0.17681991451E+03 -0.10642230384E+03 -0.29441284845E+03  0.35954125528E+03  0.00000000000E+00 0.  1.
         15    1    5    5    0    0  0.47255369974E+02 -0.15341336437E+03 -0.10679332763E+03  0.19281261087E+03  0.17770000000E+01 0.  1.
        -15    1    5    5    0    0  0.50852490698E+02 -0.14693989518E+02 -0.52626546620E+02  0.74663245819E+02  0.17770000000E+01 0. -1.
          2    1    6    6  503    0  0.28959453270E+03  0.28995247631E+03 -0.30829854706E+03  0.51282104677E+03  0.00000000000E+00 0. -1.
         -2    1    6    6    0  503  0.82761948236E+02  0.17493590400E+03 -0.14240891517E+03  0.24027569520E+03  0.00000000000E+00 0.  1.
<mgrwt>
<rscale>  0 0.68657490E+03</rscale>
<asrwt>0</asrwt>
<pdfrwt beam="1">  1        3 0.42672602E-01 0.68657490E+03</pdfrwt>
<pdfrwt beam="2">  1       -3 0.29473026E+00 0.68657490E+03</pdfrwt>
<totfact> 0.59460251E-01</totfact>
</mgrwt>
</event>
<event>
12    1  0.9321077E-008  0.5301423E+03  0.7818608E-02  0.1006198E+00
         -2   -1    0    0    0  501 -0.00000000000E+00  0.00000000000E+00  0.26560673777E+03  0.26560673777E+03  0.00000000000E+00 0.  1.
          2   -1    0    0  501    0  0.00000000000E+00 -0.00000000000E+00 -0.12284217566E+04  0.12284217566E+04  0.00000000000E+00 0. -1.
         23    2    1    2    0    0  0.77070082599E+02  0.38141634942E+03 -0.19125782499E+03  0.44215849876E+03  0.86639212674E+02 0.  0.
    5000000    2    1    2    0    0 -0.77070082599E+02 -0.38141634942E+03 -0.77155719383E+03  0.10518699956E+04  0.59975974776E+03 0.  0.
         23    2    4    4    0    0  0.21227413855E+03 -0.62280360771E+02 -0.13102806857E+03  0.27504268662E+03  0.97677896542E+02 0.  0.
         23    2    4    4    0    0 -0.28934422115E+03 -0.31913598865E+03 -0.64052912526E+03  0.77682730898E+03  0.87265400348E+02 0.  0.
          1    1    3    3  502    0  0.77413416610E+02  0.27180538900E+03 -0.17208145270E+03  0.33088220400E+03  0.00000000000E+00 0. -1.
         -1    1    3    3    0  502 -0.34333401082E+00  0.10961096041E+03 -0.19176372289E+02  0.11127629476E+03  0.00000000000E+00 0.  1.
         15    1    5    5    0    0  0.11801166368E+03 -0.45713928180E+01 -0.22705431865E+02  0.12027611884E+03  0.17770000000E+01 0. -1.
        -15    1    5    5    0    0  0.94262474869E+02 -0.57708967953E+02 -0.10832263671E+03  0.15476656778E+03  0.17770000000E+01 0.  1.
          2    1    6    6  503    0 -0.27792689265E+03 -0.26478221080E+03 -0.55339799979E+03  0.67350005419E+03  0.00000000000E+00 0.  1.
         -2    1    6    6    0  503 -0.11417328495E+02 -0.54353777849E+02 -0.87131125468E+02  0.10332725479E+03  0.00000000000E+00 0. -1.
<mgrwt>
<rscale>  0 0.53014228E+03</rscale>
<asrwt>0</asrwt>
<pdfrwt beam="1">  1        2 0.18898796E+00 0.53014228E+03</pdfrwt>
<pdfrwt beam="2">  1       -2 0.40862576E-01 0.53014228E+03</pdfrwt>
<totfact> 0.10709012E+02</totfact>
</mgrwt>
</event>
<event>
12    1  0.9321077E-008  0.5145105E+03  0.7818608E-02  0.1010059E+00
         -2   -1    0    0    0  501 -0.00000000000E+00  0.00000000000E+00  0.16128049775E+03  0.16128049775E+03  0.00000000000E+00 0.  1.
          2   -1    0    0  501    0  0.00000000000E+00 -0.00000000000E+00 -0.22334140363E+04  0.22334140363E+04  0.00000000000E+00 0. -1.
         23    2    1    2    0    0  0.36500170239E+03 -0.20452624828E+03 -0.10822537127E+04  0.11639441909E+04  0.91846350306E+02 0.  0.
    5000000    2    1    2    0    0 -0.36500170239E+03  0.20452624828E+03 -0.98987982590E+03  0.12307503431E+04  0.59985590638E+03 0.  0.
         23    2    4    4    0    0 -0.44656460293E+03  0.79884020929E+02 -0.38662243734E+03  0.60303981272E+03  0.91535267938E+02 0.  0.
         23    2    4    4    0    0  0.81562900543E+02  0.12464222735E+03 -0.60325738857E+03  0.62771053042E+03  0.88954154236E+02 0.  0.
          4    1    3    3  502    0  0.31491137265E+03 -0.16471888452E+03 -0.98845189876E+03  0.10503992763E+04  0.00000000000E+00 0. -1.
         -4    1    3    3    0  502  0.50090329741E+02 -0.39807363766E+02 -0.93801813907E+02  0.11354491462E+03  0.00000000000E+00 0.  1.
         15    1    5    5    0    0 -0.32095578360E+03  0.55097705092E+02 -0.32802576543E+03  0.46222552142E+03  0.17770000000E+01 0.  1.
        -15    1    5    5    0    0 -0.12560881933E+03  0.24786315837E+02 -0.58596671903E+02  0.14081429130E+03  0.17770000000E+01 0. -1.
          4    1    6    6  503    0  0.20377878489E+02  0.41238076538E+01 -0.19480654693E+02  0.28491395693E+02  0.00000000000E+00 0. -1.
         -4    1    6    6    0  503  0.61185022053E+02  0.12051841970E+03 -0.58377673387E+03  0.59921913473E+03  0.00000000000E+00 0.  1.
<mgrwt>
<rscale>  0 0.51451053E+03</rscale>
<asrwt>0</asrwt>
<pdfrwt beam="1">  1        2 0.34360215E+00 0.51451053E+03</pdfrwt>
<pdfrwt beam="2">  1       -2 0.24812385E-01 0.51451053E+03</pdfrwt>
<totfact> 0.76708574E+01</totfact>
</mgrwt>
</event>
<event>
12    1  0.9321077E-008  0.1074469E+04  0.7818608E-02  0.9230439E-01
         -2   -1    0    0    0  501 -0.00000000000E+00  0.00000000000E+00  0.15857826155E+04  0.15857826155E+04  0.00000000000E+00 0.  1.
          2   -1    0    0  501    0  0.00000000000E+00 -0.00000000000E+00 -0.92617001068E+03  0.92617001068E+03  0.00000000000E+00 0. -1.
         23    2    1    2    0    0 -0.55188700753E+03 -0.88348753700E+03 -0.15807602787E+03  0.10574332066E+04  0.89707629678E+02 0.  0.
    5000000    2    1    2    0    0  0.55188700753E+03  0.88348753700E+03  0.81768863266E+03  0.14545194195E+04  0.60156674165E+03 0.  0.
         23    2    4    4    0    0  0.10261136166E+02  0.27296283720E+03  0.49211432687E+03  0.57108964971E+03  0.96710267767E+02 0.  0.
         23    2    4    4    0    0  0.54162587136E+03  0.61052469980E+03  0.32557430580E+03  0.88342976981E+03  0.91381267208E+02 0.  0.
          2    1    3    3  502    0 -0.31041277395E+03 -0.57368039590E+03 -0.11409782230E+03  0.66218094198E+03  0.00000000000E+00 0. -1.
         -2    1    3    3    0  502 -0.24147423357E+03 -0.30980714110E+03 -0.43978205570E+02  0.39525226466E+03  0.00000000000E+00 0.  1.
         15    1    5    5    0    0 -0.32943089438E+02  0.17266140110E+03  0.25148112433E+03  0.30682750886E+03  0.17770000000E+01 0.  1.
        -15    1    5    5    0    0  0.43204225604E+02  0.10030143610E+03  0.24063320253E+03  0.26426214085E+03  0.17770000000E+01 0. -1.
          1    1    6    6  503    0  0.48087428428E+03  0.50668822158E+03  0.30101100900E+03  0.76064489659E+03  0.00000000000E+00 0. -1.
         -1    1    6    6    0  503  0.60751587078E+02  0.10383647822E+03  0.24563296803E+02  0.12278487322E+03  0.00000000000E+00 0.  1.
<mgrwt>
<rscale>  0 0.10744693E+04</rscale>
<asrwt>0</asrwt>
<pdfrwt beam="1">  1        2 0.14248769E+00 0.10744693E+04</pdfrwt>
<pdfrwt beam="2">  1       -2 0.24396656E+00 0.10744693E+04</pdfrwt>
<totfact> 0.19468496E+00</totfact>
</mgrwt>
</event>
<event>
12    1  0.9321077E-008  0.1483945E+04  0.7818608E-02  0.8895200E-01
          1   -1    0    0  501    0  0.00000000000E+00  0.00000000000E+00  0.25355494014E+04  0.25355494014E+04  0.00000000000E+00 0. -1.
         -1   -1    0    0    0  501 -0.00000000000E+00 -0.00000000000E+00 -0.91325720016E+03  0.91325720016E+03  0.00000000000E+00 0.  1.
         23    2    1    2    0    0  0.14523233332E+04 -0.86107330121E+01  0.96052884168E+03  0.17436449190E+04  0.91458946360E+02 0.  0.
    5000000    2    1    2    0    0 -0.14523233332E+04  0.86107330121E+01  0.66176335953E+03  0.17051616825E+04  0.60027361316E+03 0.  0.
         23    2    4    4    0    0 -0.13272657480E+04 -0.10870647735E+03  0.69974046012E+03  0.15071441714E+04  0.91626294959E+02 0.  0.
         23    2    4    4    0    0 -0.12505758527E+03  0.11731721036E+03 -0.37977100596E+02  0.19801751114E+03  0.91465551278E+02 0.  0.
          1    1    3    3  502    0  0.46655727600E+03  0.19430689206E+02  0.35289063699E+03  0.58530765000E+03  0.00000000000E+00 0. -1.
         -1    1    3    3    0  502  0.98576605722E+03 -0.28041422218E+02  0.60763820469E+03  0.11583372690E+04  0.00000000000E+00 0.  1.
         15    1    5    5    0    0 -0.44057623557E+03 -0.73366376276E+02  0.25929415319E+03  0.51645586464E+03  0.17770000000E+01 0.  1.
        -15    1    5    5    0    0 -0.88668951239E+03 -0.35340101074E+02  0.44044630694E+03  0.99068830676E+03  0.17770000000E+01 0. -1.
          1    1    6    6  503    0 -0.46030142800E+02  0.94290743034E+01 -0.43690135345E+02  0.64160029729E+02  0.00000000000E+00 0. -1.
         -1    1    6    6    0  503 -0.79027442466E+02  0.10788813606E+03  0.57130347484E+01  0.13385748142E+03  0.00000000000E+00 0.  1.
<mgrwt>
<rscale>  0 0.14839450E+04</rscale>
<asrwt>0</asrwt>
<pdfrwt beam="1">  1        1 0.39008452E+00 0.14839450E+04</pdfrwt>
<pdfrwt beam="2">  1       -1 0.14050111E+00 0.14839450E+04</pdfrwt>
<totfact> 0.50639122E-01</totfact>
</mgrwt>
</event>
<event>
12    1  0.9321077E-008  0.1000882E+04  0.7818608E-02  0.9307578E-01
         -2   -1    0    0    0  501 -0.00000000000E+00  0.00000000000E+00  0.18689342439E+04  0.18689342439E+04  0.00000000000E+00 0.  1.
          2   -1    0    0  501    0  0.00000000000E+00 -0.00000000000E+00 -0.83246171901E+03  0.83246171901E+03  0.00000000000E+00 0. -1.
         23    2    1    2    0    0 -0.93161952162E+03  0.11171222117E+02 -0.28396649138E+03  0.97756648293E+03  0.83423803891E+02 0.  0.
    5000000    2    1    2    0    0  0.93161952162E+03 -0.11171222117E+02  0.13204390163E+04  0.17238294800E+04  0.59999095916E+03 0.  0.
         23    2    4    4    0    0  0.88619801928E+03 -0.16674226512E+03  0.97587188725E+03  0.13316565646E+04  0.88506233280E+02 0.  0.
         23    2    4    4    0    0  0.45421502348E+02  0.15557104300E+03  0.34456712902E+03  0.39217291539E+03  0.93848957748E+02 0.  0.
          2    1    3    3  502    0 -0.19567179367E+03 -0.54235976632E-01 -0.95782415342E+02  0.21785712031E+03  0.00000000000E+00 0. -1.
         -2    1    3    3    0  502 -0.73594772795E+03  0.11225458093E+02 -0.18818407604E+03  0.75970936263E+03  0.00000000000E+00 0.  1.
         15    1    5    5    0    0  0.45114403550E+03 -0.12401113768E+03  0.47245491104E+03  0.66492593853E+03  0.17770000000E+01 0. -1.
        -15    1    5    5    0    0  0.43505398378E+03 -0.42731127434E+02  0.50341697622E+03  0.66673062606E+03  0.17770000000E+01 0.  1.
          1    1    6    6  503    0  0.12005004574E+02  0.95795797149E+02  0.28668981632E+03  0.30250951335E+03  0.00000000000E+00 0. -1.
         -1    1    6    6    0  503  0.33416497774E+02  0.59775245850E+02  0.57877312695E+02  0.89663402036E+02  0.00000000000E+00 0.  1.
<mgrwt>
<rscale>  0 0.10008821E+04</rscale>
<asrwt>0</asrwt>
<pdfrwt beam="1">  1        2 0.12807103E+00 0.10008821E+04</pdfrwt>
<pdfrwt beam="2">  1       -2 0.28752834E+00 0.10008821E+04</pdfrwt>
<totfact> 0.12399883E+00</totfact>
</mgrwt>
</event>
<event>
12    1  0.9321077E-008  0.9373050E+03  0.7818608E-02  0.9380113E-01
         -2   -1    0    0    0  501 -0.00000000000E+00  0.00000000000E+00  0.54771821885E+03  0.54771821885E+03  0.00000000000E+00 0.  1.
          2   -1    0    0  501    0  0.00000000000E+00 -0.00000000000E+00 -0.18985406221E+04  0.18985406221E+04  0.00000000000E+00 0. -1.
         23    2    1    2    0    0 -0.60666897891E+03 -0.65774007846E+03 -0.92041665861E+03  0.12861086263E+04  0.78989317763E+02 0.  0.
    5000000    2    1    2    0    0  0.60666897891E+03  0.65774007846E+03 -0.43040574463E+03  0.11601502147E+04  0.60002512850E+03 0.  0.
         23    2    4    4    0    0  0.46928282205E+03  0.24527855541E+03 -0.47043936001E+03  0.71431540398E+03  0.92441160201E+02 0.  0.
         23    2    4    4    0    0  0.13738615686E+03  0.41246152305E+03  0.40033615383E+02  0.44583481070E+03  0.90368821948E+02 0.  0.
          3    1    3    3  502    0 -0.15443937204E+03 -0.19362295731E+03 -0.21193761917E+03  0.32597380823E+03  0.00000000000E+00 0. -1.
         -3    1    3    3    0  502 -0.45222960687E+03 -0.46411712115E+03 -0.70847903943E+03  0.96013481803E+03  0.00000000000E+00 0.  1.
         15    1    5    5    0    0  0.16315956739E+03  0.13580624517E+03 -0.19325357183E+03  0.28707922497E+03  0.17770000000E+01 0.  1.
        -15    1    5    5    0    0  0.30612325465E+03  0.10947231024E+03 -0.27718578819E+03  0.42723617901E+03  0.17770000000E+01 0. -1.
          1    1    6    6  503    0  0.13362335885E+03  0.29331412136E+03  0.50167535587E+02  0.32619803409E+03  0.00000000000E+00 0. -1.
         -1    1    6    6    0  503  0.37627980055E+01  0.11914740169E+03 -0.10133920204E+02  0.11963677661E+03  0.00000000000E+00 0.  1.
<mgrwt>
<rscale>  0 0.93730504E+03</rscale>
<asrwt>0</asrwt>
<pdfrwt beam="1">  1        2 0.29208317E+00 0.93730504E+03</pdfrwt>
<pdfrwt beam="2">  1       -2 0.84264342E-01 0.93730504E+03</pdfrwt>
<totfact> 0.94219498E+00</totfact>
</mgrwt>
</event>
<event>
12    1  0.1842912E-007  0.7080529E+03  0.7818608E-02  0.9703559E-01
         -1   -1    0    0    0  501 -0.00000000000E+00  0.00000000000E+00  0.40105277367E+03  0.40105277367E+03  0.00000000000E+00 0.  1.
          1   -1    0    0  501    0  0.00000000000E+00 -0.00000000000E+00 -0.16605864383E+04  0.16605864383E+04  0.00000000000E+00 0. -1.
         23    2    1    2    0    0  0.63310030282E+03  0.30675832549E+03 -0.53649763737E+03  0.88799980769E+03  0.76139870419E+02 0.  0.
    5000000    2    1    2    0    0 -0.63310030282E+03 -0.30675832549E+03 -0.72303602731E+03  0.11736394043E+04  0.59977636742E+03 0.  0.
         23    2    4    4    0    0 -0.18957319690E+03 -0.97771480262E+02  0.65783164191E+02  0.24115209571E+03  0.91266912065E+02 0.  0.
         23    2    4    4    0    0 -0.44352710591E+03 -0.20898684523E+03 -0.78881919150E+03  0.93248730861E+03  0.83096742939E+02 0.  0.
          1    1    3    3  502    0  0.38191360269E+03  0.15318712742E+03 -0.28211592994E+03  0.49891251122E+03  0.00000000000E+00 0. -1.
         -1    1    3    3    0  502  0.25118670013E+03  0.15357119808E+03 -0.25438170743E+03  0.38908729647E+03  0.00000000000E+00 0.  1.
         15    1    5    5    0    0 -0.33771158145E+02 -0.22436407718E+02  0.54180703941E+02  0.67694829362E+02  0.17770000000E+01 0. -1.
        -15    1    5    5    0    0 -0.15580203876E+03 -0.75335072544E+02  0.11602460250E+02  0.17345726635E+03  0.17770000000E+01 0.  1.
          2    1    6    6  503    0 -0.20886079766E+03 -0.14182431021E+03 -0.37562827011E+03  0.45258542295E+03  0.00000000000E+00 0. -1.
         -2    1    6    6    0  503 -0.23466630825E+03 -0.67162535023E+02 -0.41319092139E+03  0.47990188566E+03  0.00000000000E+00 0.  1.
<mgrwt>
<rscale>  0 0.70805286E+03</rscale>
<asrwt>0</asrwt>
<pdfrwt beam="1">  1        1 0.25547484E+00 0.70805286E+03</pdfrwt>
<pdfrwt beam="2">  1       -1 0.61700426E-01 0.70805286E+03</pdfrwt>
<totfact> 0.14122023E+01</totfact>
</mgrwt>
</event>
<event>
12    1  0.9321077E-008  0.7677758E+03  0.7818608E-02  0.9607868E-01
          1   -1    0    0  501    0  0.00000000000E+00  0.00000000000E+00  0.30461057666E+04  0.30461057666E+04  0.00000000000E+00 0. -1.
         -1   -1    0    0    0  501 -0.00000000000E+00 -0.00000000000E+00 -0.35102374410E+03  0.35102374410E+03  0.00000000000E+00 0.  1.
         23    2    1    2    0    0  0.68218985316E+03 -0.21046687112E+02  0.16456829191E+03  0.70798844144E+03  0.91317860913E+02 0.  0.
    5000000    2    1    2    0    0 -0.68218985316E+03  0.21046687112E+02  0.25305137306E+04  0.26891410693E+04  0.60179231539E+03 0.  0.
         23    2    4    4    0    0 -0.30628349554E+03  0.25766956205E+03  0.78640260242E+03  0.88707755570E+03  0.90963475556E+02 0.  0.
         23    2    4    4    0    0 -0.37590635762E+03 -0.23662287494E+03  0.17441111282E+04  0.18020635136E+04  0.90627285304E+02 0.  0.
          3    1    3    3  502    0  0.30271224459E+03 -0.10434278889E+02  0.26556923539E+02  0.30405402051E+03  0.00000000000E+00 0. -1.
         -3    1    3    3    0  502  0.37947760857E+03 -0.10612408223E+02  0.13801136837E+03  0.40393442094E+03  0.00000000000E+00 0.  1.
         15    1    5    5    0    0 -0.22094825889E+03  0.21600380945E+03  0.52797912322E+03  0.61175231188E+03  0.17770000000E+01 0. -1.
        -15    1    5    5    0    0 -0.85335236654E+02  0.41665752595E+02  0.25842347920E+03  0.27532524382E+03  0.17770000000E+01 0.  1.
          1    1    6    6  503    0 -0.20608837984E+03 -0.16803646878E+03  0.90839438283E+03  0.94651414670E+03  0.00000000000E+00 0. -1.
         -1    1    6    6    0  503 -0.16981797777E+03 -0.68586406157E+02  0.83571674536E+03  0.85554936688E+03  0.00000000000E+00 0.  1.
<mgrwt>
<rscale>  0 0.76777580E+03</rscale>
<asrwt>0</asrwt>
<pdfrwt beam="1">  1        1 0.46863164E+00 0.76777580E+03</pdfrwt>
<pdfrwt beam="2">  1       -1 0.54003655E-01 0.76777580E+03</pdfrwt>
<totfact> 0.20515160E+00</totfact>
</mgrwt>
</event>
<event>
12    1  0.9321077E-008  0.1171823E+04  0.7818608E-02  0.9137884E-01
         -2   -1    0    0    0  501 -0.00000000000E+00  0.00000000000E+00  0.22583786049E+04  0.22583786049E+04  0.00000000000E+00 0.  1.
          2   -1    0    0  501    0  0.00000000000E+00 -0.00000000000E+00 -0.77870301047E+03  0.77870301047E+03  0.00000000000E+00 0. -1.
         23    2    1    2    0    0 -0.65105757555E+02 -0.10987789794E+04  0.13969426896E+04  0.17807833536E+04  0.90479108634E+02 0.  0.
    5000000    2    1    2    0    0  0.65105757555E+02  0.10987789794E+04  0.82732904769E+02  0.12562982617E+04  0.59990547881E+03 0.  0.
         23    2    4    4    0    0  0.27713616032E+03  0.89973717278E+03  0.98727871661E+02  0.95115270899E+03  0.92805451016E+02 0.  0.
         23    2    4    4    0    0 -0.21203040277E+03  0.19904180667E+03 -0.15994966893E+02  0.30514555273E+03  0.91013388475E+02 0.  0.
          1    1    3    3  502    0 -0.40373786299E+02 -0.32739751223E+03  0.36201035239E+03  0.48976593274E+03  0.00000000000E+00 0. -1.
         -1    1    3    3    0  502 -0.24731971256E+02 -0.77138146722E+03  0.10349323373E+04  0.12910174209E+04  0.00000000000E+00 0.  1.
         15    1    5    5    0    0  0.14187615242E+03  0.52895798665E+03  0.98633748903E+02  0.55646847927E+03  0.17770000000E+01 0.  1.
        -15    1    5    5    0    0  0.13526000790E+03  0.37077918612E+03  0.94122758254E-01  0.39468422972E+03  0.17770000000E+01 0. -1.
          3    1    6    6  503    0 -0.92835003271E+02  0.13639979285E+03 -0.36379830841E+02  0.16895778589E+03  0.00000000000E+00 0. -1.
         -3    1    6    6    0  503 -0.11919539950E+03  0.62642013821E+02  0.20384863948E+02  0.13618776683E+03  0.00000000000E+00 0.  1.
<mgrwt>
<rscale>  0 0.11718225E+04</rscale>
<asrwt>0</asrwt>
<pdfrwt beam="1">  1        2 0.11980046E+00 0.11718225E+04</pdfrwt>
<pdfrwt beam="2">  1       -2 0.34744286E+00 0.11718225E+04</pdfrwt>
<totfact> 0.56993562E-01</totfact>
</mgrwt>
</event>
<event>
12    1  0.9321077E-008  0.4151197E+03  0.7818608E-02  0.1038666E+00
          2   -1    0    0  501    0  0.00000000000E+00  0.00000000000E+00  0.13001952289E+04  0.13001952289E+04  0.00000000000E+00 0.  1.
         -2   -1    0    0    0  501 -0.00000000000E+00 -0.00000000000E+00 -0.24875461890E+03  0.24875461890E+03  0.00000000000E+00 0. -1.
         23    2    1    2    0    0  0.19725143773E+03  0.28741316576E+03  0.10544383664E+03  0.37575598934E+03  0.92518664628E+02 0.  0.
    5000000    2    1    2    0    0 -0.19725143773E+03 -0.28741316576E+03  0.94599677336E+03  0.11731938585E+04  0.59996622968E+03 0.  0.
         23    2    4    4    0    0  0.66374925463E+02 -0.34597501634E+02  0.72864061401E+03  0.73838003418E+03  0.93195024758E+02 0.  0.
         23    2    4    4    0    0 -0.26362636319E+03 -0.25281566412E+03  0.21735615935E+03  0.43481382427E+03  0.91677382004E+02 0.  0.
          3    1    3    3  502    0  0.63167859561E+02  0.61736512980E+02 -0.10189035516E+02  0.88912271151E+02  0.00000000000E+00 0. -1.
         -3    1    3    3    0  502  0.13408357817E+03  0.22567665278E+03  0.11563287215E+03  0.28684371819E+03  0.00000000000E+00 0.  1.
         15    1    5    5    0    0  0.15738262596E+02 -0.56633019269E+02  0.48505227243E+03  0.48860398739E+03  0.17770000000E+01 0. -1.
        -15    1    5    5    0    0  0.50636662867E+02  0.22035517635E+02  0.24358834159E+03  0.24977604679E+03  0.17770000000E+01 0.  1.
          1    1    6    6  503    0 -0.77172615653E+02 -0.68916981952E+02  0.11214966817E+03  0.15258673297E+03  0.00000000000E+00 0. -1.
         -1    1    6    6    0  503 -0.18645374754E+03 -0.18389868217E+03  0.10520649118E+03  0.28222709130E+03  0.00000000000E+00 0.  1.
<mgrwt>
<rscale>  0 0.41511968E+03</rscale>
<asrwt>0</asrwt>
<pdfrwt beam="1">  1        2 0.20003003E+00 0.41511968E+03</pdfrwt>
<pdfrwt beam="2">  1       -2 0.38269942E-01 0.41511968E+03</pdfrwt>
<totfact> 0.11222930E+02</totfact>
</mgrwt>
</event>
<event>
12    1  0.9321077E-008  0.5156287E+03  0.7818608E-02  0.1009778E+00
          1   -1    0    0  501    0  0.00000000000E+00  0.00000000000E+00  0.56250669943E+03  0.56250669943E+03  0.00000000000E+00 0. -1.
         -1   -1    0    0    0  501 -0.00000000000E+00 -0.00000000000E+00 -0.52744032934E+03  0.52744032934E+03  0.00000000000E+00 0.  1.
         23    2    1    2    0    0  0.10869892352E+03  0.34201835988E+03 -0.87287798159E+02  0.38062534194E+03  0.92002590971E+02 0.  0.
    5000000    2    1    2    0    0 -0.10869892352E+03 -0.34201835988E+03  0.12235416826E+03  0.70932168684E+03  0.59947868891E+03 0.  0.
         23    2    4    4    0    0 -0.32745784920E+03 -0.12136735341E+03  0.13677152012E+03  0.38551776665E+03  0.89212231281E+02 0.  0.
         23    2    4    4    0    0  0.21875892568E+03 -0.22065100647E+03 -0.14417351866E+02  0.32380392018E+03  0.89993246791E+02 0.  0.
          1    1    3    3  502    0  0.70672506379E+02  0.21828161966E+03 -0.10054342762E+03  0.25050039816E+03  0.00000000000E+00 0. -1.
         -1    1    3    3    0  502  0.38026417142E+02  0.12373674022E+03  0.13255629459E+02  0.13012494378E+03  0.00000000000E+00 0.  1.
         15    1    5    5    0    0 -0.14942673073E+03 -0.58709476600E+02  0.11061116471E+03  0.19496958221E+03  0.17770000000E+01 0. -1.
        -15    1    5    5    0    0 -0.17803111847E+03 -0.62657876812E+02  0.26160355417E+02  0.19054818445E+03  0.17770000000E+01 0.  1.
          3    1    6    6  503    0  0.13164930265E+03 -0.70133843331E+02  0.14756074569E+01  0.14917262579E+03  0.00000000000E+00 0. -1.
         -3    1    6    6    0  503  0.87109623037E+02 -0.15051716314E+03 -0.15892959323E+02  0.17463129439E+03  0.00000000000E+00 0.  1.
<mgrwt>
<rscale>  0 0.51562867E+03</rscale>
<asrwt>0</asrwt>
<pdfrwt beam="1">  1        1 0.86539492E-01 0.51562867E+03</pdfrwt>
<pdfrwt beam="2">  1       -1 0.81144666E-01 0.51562867E+03</pdfrwt>
<totfact> 0.59399320E+01</totfact>
</mgrwt>
</event>
<event>
12    1  0.9321077E-008  0.6226165E+03  0.7818608E-02  0.9859564E-01
          2   -1    0    0  501    0  0.00000000000E+00  0.00000000000E+00  0.80417245750E+03  0.80417245750E+03  0.00000000000E+00 0. -1.
         -2   -1    0    0    0  501 -0.00000000000E+00 -0.00000000000E+00 -0.66643449914E+03  0.66643449914E+03  0.00000000000E+00 0.  1.
         23    2    1    2    0    0  0.48682410143E+03  0.24944291555E+03 -0.20271014017E+03  0.59018220049E+03  0.89465943222E+02 0.  0.
    5000000    2    1    2    0    0 -0.48682410143E+03 -0.24944291555E+03  0.34044809852E+03  0.88042475615E+03  0.60001947436E+03 0.  0.
         23    2    4    4    0    0 -0.19378057417E+03  0.11062607168E+03 -0.72166980023E+02  0.25258060339E+03  0.93807513246E+02 0.  0.
         23    2    4    4    0    0 -0.29304352726E+03 -0.36006898723E+03  0.41261507854E+03  0.62784415276E+03  0.91721822285E+02 0.  0.
          3    1    3    3  502    0  0.18586739149E+03  0.68375844297E+02 -0.11162474348E+03  0.22733681325E+03  0.00000000000E+00 0. -1.
         -3    1    3    3    0  502  0.30095670994E+03  0.18106707125E+03 -0.91085396688E+02  0.36284538724E+03  0.00000000000E+00 0.  1.
         15    1    5    5    0    0 -0.16997076200E+03  0.88495006661E+02 -0.22164557710E+02  0.19291410391E+03  0.17770000000E+01 0. -1.
        -15    1    5    5    0    0 -0.23809812175E+02  0.22131065020E+02 -0.50002422313E+02  0.59666499486E+02  0.17770000000E+01 0.  1.
          4    1    6    6  503    0 -0.38663989178E+02 -0.10343226809E+03  0.11807380526E+03  0.16166187438E+03  0.00000000000E+00 0.  1.
         -4    1    6    6    0  503 -0.25437953808E+03 -0.25663671914E+03  0.29454127329E+03  0.46618227838E+03  0.00000000000E+00 0. -1.
<mgrwt>
<rscale>  0 0.62261655E+03</rscale>
<asrwt>0</asrwt>
<pdfrwt beam="1">  1        2 0.12371884E+00 0.62261655E+03</pdfrwt>
<pdfrwt beam="2">  1       -2 0.10252838E+00 0.62261655E+03</pdfrwt>
<totfact> 0.27350438E+01</totfact>
</mgrwt>
</event>
<event>
12    1  0.9321077E-008  0.8658275E+03  0.7818608E-02  0.9469337E-01
         -1   -1    0    0    0  501 -0.00000000000E+00  0.00000000000E+00  0.37469229434E+03  0.37469229434E+03  0.00000000000E+00 0.  1.
          1   -1    0    0  501    0  0.00000000000E+00 -0.00000000000E+00 -0.22231507206E+04  0.22231507206E+04  0.00000000000E+00 0. -1.
         23    2    1    2    0    0  0.62337551914E+03  0.51965551637E+03 -0.81530541835E+03  0.11535497018E+04  0.85528332783E+02 0.  0.
    5000000    2    1    2    0    0 -0.62337551914E+03 -0.51965551637E+03 -0.10331530079E+04  0.14442933132E+04  0.59994928385E+03 0.  0.
         23    2    4    4    0    0 -0.53069404520E+03 -0.57609047621E+03 -0.60614937526E+03  0.99431070784E+03  0.87865307196E+02 0.  0.
         23    2    4    4    0    0 -0.92681473941E+02  0.56434959840E+02 -0.42700363268E+03  0.44998260536E+03  0.91528588453E+02 0.  0.
          2    1    3    3  502    0  0.23202813563E+03  0.15956200195E+03 -0.32731247029E+03  0.43177603152E+03  0.00000000000E+00 0. -1.
         -2    1    3    3    0  502  0.39134738351E+03  0.36009351442E+03 -0.48799294807E+03  0.72177367026E+03  0.00000000000E+00 0.  1.
         15    1    5    5    0    0 -0.31279850791E+03 -0.37057014755E+03 -0.42086586857E+03  0.64210308975E+03  0.17770000000E+01 0.  1.
        -15    1    5    5    0    0 -0.21789553729E+03 -0.20552032865E+03 -0.18528350669E+03  0.35220761809E+03  0.17770000000E+01 0. -1.
          2    1    6    6  503    0 -0.81637344713E+02  0.75851591586E+02 -0.28116518263E+03  0.30244334994E+03  0.00000000000E+00 0. -1.
         -2    1    6    6    0  503 -0.11044129228E+02 -0.19416631747E+02 -0.14583845005E+03  0.14753925543E+03  0.00000000000E+00 0.  1.
<mgrwt>
<rscale>  0 0.86582753E+03</rscale>
<asrwt>0</asrwt>
<pdfrwt beam="1">  1        1 0.34202319E+00 0.86582753E+03</pdfrwt>
<pdfrwt beam="2">  1       -1 0.57644969E-01 0.86582753E+03</pdfrwt>
<totfact> 0.66138172E+00</totfact>
</mgrwt>
</event>
<event>
12    1  0.9321077E-008  0.1281336E+04  0.7818608E-02  0.9044498E-01
         -2   -1    0    0    0  501 -0.00000000000E+00  0.00000000000E+00  0.95911719781E+03  0.95911719781E+03  0.00000000000E+00 0.  1.
          2   -1    0    0  501    0  0.00000000000E+00 -0.00000000000E+00 -0.19008509942E+04  0.19008509942E+04  0.00000000000E+00 0. -1.
         23    2    1    2    0    0 -0.36341599603E+03 -0.11751769730E+04 -0.66319736333E+02  0.12353406430E+04  0.92499150494E+02 0.  0.
    5000000    2    1    2    0    0  0.36341599603E+03  0.11751769730E+04 -0.87541406006E+03  0.16246275490E+04  0.59996065914E+03 0.  0.
         23    2    4    4    0    0  0.25920540558E+03  0.17217068971E+03 -0.37344795064E+03  0.49456902360E+03  0.91131545519E+02 0.  0.
         23    2    4    4    0    0  0.10421059045E+03  0.10030062833E+04 -0.50196610943E+03  0.11300585254E+04  0.90448020731E+02 0.  0.
          3    1    3    3  502    0 -0.30595525526E+03 -0.88142815599E+03 -0.73781580131E+02  0.93593158615E+03  0.00000000000E+00 0. -1.
         -3    1    3    3    0  502 -0.57460740774E+02 -0.29374881698E+03  0.74618437986E+01  0.29940905684E+03  0.00000000000E+00 0.  1.
         15    1    5    5    0    0  0.55397176781E+02  0.73330738958E+02 -0.15298865728E+03  0.17847949871E+03  0.17770000000E+01 0. -1.
        -15    1    5    5    0    0  0.20380822880E+03  0.98839950748E+02 -0.22045929335E+03  0.31608952489E+03  0.17770000000E+01 0.  1.
          2    1    6    6  503    0  0.61448308647E+02  0.87043573707E+03 -0.41976976269E+03  0.96831860494E+03  0.00000000000E+00 0. -1.
         -2    1    6    6    0  503  0.42762281802E+02  0.13257054619E+03 -0.82196346731E+02  0.16173992048E+03  0.00000000000E+00 0.  1.
<mgrwt>
<rscale>  0 0.12813360E+04</rscale>
<asrwt>0</asrwt>
<pdfrwt beam="1">  1        2 0.29243861E+00 0.12813360E+04</pdfrwt>
<pdfrwt beam="2">  1       -2 0.14755650E+00 0.12813360E+04</pdfrwt>
<totfact> 0.22899026E+00</totfact>
</mgrwt>
</event>
<event>
12    1  0.9321077E-008  0.6020385E+03  0.7818608E-02  0.9901186E-01
         -2   -1    0    0    0  501 -0.00000000000E+00  0.00000000000E+00  0.25544982103E+03  0.25544982103E+03  0.00000000000E+00 0.  1.
          2   -1    0    0  501    0  0.00000000000E+00 -0.00000000000E+00 -0.23433698062E+04  0.23433698062E+04  0.00000000000E+00 0. -1.
         23    2    1    2    0    0  0.47075538682E+03  0.26333254781E+03 -0.15111424762E+04  0.16070325927E+04  0.89707891082E+02 0.  0.
    5000000    2    1    2    0    0 -0.47075538682E+03 -0.26333254781E+03 -0.57677750898E+03  0.99178703452E+03  0.60001213490E+03 0.  0.
         23    2    4    4    0    0 -0.31440369107E+03  0.41056347871E+02 -0.18218515277E+02  0.33046593656E+03  0.91326426989E+02 0.  0.
         23    2    4    4    0    0 -0.15635169575E+03 -0.30438889568E+03 -0.55855899370E+03  0.66132109796E+03  0.90878999727E+02 0.  0.
          4    1    3    3  502    0  0.29422734039E+03  0.18824681579E+03 -0.86023437990E+03  0.92844481788E+03  0.00000000000E+00 0. -1.
         -4    1    3    3    0  502  0.17652804644E+03  0.75085732020E+02 -0.65090809627E+03  0.67858777481E+03  0.00000000000E+00 0.  1.
         15    1    5    5    0    0 -0.15632805711E+03  0.26868186690E+02  0.36139549632E+02  0.16269476228E+03  0.17770000000E+01 0. -1.
        -15    1    5    5    0    0 -0.15807563396E+03  0.14188161181E+02 -0.54358064909E+02  0.16777117428E+03  0.17770000000E+01 0.  1.
          2    1    6    6  503    0 -0.13433103796E+03 -0.21482195271E+03 -0.46732173721E+03  0.53158527556E+03  0.00000000000E+00 0. -1.
         -2    1    6    6    0  503 -0.22020657790E+02 -0.89566942966E+02 -0.91237256488E+02  0.12973582240E+03  0.00000000000E+00 0.  1.
<mgrwt>
<rscale>  0 0.60203853E+03</rscale>
<asrwt>0</asrwt>
<pdfrwt beam="1">  1        2 0.36051844E+00 0.60203853E+03</pdfrwt>
<pdfrwt beam="2">  1       -2 0.39299972E-01 0.60203853E+03</pdfrwt>
<totfact> 0.27929023E+01</totfact>
</mgrwt>
</event>
<event>
12    1  0.9321077E-008  0.5617677E+03  0.7818608E-02  0.9988063E-01
         -2   -1    0    0    0  501 -0.00000000000E+00  0.00000000000E+00  0.64858506786E+03  0.64858506786E+03  0.00000000000E+00 0.  1.
          2   -1    0    0  501    0  0.00000000000E+00 -0.00000000000E+00 -0.80129633131E+03  0.80129633131E+03  0.00000000000E+00 0. -1.
         23    2    1    2    0    0  0.46877762209E+03 -0.16737230879E+03  0.25893664052E+03  0.56844086385E+03  0.91164045352E+02 0.  0.
    5000000    2    1    2    0    0 -0.46877762209E+03  0.16737230879E+03 -0.41164790396E+03  0.88144053533E+03  0.59976451359E+03 0.  0.
         23    2    4    4    0    0 -0.10820163648E+03 -0.96263251518E+02  0.98234702448E+02  0.19719421844E+03  0.90891667885E+02 0.  0.
         23    2    4    4    0    0 -0.36057598561E+03  0.26363556031E+03 -0.50988260641E+03  0.68424631689E+03  0.93241620502E+02 0.  0.
          2    1    3    3  502    0  0.25127511575E+03 -0.13749439376E+03  0.15099783004E+03  0.32379659786E+03  0.00000000000E+00 0. -1.
         -2    1    3    3    0  502  0.21750250634E+03 -0.29877915031E+02  0.10793881048E+03  0.24464426599E+03  0.00000000000E+00 0.  1.
         15    1    5    5    0    0 -0.11974617622E+03 -0.63362376014E+02  0.71332751529E+02  0.15311909281E+03  0.17770000000E+01 0.  1.
        -15    1    5    5    0    0  0.11544539741E+02 -0.32900875504E+02  0.26901950919E+02  0.44075125627E+02  0.17770000000E+01 0. -1.
          3    1    6    6  503    0 -0.25284483767E+03  0.17293875071E+03 -0.28203885930E+03  0.41639433424E+03  0.00000000000E+00 0. -1.
         -3    1    6    6    0  503 -0.10773114793E+03  0.90696809597E+02 -0.22784374712E+03  0.26785198264E+03  0.00000000000E+00 0.  1.
<mgrwt>
<rscale>  0 0.56176773E+03</rscale>
<asrwt>0</asrwt>
<pdfrwt beam="1">  1        2 0.12327636E+00 0.56176773E+03</pdfrwt>
<pdfrwt beam="2">  1       -2 0.99782318E-01 0.56176773E+03</pdfrwt>
<totfact> 0.29512946E+01</totfact>
</mgrwt>
</event>
<event>
12    1  0.9321077E-008  0.1505208E+04  0.7818608E-02  0.8880997E-01
         -2   -1    0    0    0  501 -0.00000000000E+00  0.00000000000E+00  0.62387758461E+03  0.62387758461E+03  0.00000000000E+00 0.  1.
          2   -1    0    0  501    0  0.00000000000E+00 -0.00000000000E+00 -0.37742044527E+04  0.37742044527E+04  0.00000000000E+00 0. -1.
         23    2    1    2    0    0 -0.12133413137E+04 -0.78646966625E+03 -0.11041405742E+04  0.18215437664E+04  0.90352673821E+02 0.  0.
    5000000    2    1    2    0    0  0.12133413137E+04  0.78646966625E+03 -0.20461862938E+04  0.25765382709E+04  0.60078235060E+03 0.  0.
         23    2    4    4    0    0  0.17937264295E+03 -0.76293775609E+02 -0.25292673232E+03  0.33203308622E+03  0.90987654025E+02 0.  0.
         23    2    4    4    0    0  0.10339686708E+04  0.86276344186E+03 -0.17932595615E+04  0.22445051847E+04  0.92583477644E+02 0.  0.
          3    1    3    3  502    0 -0.19454251930E+03 -0.89961449288E+02 -0.17651757521E+03  0.27766582168E+03  0.00000000000E+00 0. -1.
         -3    1    3    3    0  502 -0.10187987944E+04 -0.69650821697E+03 -0.92762299901E+03  0.15438779447E+04  0.00000000000E+00 0.  1.
         15    1    5    5    0    0  0.17615581828E+03 -0.43020765534E+02 -0.20693910062E+03  0.27515197196E+03  0.17770000000E+01 0. -1.
        -15    1    5    5    0    0  0.32168246718E+01 -0.33273010075E+02 -0.45987631706E+02  0.56881114259E+02  0.17770000000E+01 0.  1.
          2    1    6    6  503    0  0.64839541133E+03  0.51805781818E+03 -0.10350666841E+04  0.13267115560E+04  0.00000000000E+00 0. -1.
         -2    1    6    6    0  503  0.38557325945E+03  0.34470562368E+03 -0.75819287745E+03  0.91779362866E+03  0.00000000000E+00 0.  1.
<mgrwt>
<rscale>  0 0.15052076E+04</rscale>
<asrwt>0</asrwt>
<pdfrwt beam="1">  1        2 0.58064685E+00 0.15052076E+04</pdfrwt>
<pdfrwt beam="2">  1       -2 0.95981166E-01 0.15052076E+04</pdfrwt>
<totfact> 0.45165992E-01</totfact>
</mgrwt>
</event>
<event>
12    1  0.9321077E-008  0.1374545E+04  0.7818608E-02  0.8972453E-01
          2   -1    0    0  501    0  0.00000000000E+00  0.00000000000E+00  0.25949452091E+04  0.25949452091E+04  0.00000000000E+00 0. -1.
         -2   -1    0    0    0  501 -0.00000000000E+00 -0.00000000000E+00 -0.78734388828E+03  0.78734388828E+03  0.00000000000E+00 0.  1.
         23    2    1    2    0    0  0.81572877437E+03  0.10335404961E+04  0.12888711605E+04  0.18451894982E+04  0.99579243420E+02 0.  0.
    5000000    2    1    2    0    0 -0.81572877437E+03 -0.10335404961E+04  0.51873016037E+03  0.15370995991E+04  0.59997900630E+03 0.  0.
         23    2    4    4    0    0 -0.41319397639E+03 -0.91488116638E+03  0.28169843517E+03  0.10466798716E+04  0.91912646266E+02 0.  0.
         23    2    4    4    0    0 -0.40253479799E+03 -0.11865932972E+03  0.23703172519E+03  0.49041972753E+03  0.90626542925E+02 0.  0.
          2    1    3    3  502    0  0.68492606320E+02  0.13816897843E+03  0.14916772640E+03  0.21455282408E+03  0.00000000000E+00 0. -1.
         -2    1    3    3    0  502  0.74723616806E+03  0.89537151767E+03  0.11397034341E+04  0.16306366742E+04  0.00000000000E+00 0.  1.
         15    1    5    5    0    0 -0.97844824783E+02 -0.29362060844E+03  0.57626420217E+02  0.31481841349E+03  0.17770000000E+01 0.  1.
        -15    1    5    5    0    0 -0.31534915160E+03 -0.62126055794E+03  0.22407201496E+03  0.73186145812E+03  0.17770000000E+01 0. -1.
          1    1    6    6  503    0 -0.26734115888E+03 -0.54660375112E+02  0.19390145578E+03  0.33474890051E+03  0.00000000000E+00 0. -1.
         -1    1    6    6    0  503 -0.13519363911E+03 -0.63998954607E+02  0.43130269416E+02  0.15567082702E+03  0.00000000000E+00 0.  1.
<mgrwt>
<rscale>  0 0.13745451E+04</rscale>
<asrwt>0</asrwt>
<pdfrwt beam="1">  1        2 0.39922233E+00 0.13745451E+04</pdfrwt>
<pdfrwt beam="2">  1       -2 0.12112983E+00 0.13745451E+04</pdfrwt>
<totfact> 0.15294842E+00</totfact>
</mgrwt>
</event>
<event>
12    1  0.9321077E-008  0.1329599E+04  0.7818608E-02  0.9006417E-01
          1   -1    0    0  501    0  0.00000000000E+00  0.00000000000E+00  0.95561426371E+03  0.95561426371E+03  0.00000000000E+00 0. -1.
         -1   -1    0    0    0  501 -0.00000000000E+00 -0.00000000000E+00 -0.19557334007E+04  0.19557334007E+04  0.00000000000E+00 0.  1.
         23    2    1    2    0    0  0.12842174960E+04 -0.18992935137E+03 -0.41043653985E+03  0.13644189234E+04  0.88843175258E+02 0.  0.
    5000000    2    1    2    0    0 -0.12842174960E+04  0.18992935137E+03 -0.58968259717E+03  0.15469287410E+04  0.59997935698E+03 0.  0.
         23    2    4    4    0    0 -0.11765261370E+04  0.27374140326E+03 -0.64484944280E+03  0.13722638661E+04  0.90162116382E+02 0.  0.
         23    2    4    4    0    0 -0.10769135899E+03 -0.83812051898E+02  0.55166845633E+02  0.17466487496E+03  0.94034827829E+02 0.  0.
          4    1    3    3  502    0  0.72535222507E+03 -0.67708411055E+02 -0.25117557788E+03  0.77059032583E+03  0.00000000000E+00 0. -1.
         -4    1    3    3    0  502  0.55886527095E+03 -0.12222094031E+03 -0.15926096197E+03  0.59382859760E+03  0.00000000000E+00 0.  1.
         15    1    5    5    0    0 -0.26888321941E+03  0.41544599042E+02 -0.18158591691E+03  0.32710967937E+03  0.17770000000E+01 0.  1.
        -15    1    5    5    0    0 -0.90764291762E+03  0.23219680422E+03 -0.46326352590E+03  0.10451541867E+04  0.17770000000E+01 0. -1.
          4    1    6    6  503    0 -0.11044533052E+03 -0.59995213319E+02  0.13262189835E+02  0.12638624267E+03  0.00000000000E+00 0. -1.
         -4    1    6    6    0  503  0.27539715352E+01 -0.23816838579E+02  0.41904655798E+02  0.48278632299E+02  0.00000000000E+00 0.  1.
<mgrwt>
<rscale>  0 0.13295988E+04</rscale>
<asrwt>0</asrwt>
<pdfrwt beam="1">  1        1 0.14701758E+00 0.13295988E+04</pdfrwt>
<pdfrwt beam="2">  1       -1 0.30088206E+00 0.13295988E+04</pdfrwt>
<totfact> 0.51871003E-01</totfact>
</mgrwt>
</event>
<event>
12    1  0.9321077E-008  0.7054659E+03  0.7818608E-02  0.9707930E-01
          2   -1    0    0  501    0  0.00000000000E+00  0.00000000000E+00  0.31008265252E+04  0.31008265252E+04  0.00000000000E+00 0. -1.
         -2   -1    0    0    0  501 -0.00000000000E+00 -0.00000000000E+00 -0.16892505558E+03  0.16892505558E+03  0.00000000000E+00 0.  1.
         23    2    1    2    0    0 -0.16869832540E+03  0.56946350830E+03  0.10778108944E+04  0.12325013139E+04  0.68083422053E+02 0.  0.
    5000000    2    1    2    0    0  0.16869832540E+03 -0.56946350830E+03  0.18540905752E+04  0.20372502669E+04  0.59999081373E+03 0.  0.
         23    2    4    4    0    0  0.26669017880E+03 -0.58914921692E+02  0.92914901286E+03  0.97200630687E+03  0.82968385733E+02 0.  0.
         23    2    4    4    0    0 -0.97991853400E+02 -0.51054858661E+03  0.92494156236E+03  0.10652439600E+04  0.94686524750E+02 0.  0.
          2    1    3    3  502    0 -0.88075994881E+02  0.18544510625E+03  0.35821709468E+03  0.41287619843E+03  0.00000000000E+00 0. -1.
         -2    1    3    3    0  502 -0.80622330517E+02  0.38401840205E+03  0.71959379976E+03  0.81962511549E+03  0.00000000000E+00 0.  1.
         15    1    5    5    0    0  0.96039713281E+02 -0.62759409551E+02  0.37366681050E+03  0.39088670099E+03  0.17770000000E+01 0. -1.
        -15    1    5    5    0    0  0.17065046552E+03  0.38444878584E+01  0.55548220235E+03  0.58111960587E+03  0.17770000000E+01 0.  1.
          1    1    6    6  503    0  0.17915684194E+02 -0.65827073206E+02  0.13770193885E+03  0.15367497932E+03  0.00000000000E+00 0. -1.
         -1    1    6    6    0  503 -0.11590753759E+03 -0.44472151340E+03  0.78723962351E+03  0.91156898071E+03  0.00000000000E+00 0.  1.
<mgrwt>
<rscale>  0 0.70546586E+03</rscale>
<asrwt>0</asrwt>
<pdfrwt beam="1">  1        2 0.47705019E+00 0.70546586E+03</pdfrwt>
<pdfrwt beam="2">  1       -2 0.25988472E-01 0.70546586E+03</pdfrwt>
<totfact> 0.21487719E+01</totfact>
</mgrwt>
</event>
<event>
12    1  0.9321077E-008  0.6655473E+03  0.7818608E-02  0.9778035E-01
         -2   -1    0    0    0  501 -0.00000000000E+00  0.00000000000E+00  0.49464788929E+03  0.49464788929E+03  0.00000000000E+00 0. -1.
          2   -1    0    0  501    0  0.00000000000E+00 -0.00000000000E+00 -0.32890947871E+04  0.32890947871E+04  0.00000000000E+00 0.  1.
         23    2    1    2    0    0 -0.40202149348E+03 -0.52354104830E+03 -0.28135576153E+04  0.28915041748E+04  0.94728178780E+02 0.  0.
    5000000    2    1    2    0    0  0.40202149348E+03  0.52354104830E+03  0.19110717561E+02  0.89223850151E+03  0.60000651127E+03 0.  0.
         23    2    4    4    0    0  0.65964723705E+02  0.57416209437E+02  0.23957661915E+03  0.27043476859E+03  0.89944659317E+02 0.  0.
         23    2    4    4    0    0  0.33605676977E+03  0.46612483887E+03 -0.22046590159E+03  0.62180373291E+03  0.88476836423E+02 0.  0.
          2    1    3    3  502    0 -0.20594157830E+03 -0.30838295184E+03 -0.17478102669E+04  0.17867156202E+04  0.00000000000E+00 0. -1.
         -2    1    3    3    0  502 -0.19607991518E+03 -0.21515809646E+03 -0.10657473485E+04  0.11047885546E+04  0.00000000000E+00 0.  1.
         15    1    5    5    0    0  0.61649958248E+02  0.49811113005E+02  0.24663150132E+03  0.25906006929E+03  0.17770000000E+01 0. -1.
        -15    1    5    5    0    0  0.43147654569E+01  0.76050964324E+01 -0.70548821683E+01  0.11374699297E+02  0.17770000000E+01 0.  1.
          2    1    6    6  503    0  0.27601398288E+02  0.92155520019E+02 -0.45630487871E+02  0.10647355766E+03  0.00000000000E+00 0.  1.
         -2    1    6    6    0  503  0.30845537149E+03  0.37396931885E+03 -0.17483541372E+03  0.51533017526E+03  0.00000000000E+00 0. -1.
<mgrwt>
<rscale>  0 0.66554730E+03</rscale>
<asrwt>0</asrwt>
<pdfrwt beam="1">  1        2 0.50601460E+00 0.66554730E+03</pdfrwt>
<pdfrwt beam="2">  1       -2 0.76099673E-01 0.66554730E+03</pdfrwt>
<totfact> 0.19268170E+00</totfact>
</mgrwt>
</event>
<event>
12    1  0.9321077E-008  0.5035114E+03  0.7818608E-02  0.1012866E+00
         -1   -1    0    0    0  501 -0.00000000000E+00  0.00000000000E+00  0.15228620758E+04  0.15228620758E+04  0.00000000000E+00 0.  1.
          1   -1    0    0  501    0  0.00000000000E+00 -0.00000000000E+00 -0.26465926957E+03  0.26465926957E+03  0.00000000000E+00 0. -1.
         23    2    1    2    0    0 -0.36230321791E+03 -0.58724485092E+02  0.37148821876E+02  0.37841735437E+03  0.84305825780E+02 0.  0.
    5000000    2    1    2    0    0  0.36230321791E+03  0.58724485092E+02  0.12210539843E+04  0.14091039910E+04  0.59990752443E+03 0.  0.
         23    2    4    4    0    0  0.15745878320E+03 -0.22959954501E+03  0.79686150197E+03  0.84909954105E+03  0.92046498115E+02 0.  0.
         23    2    4    4    0    0  0.20484443471E+03  0.28832403010E+03  0.42419248237E+03  0.56000444993E+03  0.92594454892E+02 0.  0.
          1    1    3    3  502    0 -0.25212230327E+03 -0.30590517181E+02 -0.12625635230E+02  0.25428496261E+03  0.00000000000E+00 0. -1.
         -1    1    3    3    0  502 -0.11018091465E+03 -0.28133967910E+02  0.49774457106E+02  0.12413239176E+03  0.00000000000E+00 0.  1.
         15    1    5    5    0    0  0.32168453295E+02 -0.98712527274E+02  0.20012765754E+03  0.22546221295E+03  0.17770000000E+01 0. -1.
        -15    1    5    5    0    0  0.12529032991E+03 -0.13088701773E+03  0.59673384443E+03  0.62363732810E+03  0.17770000000E+01 0.  1.
          4    1    6    6  503    0  0.88563590636E+02  0.10702165268E+03  0.10155061510E+03  0.17207460927E+03  0.00000000000E+00 0. -1.
         -4    1    6    6    0  503  0.11628084408E+03  0.18130237742E+03  0.32264186728E+03  0.38792984066E+03  0.00000000000E+00 0.  1.
<mgrwt>
<rscale>  0 0.50351142E+03</rscale>
<asrwt>0</asrwt>
<pdfrwt beam="1">  1        1 0.40716812E-01 0.50351142E+03</pdfrwt>
<pdfrwt beam="2">  1       -1 0.23428647E+00 0.50351142E+03</pdfrwt>
<totfact> 0.97869101E+00</totfact>
</mgrwt>
</event>
<event>
12    1  0.9321077E-008  0.1079252E+04  0.7818608E-02  0.9225654E-01
         -2   -1    0    0    0  501 -0.00000000000E+00  0.00000000000E+00  0.59712423270E+03  0.59712423270E+03  0.00000000000E+00 0.  1.
          2   -1    0    0  501    0  0.00000000000E+00 -0.00000000000E+00 -0.23503941245E+04  0.23503941245E+04  0.00000000000E+00 0. -1.
         23    2    1    2    0    0  0.90524168169E+03 -0.45346465464E+03 -0.13774665396E+04  0.17120875262E+04  0.93471570218E+02 0.  0.
    5000000    2    1    2    0    0 -0.90524168169E+03  0.45346465464E+03 -0.37580335222E+03  0.12354308310E+04  0.59997373557E+03 0.  0.
         23    2    4    4    0    0 -0.66382267403E+03  0.46799657926E+02 -0.99652098855E+02  0.68041749191E+03  0.10092904414E+03 0.  0.
         23    2    4    4    0    0 -0.24141900766E+03  0.40666499671E+03 -0.27615125337E+03  0.55501333910E+03  0.90115120955E+02 0.  0.
          3    1    3    3  502    0  0.49716905737E+03 -0.19738561402E+03 -0.73597984442E+03  0.90983761387E+03  0.00000000000E+00 0. -1.
         -3    1    3    3    0  502  0.40807262432E+03 -0.25607904062E+03 -0.64148669521E+03  0.80224991237E+03  0.00000000000E+00 0.  1.
         15    1    5    5    0    0 -0.19480318662E+03 -0.37487744066E+01 -0.72498108497E+02  0.20789773518E+03  0.17770000000E+01 0.  1.
        -15    1    5    5    0    0 -0.46901948740E+03  0.50548432333E+02 -0.27153990359E+02  0.47251975673E+03  0.17770000000E+01 0. -1.
          3    1    6    6  503    0 -0.21166751867E+03  0.32061696031E+03 -0.25629092573E+03  0.46182617109E+03  0.00000000000E+00 0. -1.
         -3    1    6    6    0  503 -0.29751488994E+02  0.86048036403E+02 -0.19860327643E+02  0.93187168002E+02  0.00000000000E+00 0.  1.
<mgrwt>
<rscale>  0 0.10792520E+04</rscale>
<asrwt>0</asrwt>
<pdfrwt beam="1">  1        2 0.36159909E+00 0.10792520E+04</pdfrwt>
<pdfrwt beam="2">  1       -2 0.91865268E-01 0.10792520E+04</pdfrwt>
<totfact> 0.42621367E+00</totfact>
</mgrwt>
</event>
<event>
12    1  0.9321077E-008  0.6128525E+03  0.7818608E-02  0.9879094E-01
          2   -1    0    0  501    0  0.00000000000E+00  0.00000000000E+00  0.33297221358E+04  0.33297221358E+04  0.00000000000E+00 0.  1.
         -2   -1    0    0    0  501 -0.00000000000E+00 -0.00000000000E+00 -0.13811317020E+03  0.13811317020E+03  0.00000000000E+00 0. -1.
         23    2    1    2    0    0 -0.20688182652E+03 -0.42401760802E+03  0.61459950554E+03  0.78017304523E+03  0.91358668162E+02 0.  0.
    5000000    2    1    2    0    0  0.20688182652E+03  0.42401760802E+03  0.25770094600E+04  0.26876622607E+04  0.59996637292E+03 0.  0.
         23    2    4    4    0    0 -0.17296111554E+03  0.28710124497E+03  0.12592077074E+04  0.13064416117E+04  0.94037024375E+02 0.  0.
         23    2    4    4    0    0  0.37984294206E+03  0.13691636305E+03  0.13178017526E+04  0.13812206491E+04  0.90234533770E+02 0.  0.
          3    1    3    3  502    0 -0.17256076328E+03 -0.27651903458E+03  0.37643643430E+03  0.49794013955E+03  0.00000000000E+00 0. -1.
         -3    1    3    3    0  502 -0.34321063243E+02 -0.14749857344E+03  0.23816307124E+03  0.28223290568E+03  0.00000000000E+00 0.  1.
         15    1    5    5    0    0 -0.12133347389E+03  0.25545780857E+03  0.11086314809E+04  0.11441361030E+04  0.17770000000E+01 0.  1.
        -15    1    5    5    0    0 -0.51627641654E+02  0.31643436400E+02  0.15057622647E+03  0.16230550871E+03  0.17770000000E+01 0. -1.
          4    1    6    6  503    0  0.21816810068E+03  0.94681161033E+02  0.62956595932E+03  0.67298970240E+03  0.00000000000E+00 0. -1.
         -4    1    6    6    0  503  0.16167484138E+03  0.42235202016E+02  0.68823579329E+03  0.70823094665E+03  0.00000000000E+00 0.  1.
<mgrwt>
<rscale>  0 0.61285245E+03</rscale>
<asrwt>0</asrwt>
<pdfrwt beam="1">  1        2 0.51226488E+00 0.61285245E+03</pdfrwt>
<pdfrwt beam="2">  1       -2 0.21248183E-01 0.61285245E+03</pdfrwt>
<totfact> 0.22406095E+01</totfact>
</mgrwt>
</event>
<event>
12    1  0.9321077E-008  0.3583276E+03  0.7818608E-02  0.1059248E+00
         -1   -1    0    0    0  501 -0.00000000000E+00  0.00000000000E+00  0.12950138302E+04  0.12950138302E+04  0.00000000000E+00 0.  1.
          1   -1    0    0  501    0  0.00000000000E+00 -0.00000000000E+00 -0.44605913321E+03  0.44605913321E+03  0.00000000000E+00 0. -1.
         23    2    1    2    0    0 -0.25685894972E+03  0.86454255424E+02  0.10210744802E+04  0.10605655958E+04  0.93570458118E+02 0.  0.
    5000000    2    1    2    0    0  0.25685894972E+03 -0.86454255424E+02 -0.17211978319E+03  0.68050736758E+03  0.60001183257E+03 0.  0.
         23    2    4    4    0    0  0.26579308650E+03  0.36439172789E+02  0.15238138315E+03  0.32102289337E+03  0.88666983670E+02 0.  0.
         23    2    4    4    0    0 -0.89341367798E+01 -0.12289342821E+03 -0.32450116634E+03  0.35948447421E+03  0.93517200232E+02 0.  0.
          3    1    3    3  502    0 -0.37335233347E+02  0.50368063886E+02  0.27329782359E+03  0.28039715028E+03  0.00000000000E+00 0. -1.
         -3    1    3    3    0  502 -0.21952371637E+03  0.36086191537E+02  0.74777665661E+03  0.78016844555E+03  0.00000000000E+00 0.  1.
         15    1    5    5    0    0  0.10495344162E+03 -0.27798742694E+02  0.47341998978E+02  0.11845850581E+03  0.17770000000E+01 0.  1.
        -15    1    5    5    0    0  0.16083964489E+03  0.64237915484E+02  0.10503938417E+03  0.20256438756E+03  0.17770000000E+01 0. -1.
          1    1    6    6  503    0  0.23709383897E+02 -0.12394709670E+01 -0.24511525385E+02  0.34124566661E+02  0.00000000000E+00 0. -1.
         -1    1    6    6    0  503 -0.32643520677E+02 -0.12165395725E+03 -0.29998964096E+03  0.32535990754E+03  0.00000000000E+00 0.  1.
<mgrwt>
<rscale>  0 0.35832760E+03</rscale>
<asrwt>0</asrwt>
<pdfrwt beam="1">  1        1 0.68624482E-01 0.35832760E+03</pdfrwt>
<pdfrwt beam="2">  1       -1 0.19923290E+00 0.35832760E+03</pdfrwt>
<totfact> 0.87653898E+00</totfact>
</mgrwt>
</event>
<event>
12    1  0.9321077E-008  0.1583930E+04  0.7818608E-02  0.8830482E-01
         -1   -1    0    0    0  501 -0.00000000000E+00  0.00000000000E+00  0.14328339806E+04  0.14328339806E+04  0.00000000000E+00 0.  1.
          1   -1    0    0  501    0  0.00000000000E+00 -0.00000000000E+00 -0.23743216008E+04  0.23743216008E+04  0.00000000000E+00 0. -1.
         23    2    1    2    0    0 -0.12016784087E+03  0.15590239405E+04  0.44921759084E+03  0.16302464088E+04  0.10445550600E+03 0.  0.
    5000000    2    1    2    0    0  0.12016784087E+03 -0.15590239405E+04 -0.13907052111E+04  0.21769091726E+04  0.59989716152E+03 0.  0.
         23    2    4    4    0    0 -0.76456534230E+02 -0.94992378009E+03 -0.11268501386E+04  0.14787950549E+04  0.94036109759E+02 0.  0.
         23    2    4    4    0    0  0.19662437510E+03 -0.60910016036E+03 -0.26385507254E+03  0.69811411766E+03  0.89886994229E+02 0.  0.
          1    1    3    3  502    0 -0.64676735717E+02  0.64512371395E+03  0.23762668893E+03  0.69053177315E+03  0.00000000000E+00 0. -1.
         -1    1    3    3    0  502 -0.55491105149E+02  0.91390022650E+03  0.21159090191E+03  0.93971463569E+03  0.00000000000E+00 0.  1.
         15    1    5    5    0    0 -0.58039903085E+02 -0.22234268662E+03 -0.27292802507E+03  0.35678812374E+03  0.17770000000E+01 0. -1.
        -15    1    5    5    0    0 -0.18416631144E+02 -0.72758109347E+03 -0.85392211351E+03  0.11220069312E+04  0.17770000000E+01 0.  1.
          2    1    6    6  503    0  0.15541316451E+02 -0.17850564058E+03 -0.70226344844E+02  0.19245138541E+03  0.00000000000E+00 0. -1.
         -2    1    6    6    0  503  0.18108305865E+03 -0.43059451979E+03 -0.19362872770E+03  0.50566273225E+03  0.00000000000E+00 0.  1.
<mgrwt>
<rscale>  0 0.15839300E+04</rscale>
<asrwt>0</asrwt>
<pdfrwt beam="1">  1        1 0.36528024E+00 0.15839300E+04</pdfrwt>
<pdfrwt beam="2">  1       -1 0.22043600E+00 0.15839300E+04</pdfrwt>
<totfact> 0.16908205E-01</totfact>
</mgrwt>
</event>
<event>
12    1  0.9321077E-008  0.1217465E+04  0.7818608E-02  0.9097705E-01
          1   -1    0    0  501    0  0.00000000000E+00  0.00000000000E+00  0.21656291357E+04  0.21656291357E+04  0.00000000000E+00 0. -1.
         -1   -1    0    0    0  501 -0.00000000000E+00 -0.00000000000E+00 -0.15698506266E+04  0.15698506266E+04  0.00000000000E+00 0.  1.
         23    2    1    2    0    0 -0.99813723664E+03  0.57251406725E+03 -0.11038645861E+04  0.15971388123E+04  0.91022310392E+02 0.  0.
    5000000    2    1    2    0    0  0.99813723664E+03 -0.57251406725E+03  0.16996430952E+04  0.21383409500E+04  0.59972082425E+03 0.  0.
         23    2    4    4    0    0  0.27810933114E+03  0.94917239822E+02  0.43226823222E+03  0.53209392948E+03  0.99569286024E+02 0.  0.
         23    2    4    4    0    0  0.72002790550E+03 -0.66743130707E+03  0.12673748630E+04  0.16062470205E+04  0.99426924328E+02 0.  0.
          4    1    3    3  502    0 -0.41112359208E+03  0.19442513646E+03 -0.39930303550E+03  0.60519968259E+03  0.00000000000E+00 0.  1.
         -4    1    3    3    0  502 -0.58701364455E+03  0.37808893079E+03 -0.70456155062E+03  0.99193912973E+03  0.00000000000E+00 0. -1.
         15    1    5    5    0    0  0.11386126184E+03  0.10702630722E+02  0.23832683689E+03  0.26435160707E+03  0.17770000000E+01 0.  1.
        -15    1    5    5    0    0  0.16424806930E+03  0.84214609100E+02  0.19394139533E+03  0.26774232240E+03  0.17770000000E+01 0. -1.
          1    1    6    6  503    0  0.23010715240E+03 -0.18346310769E+03  0.31638554164E+03  0.43209700812E+03  0.00000000000E+00 0. -1.
         -1    1    6    6    0  503  0.48992075310E+03 -0.48396819938E+03  0.95098932134E+03  0.11741500124E+04  0.00000000000E+00 0.  1.
<mgrwt>
<rscale>  0 0.12174652E+04</rscale>
<asrwt>0</asrwt>
<pdfrwt beam="1">  1        1 0.33317371E+00 0.12174652E+04</pdfrwt>
<pdfrwt beam="2">  1       -1 0.24151548E+00 0.12174652E+04</pdfrwt>
<totfact> 0.17871346E-01</totfact>
</mgrwt>
</event>
<event>
12    1  0.9321077E-008  0.4360651E+03  0.7818608E-02  0.1031961E+00
         -1   -1    0    0    0  501 -0.00000000000E+00  0.00000000000E+00  0.13025792053E+03  0.13025792053E+03  0.00000000000E+00 0.  1.
          1   -1    0    0  501    0  0.00000000000E+00 -0.00000000000E+00 -0.25116036854E+04  0.25116036854E+04  0.00000000000E+00 0. -1.
         23    2    1    2    0    0  0.29049233716E+03  0.44144293058E+02 -0.15237713434E+04  0.15545159436E+04  0.91138331028E+02 0.  0.
    5000000    2    1    2    0    0 -0.29049233716E+03 -0.44144293058E+02 -0.85757442149E+03  0.10873456624E+04  0.60045997742E+03 0.  0.
         23    2    4    4    0    0  0.11392264765E+03  0.86201523094E+02 -0.62854483020E+02  0.18157298378E+03  0.92784644049E+02 0.  0.
         23    2    4    4    0    0 -0.40441498481E+03 -0.13034581615E+03 -0.79471993847E+03  0.90577267857E+03  0.91119991934E+02 0.  0.
          1    1    3    3  502    0  0.18781500012E+03  0.74182364537E+01 -0.11463283531E+04  0.11616360005E+04  0.00000000000E+00 0. -1.
         -1    1    3    3    0  502  0.10267733704E+03  0.36726056604E+02 -0.37744299027E+03  0.39287994308E+03  0.00000000000E+00 0.  1.
         15    1    5    5    0    0  0.45443358002E+02  0.49415432275E+02 -0.77395320158E+02  0.10247037155E+03  0.17770000000E+01 0. -1.
        -15    1    5    5    0    0  0.68479289645E+02  0.36786090819E+02  0.14540837138E+02  0.79102612231E+02  0.17770000000E+01 0.  1.
          4    1    6    6  503    0 -0.10762347274E+03 -0.41544045715E+01 -0.25850324781E+03  0.28004285403E+03  0.00000000000E+00 0. -1.
         -4    1    6    6    0  503 -0.29679151207E+03 -0.12619141158E+03 -0.53621669065E+03  0.62572982454E+03  0.00000000000E+00 0.  1.
<mgrwt>
<rscale>  0 0.43606509E+03</rscale>
<asrwt>0</asrwt>
<pdfrwt beam="1">  1        1 0.38640052E+00 0.43606509E+03</pdfrwt>
<pdfrwt beam="2">  1       -1 0.20039682E-01 0.43606509E+03</pdfrwt>
<totfact> 0.29990259E+01</totfact>
</mgrwt>
</event>
<event>
12    1  0.9321077E-008  0.5114214E+03  0.7818608E-02  0.1010840E+00
         -1   -1    0    0    0  501 -0.00000000000E+00  0.00000000000E+00  0.54399087607E+03  0.54399087607E+03  0.00000000000E+00 0.  1.
          1   -1    0    0  501    0  0.00000000000E+00 -0.00000000000E+00 -0.80603032445E+03  0.80603032445E+03  0.00000000000E+00 0. -1.
         23    2    1    2    0    0 -0.47244868066E+03  0.12015446317E+03  0.84672278902E+02  0.50267769355E+03  0.88716502965E+02 0.  0.
    5000000    2    1    2    0    0  0.47244868066E+03 -0.12015446317E+03 -0.34671172728E+03  0.84734350697E+03  0.60011427753E+03 0.  0.
         23    2    4    4    0    0  0.15857246942E+03 -0.13368684881E+03  0.13546125268E+03  0.26448527708E+03  0.92656943682E+02 0.  0.
         23    2    4    4    0    0  0.31387621124E+03  0.13532385637E+02 -0.48217297996E+03  0.58285822989E+03  0.92366293152E+02 0.  0.
          3    1    3    3  502    0 -0.43974177249E+03  0.10841707411E+03  0.53614428542E+02  0.45607191909E+03  0.00000000000E+00 0. -1.
         -3    1    3    3    0  502 -0.32706908166E+02  0.11737389058E+02  0.31057850361E+02  0.46605774457E+02  0.00000000000E+00 0.  1.
         15    1    5    5    0    0  0.37668376895E+02 -0.54205631980E+02  0.92293458465E+02  0.11348302675E+03  0.17770000000E+01 0. -1.
        -15    1    5    5    0    0  0.12090409253E+03 -0.79481216827E+02  0.43167794212E+02  0.15100225033E+03  0.17770000000E+01 0.  1.
          3    1    6    6  503    0  0.14646867734E+03  0.46812052575E+02 -0.18935403993E+03  0.24392497647E+03  0.00000000000E+00 0. -1.
         -3    1    6    6    0  503  0.16740753390E+03 -0.33279666938E+02 -0.29281894003E+03  0.33893325342E+03  0.00000000000E+00 0.  1.
<mgrwt>
<rscale>  0 0.51142141E+03</rscale>
<asrwt>0</asrwt>
<pdfrwt beam="1">  1        1 0.12400467E+00 0.51142141E+03</pdfrwt>
<pdfrwt beam="2">  1       -1 0.83690904E-01 0.51142141E+03</pdfrwt>
<totfact> 0.32678699E+01</totfact>
</mgrwt>
</event>
<event>
12    1  0.9321077E-008  0.6128604E+03  0.7818608E-02  0.9879078E-01
         -2   -1    0    0    0  501 -0.00000000000E+00  0.00000000000E+00  0.47930327512E+03  0.47930327512E+03  0.00000000000E+00 0.  1.
          2   -1    0    0  501    0  0.00000000000E+00 -0.00000000000E+00 -0.91183040574E+03  0.91183040574E+03  0.00000000000E+00 0. -1.
         23    2    1    2    0    0 -0.47945945629E+03  0.40889348651E+02 -0.38016061731E+03  0.62008454013E+03  0.91811943104E+02 0.  0.
    5000000    2    1    2    0    0  0.47945945629E+03 -0.40889348651E+02 -0.52366513306E+02  0.77104914073E+03  0.60018431889E+03 0.  0.
         23    2    4    4    0    0  0.47684801636E+03 -0.24496508053E+03 -0.60230649117E+02  0.54772038778E+03  0.94752154160E+02 0.  0.
         23    2    4    4    0    0  0.26114399319E+01  0.20407573188E+03  0.78641358109E+01  0.22332875294E+03  0.90333622203E+02 0.  0.
          1    1    3    3  502    0 -0.34604773246E+03  0.53718751582E+02 -0.31516020812E+03  0.47112704677E+03  0.00000000000E+00 0.  1.
         -1    1    3    3    0  502 -0.13341172383E+03 -0.12829402930E+02 -0.65000409191E+02  0.14895749336E+03  0.00000000000E+00 0. -1.
         15    1    5    5    0    0  0.18546851731E+03 -0.11327930627E+03 -0.68440344536E+02  0.22785524052E+03  0.17770000000E+01 0. -1.
        -15    1    5    5    0    0  0.29137949905E+03 -0.13168577426E+03  0.82096954191E+01  0.31986514726E+03  0.17770000000E+01 0.  1.
          3    1    6    6  503    0 -0.45004137038E+01  0.71799420383E+02 -0.40201114024E+02  0.82410800624E+02  0.00000000000E+00 0. -1.
         -3    1    6    6    0  503  0.71118536357E+01  0.13227631149E+03  0.48065249834E+02  0.14091795232E+03  0.00000000000E+00 0.  1.
<mgrwt>
<rscale>  0 0.61286037E+03</rscale>
<asrwt>0</asrwt>
<pdfrwt beam="1">  1        2 0.14028160E+00 0.61286037E+03</pdfrwt>
<pdfrwt beam="2">  1       -2 0.73738966E-01 0.61286037E+03</pdfrwt>
<totfact> 0.49047265E+01</totfact>
</mgrwt>
</event>
<event>
12    1  0.9321077E-008  0.7386608E+03  0.7818608E-02  0.9653310E-01
          2   -1    0    0  501    0  0.00000000000E+00  0.00000000000E+00  0.12535026680E+04  0.12535026680E+04  0.00000000000E+00 0. -1.
         -2   -1    0    0    0  501 -0.00000000000E+00 -0.00000000000E+00 -0.45192666296E+03  0.45192666296E+03  0.00000000000E+00 0.  1.
         23    2    1    2    0    0  0.46492210119E+03 -0.41890555229E+03  0.41341675431E+03  0.75552347579E+03  0.90927926428E+02 0.  0.
    5000000    2    1    2    0    0 -0.46492210119E+03  0.41890555229E+03  0.38815925070E+03  0.94990585514E+03  0.60001592295E+03 0.  0.
         23    2    4    4    0    0 -0.14200707896E+03  0.48974913696E+03  0.17850945401E+03  0.54820050104E+03  0.92940500051E+02 0.  0.
         23    2    4    4    0    0 -0.32291502224E+03 -0.70843584662E+02  0.20964979669E+03  0.40170535409E+03  0.90117862724E+02 0.  0.
          2    1    3    3  502    0  0.25071058431E+03 -0.27400570982E+03  0.27555753946E+03  0.46245743983E+03  0.00000000000E+00 0. -1.
         -2    1    3    3    0  502  0.21421151689E+03 -0.14489984247E+03  0.13785921484E+03  0.29306603596E+03  0.00000000000E+00 0.  1.
         15    1    5    5    0    0 -0.11259020578E+03  0.39673703580E+03  0.10368067031E+03  0.42524071905E+03  0.17770000000E+01 0. -1.
        -15    1    5    5    0    0 -0.29416873178E+02  0.93012101151E+02  0.74828783696E+02  0.12295978199E+03  0.17770000000E+01 0.  1.
          2    1    6    6  503    0 -0.70449669848E+02 -0.44890755701E+02  0.84159427262E+02  0.11857969947E+03  0.00000000000E+00 0.  1.
         -2    1    6    6    0  503 -0.25246535239E+03 -0.25952828962E+02  0.12549036943E+03  0.28312565462E+03  0.00000000000E+00 0. -1.
<mgrwt>
<rscale>  0 0.73866077E+03</rscale>
<asrwt>0</asrwt>
<pdfrwt beam="1">  1        2 0.19284656E+00 0.73866077E+03</pdfrwt>
<pdfrwt beam="2">  1       -2 0.69527179E-01 0.73866077E+03</pdfrwt>
<totfact> 0.33890897E+01</totfact>
</mgrwt>
</event>
<event>
12    1  0.9321077E-008  0.7294166E+03  0.7818608E-02  0.9668208E-01
         -1   -1    0    0    0  501 -0.00000000000E+00  0.00000000000E+00  0.15118480304E+04  0.15118480304E+04  0.00000000000E+00 0.  1.
          1   -1    0    0  501    0  0.00000000000E+00 -0.00000000000E+00 -0.44487347424E+03  0.44487347424E+03  0.00000000000E+00 0. -1.
         23    2    1    2    0    0 -0.37679003110E+03  0.51191315070E+03  0.83299102837E+03  0.10517283807E+04  0.90734403735E+02 0.  0.
    5000000    2    1    2    0    0  0.37679003110E+03 -0.51191315070E+03  0.23398352780E+03  0.90499312396E+03  0.60019868521E+03 0.  0.
         23    2    4    4    0    0  0.48151396691E+03 -0.26358758705E+03  0.26450326375E+03  0.61624167768E+03  0.91965821906E+02 0.  0.
         23    2    4    4    0    0 -0.10472393581E+03 -0.24832556365E+03 -0.30519735944E+02  0.28875144628E+03  0.99061875379E+02 0.  0.
          2    1    3    3  502    0 -0.18166102794E+03  0.23285971429E+03  0.31459818476E+03  0.43150480120E+03  0.00000000000E+00 0. -1.
         -2    1    3    3    0  502 -0.19512900317E+03  0.27905343641E+03  0.51839284362E+03  0.62022357950E+03  0.00000000000E+00 0.  1.
         15    1    5    5    0    0  0.16110295714E+03 -0.78954046233E+02  0.13455946938E+03  0.22427062390E+03  0.17770000000E+01 0. -1.
        -15    1    5    5    0    0  0.32041100977E+03 -0.18463354082E+03  0.12994379437E+03  0.39197105378E+03  0.17770000000E+01 0.  1.
          4    1    6    6  503    0 -0.76990029121E+02 -0.12074088808E+03  0.27602602223E+02  0.14583459908E+03  0.00000000000E+00 0. -1.
         -4    1    6    6    0  503 -0.27733906684E+02 -0.12758467557E+03 -0.58122338167E+02  0.14291684720E+03  0.00000000000E+00 0.  1.
<mgrwt>
<rscale>  0 0.72941655E+03</rscale>
<asrwt>0</asrwt>
<pdfrwt beam="1">  1        1 0.68442074E-01 0.72941655E+03</pdfrwt>
<pdfrwt beam="2">  1       -1 0.23259200E+00 0.72941655E+03</pdfrwt>
<totfact> 0.49137025E+00</totfact>
</mgrwt>
</event>
<event>
12    1  0.9321077E-008  0.4473342E+03  0.7818608E-02  0.1028520E+00
         -2   -1    0    0    0  501 -0.00000000000E+00  0.00000000000E+00  0.22957449756E+03  0.22957449756E+03  0.00000000000E+00 0. -1.
          2   -1    0    0  501    0  0.00000000000E+00 -0.00000000000E+00 -0.95802314215E+03  0.95802314215E+03  0.00000000000E+00 0.  1.
         23    2    1    2    0    0 -0.48304939626E+01 -0.25474483755E+03 -0.31637890654E+03  0.41654982131E+03  0.92194767714E+02 0.  0.
    5000000    2    1    2    0    0  0.48304939626E+01  0.25474483755E+03 -0.41206973804E+03  0.77104781840E+03  0.59982914511E+03 0.  0.
         23    2    4    4    0    0 -0.45350013705E+02 -0.17863876606E+03 -0.12449165796E+03  0.24063994330E+03  0.91874789405E+02 0.  0.
         23    2    4    4    0    0  0.50180507668E+02  0.43338360361E+03 -0.28757808008E+03  0.53040787510E+03  0.91060038391E+02 0.  0.
          1    1    3    3  502    0 -0.11881598285E+02 -0.11304094415E+03 -0.21152520305E+03  0.24012983771E+03  0.00000000000E+00 0. -1.
         -1    1    3    3    0  502  0.70511043219E+01 -0.14170389339E+03 -0.10485370349E+03  0.17641998359E+03  0.00000000000E+00 0.  1.
         15    1    5    5    0    0 -0.10676596885E+02 -0.16224543763E+03 -0.11977361943E+03  0.20195655323E+03  0.17770000000E+01 0. -1.
        -15    1    5    5    0    0 -0.34673416820E+02 -0.16393328432E+02 -0.47180385348E+01  0.38683390075E+02  0.17770000000E+01 0.  1.
          2    1    6    6  503    0  0.54957266748E+02  0.42446169413E+03 -0.29322872021E+03  0.51881703259E+03  0.00000000000E+00 0. -1.
         -2    1    6    6    0  503 -0.47767590800E+01  0.89219094786E+01  0.56506401277E+01  0.11590842502E+02  0.00000000000E+00 0.  1.
<mgrwt>
<rscale>  0 0.44733420E+03</rscale>
<asrwt>0</asrwt>
<pdfrwt beam="1">  1        2 0.14738818E+00 0.44733420E+03</pdfrwt>
<pdfrwt beam="2">  1       -2 0.35319153E-01 0.44733420E+03</pdfrwt>
<totfact> 0.20839352E+02</totfact>
</mgrwt>
</event>
<event>
12    1  0.9321077E-008  0.7983868E+03  0.7818608E-02  0.9562355E-01
          2   -1    0    0  501    0  0.00000000000E+00  0.00000000000E+00  0.82727510190E+03  0.82727510190E+03  0.00000000000E+00 0. -1.
         -2   -1    0    0    0  501 -0.00000000000E+00 -0.00000000000E+00 -0.10701012221E+04  0.10701012221E+04  0.00000000000E+00 0.  1.
         23    2    1    2    0    0 -0.14882192098E+03  0.70812005667E+03 -0.54354845740E+03  0.91040944781E+03  0.99088133944E+02 0.  0.
    5000000    2    1    2    0    0  0.14882192098E+03 -0.70812005667E+03  0.30072233725E+03  0.98696687615E+03  0.60007308860E+03 0.  0.
         23    2    4    4    0    0  0.22889425788E+01  0.47645784696E+02  0.17415154821E+03  0.20151369514E+03  0.89463107077E+02 0.  0.
         23    2    4    4    0    0  0.14653297840E+03 -0.75576584137E+03  0.12657078905E+03  0.78545318101E+03  0.90898922899E+02 0.  0.
          1    1    3    3  502    0 -0.64369197018E+02  0.32677196305E+03 -0.31190317071E+03  0.45629693979E+03  0.00000000000E+00 0. -1.
         -1    1    3    3    0  502 -0.84452723964E+02  0.38134809362E+03 -0.23164528669E+03  0.45411250802E+03  0.00000000000E+00 0.  1.
         15    1    5    5    0    0  0.38099452063E+02  0.51747046809E+02  0.97405394594E+02  0.11670601410E+03  0.17770000000E+01 0.  1.
        -15    1    5    5    0    0 -0.35810509485E+02 -0.41012621137E+01  0.76746153612E+02  0.84807681042E+02  0.17770000000E+01 0. -1.
          4    1    6    6  503    0  0.61655883146E+02 -0.48763883206E+03  0.11028310597E+03  0.50374144352E+03  0.00000000000E+00 0. -1.
         -4    1    6    6    0  503  0.84877095257E+02 -0.26812700931E+03  0.16287683076E+02  0.28171173749E+03  0.00000000000E+00 0.  1.
<mgrwt>
<rscale>  0 0.79838675E+03</rscale>
<asrwt>0</asrwt>
<pdfrwt beam="1">  1        2 0.12727309E+00 0.79838675E+03</pdfrwt>
<pdfrwt beam="2">  1       -2 0.16463096E+00 0.79838675E+03</pdfrwt>
<totfact> 0.77629385E+00</totfact>
</mgrwt>
</event>
<event>
12    1  0.9321077E-008  0.1557924E+04  0.7818608E-02  0.8846822E-01
          2   -1    0    0  501    0  0.00000000000E+00  0.00000000000E+00  0.16757179556E+04  0.16757179556E+04  0.00000000000E+00 0. -1.
         -2   -1    0    0    0  501 -0.00000000000E+00 -0.00000000000E+00 -0.15996633718E+04  0.15996633718E+04  0.00000000000E+00 0.  1.
         23    2    1    2    0    0  0.11863920017E+03  0.15217918187E+04  0.44835972031E+03  0.15935110632E+04  0.91244014961E+02 0.  0.
    5000000    2    1    2    0    0 -0.11863920017E+03 -0.15217918187E+04 -0.37230513654E+03  0.16818702643E+04  0.60012571328E+03 0.  0.
         23    2    4    4    0    0 -0.19282518874E+03 -0.31097220831E+03  0.78097282853E+02  0.38456641629E+03  0.88920611740E+02 0.  0.
         23    2    4    4    0    0  0.74185988576E+02 -0.12108196104E+04 -0.45040241939E+03  0.12973038480E+04  0.92451309825E+02 0.  0.
          3    1    3    3  502    0  0.10958272159E+03  0.99520077596E+03  0.26308203117E+03  0.10352029330E+04  0.00000000000E+00 0. -1.
         -3    1    3    3    0  502  0.90564785789E+01  0.52659104278E+03  0.18527768915E+03  0.55830813019E+03  0.00000000000E+00 0.  1.
         15    1    5    5    0    0 -0.16354980913E+03 -0.19529767087E+03  0.73545068729E+02  0.26514478154E+03  0.17770000000E+01 0.  1.
        -15    1    5    5    0    0 -0.29275379610E+02 -0.11567453744E+03  0.45522141247E+01  0.11942163475E+03  0.17770000000E+01 0. -1.
          4    1    6    6  503    0  0.34428389392E+02 -0.88232114501E+03 -0.28854116763E+03  0.92894129112E+03  0.00000000000E+00 0. -1.
         -4    1    6    6    0  503  0.39757599184E+02 -0.32849846543E+03 -0.16186125176E+03  0.36836255687E+03  0.00000000000E+00 0.  1.
<mgrwt>
<rscale>  0 0.15579243E+04</rscale>
<asrwt>0</asrwt>
<pdfrwt beam="1">  1        2 0.25780276E+00 0.15579243E+04</pdfrwt>
<pdfrwt beam="2">  1       -2 0.24610206E+00 0.15579243E+04</pdfrwt>
<totfact> 0.64157860E-01</totfact>
</mgrwt>
</event>
<event>
12    1  0.9321077E-008  0.7726472E+03  0.7818608E-02  0.9600475E-01
          1   -1    0    0  501    0  0.00000000000E+00  0.00000000000E+00  0.10806914658E+04  0.10806914658E+04  0.00000000000E+00 0. -1.
         -1   -1    0    0    0  501 -0.00000000000E+00 -0.00000000000E+00 -0.60273644961E+03  0.60273644961E+03  0.00000000000E+00 0.  1.
         23    2    1    2    0    0 -0.34994382403E+03 -0.59262327994E+03  0.29020699696E+03  0.75248285186E+03  0.91363610750E+02 0.  0.
    5000000    2    1    2    0    0  0.34994382403E+03  0.59262327994E+03  0.18774801921E+03  0.93094506352E+03  0.59811901883E+03 0.  0.
         23    2    4    4    0    0  0.29644128169E+03  0.60669910704E+02  0.22518345839E+03  0.38769426338E+03  0.89671513689E+02 0.  0.
         23    2    4    4    0    0  0.53502542333E+02  0.53195336923E+03 -0.37435439184E+02  0.54325080014E+03  0.88786883464E+02 0.  0.
          2    1    3    3  502    0 -0.24016080141E+03 -0.36832621719E+03  0.22719292270E+03  0.49493235591E+03  0.00000000000E+00 0. -1.
         -2    1    3    3    0  502 -0.10978302262E+03 -0.22429706274E+03  0.63014074263E+02  0.25755049595E+03  0.00000000000E+00 0.  1.
         15    1    5    5    0    0  0.28176020052E+03  0.34251986795E+02  0.19147358347E+03  0.34238472526E+03  0.17770000000E+01 0.  1.
        -15    1    5    5    0    0  0.14681081170E+02  0.26417923909E+02  0.33709874924E+02  0.45309538117E+02  0.17770000000E+01 0. -1.
          1    1    6    6  503    0 -0.16315592402E+01  0.38165191000E+03 -0.19476939839E+02  0.38215205557E+03  0.00000000000E+00 0. -1.
         -1    1    6    6    0  503  0.55134101573E+02  0.15030145923E+03 -0.17958499345E+02  0.16109874457E+03  0.00000000000E+00 0.  1.
<mgrwt>
<rscale>  0 0.77264717E+03</rscale>
<asrwt>0</asrwt>
<pdfrwt beam="1">  1        1 0.16626022E+00 0.77264717E+03</pdfrwt>
<pdfrwt beam="2">  1       -1 0.92728685E-01 0.77264717E+03</pdfrwt>
<totfact> 0.15241838E+01</totfact>
</mgrwt>
</event>
<event>
12    1  0.9321077E-008  0.7069289E+03  0.7818608E-02  0.9705456E-01
          2   -1    0    0  501    0  0.00000000000E+00  0.00000000000E+00  0.25072648226E+04  0.25072648226E+04  0.00000000000E+00 0. -1.
         -2   -1    0    0    0  501 -0.00000000000E+00 -0.00000000000E+00 -0.21634043085E+03  0.21634043085E+03  0.00000000000E+00 0.  1.
         23    2    1    2    0    0  0.21937572632E+03  0.54803284682E+03  0.67284932562E+03  0.89971204339E+03  0.91048534020E+02 0.  0.
    5000000    2    1    2    0    0 -0.21937572632E+03 -0.54803284682E+03  0.16180750661E+04  0.18238932101E+04  0.59996150840E+03 0.  0.
         23    2    4    4    0    0 -0.25249920101E+03  0.11353536742E+02  0.62937603023E+03  0.68361580808E+03  0.85624974862E+02 0.  0.
         23    2    4    4    0    0  0.33123474688E+02 -0.55938638356E+03  0.98869903590E+03  0.11402774020E+04  0.93254915060E+02 0.  0.
          3    1    3    3  502    0  0.49567732109E+02  0.15317877000E+03  0.12767483421E+03  0.20547885277E+03  0.00000000000E+00 0. -1.
         -3    1    3    3    0  502  0.16980799421E+03  0.39485407682E+03  0.54517449140E+03  0.69423319062E+03  0.00000000000E+00 0.  1.
         15    1    5    5    0    0 -0.17845009858E+03  0.35503816231E+02  0.50578127134E+03  0.53751540519E+03  0.17770000000E+01 0. -1.
        -15    1    5    5    0    0 -0.74049102429E+02 -0.24150279489E+02  0.12359475889E+03  0.14610040289E+03  0.17770000000E+01 0.  1.
          2    1    6    6  503    0  0.33897807880E+02 -0.14977546683E+03  0.20676543662E+03  0.25755329084E+03  0.00000000000E+00 0. -1.
         -2    1    6    6    0  503 -0.77433319180E+00 -0.40961091673E+03  0.78193359928E+03  0.88272411114E+03  0.00000000000E+00 0.  1.
<mgrwt>
<rscale>  0 0.70692888E+03</rscale>
<asrwt>0</asrwt>
<pdfrwt beam="1">  1        2 0.38573303E+00 0.70692888E+03</pdfrwt>
<pdfrwt beam="2">  1       -2 0.33283145E-01 0.70692888E+03</pdfrwt>
<totfact> 0.30528090E+01</totfact>
</mgrwt>
</event>
<event>
12    1  0.9321077E-008  0.1588288E+04  0.7818608E-02  0.8827776E-01
         -1   -1    0    0    0  501 -0.00000000000E+00  0.00000000000E+00  0.19780250789E+04  0.19780250789E+04  0.00000000000E+00 0.  1.
          1   -1    0    0  501    0  0.00000000000E+00 -0.00000000000E+00 -0.13213222734E+04  0.13213222734E+04  0.00000000000E+00 0. -1.
         23    2    1    2    0    0 -0.16984484407E+03  0.15243799506E+04  0.29330038390E+02  0.15369030273E+04  0.92893268703E+02 0.  0.
    5000000    2    1    2    0    0  0.16984484407E+03 -0.15243799506E+04  0.62737276705E+03  0.17624443250E+04  0.60002658684E+03 0.  0.
         23    2    4    4    0    0 -0.20317904068E+03 -0.39225281127E+03  0.19379576168E+03  0.49090854136E+03  0.91051678788E+02 0.  0.
         23    2    4    4    0    0  0.37302388475E+03 -0.11321271393E+04  0.43357700537E+03  0.12715357836E+04  0.89193896697E+02 0.  0.
          2    1    3    3  502    0 -0.10568208340E+03  0.11416998642E+04  0.56155939966E+02  0.11479550393E+04  0.00000000000E+00 0. -1.
         -2    1    3    3    0  502 -0.64162760677E+02  0.38268008644E+03 -0.26825901576E+02  0.38894798805E+03  0.00000000000E+00 0.  1.
         15    1    5    5    0    0 -0.15789845497E+03 -0.23539490562E+03  0.15510206391E+03  0.32311374411E+03  0.17770000000E+01 0. -1.
        -15    1    5    5    0    0 -0.45280585710E+02 -0.15685790565E+03  0.38693697775E+02  0.16779479725E+03  0.17770000000E+01 0.  1.
          1    1    6    6  503    0  0.86635401429E+02 -0.16174654233E+03  0.61164626921E+02  0.19341341299E+03  0.00000000000E+00 0. -1.
         -1    1    6    6    0  503  0.28638848332E+03 -0.97038059701E+03  0.37241237845E+03  0.10781223706E+04  0.00000000000E+00 0.  1.
<mgrwt>
<rscale>  0 0.15882875E+04</rscale>
<asrwt>0</asrwt>
<pdfrwt beam="1">  1        1 0.20328035E+00 0.15882875E+04</pdfrwt>
<pdfrwt beam="2">  1       -1 0.30431155E+00 0.15882875E+04</pdfrwt>
<totfact> 0.25373031E-01</totfact>
</mgrwt>
</event>
<event>
12    1  0.9321077E-008  0.6174494E+03  0.7818608E-02  0.9869851E-01
         -1   -1    0    0    0  501 -0.00000000000E+00  0.00000000000E+00  0.38661440199E+03  0.38661440199E+03  0.00000000000E+00 0.  1.
          1   -1    0    0  501    0  0.00000000000E+00 -0.00000000000E+00 -0.14774791789E+04  0.14774791789E+04  0.00000000000E+00 0. -1.
         23    2    1    2    0    0  0.98346920533E+02 -0.60611154429E+03 -0.26751638574E+03  0.67466572874E+03  0.81027822423E+02 0.  0.
    5000000    2    1    2    0    0 -0.98346920533E+02  0.60611154429E+03 -0.82334839120E+03  0.11894278522E+04  0.59982724293E+03 0.  0.
         23    2    4    4    0    0 -0.35892298217E+02  0.11821647273E+03 -0.63791386463E+03  0.65613446170E+03  0.91186301832E+02 0.  0.
         23    2    4    4    0    0 -0.62454622316E+02  0.48789507156E+03 -0.18543452657E+03  0.53329339048E+03  0.89853747800E+02 0.  0.
          1    1    3    3  502    0  0.18399962717E+02 -0.25308801101E+03 -0.14649758646E+03  0.29300792273E+03  0.00000000000E+00 0. -1.
         -1    1    3    3    0  502  0.79946957816E+02 -0.35302353328E+03 -0.12101879928E+03  0.38165780602E+03  0.00000000000E+00 0.  1.
         15    1    5    5    0    0 -0.26900114740E+02  0.91326197789E+02 -0.25551001675E+03  0.27267676279E+03  0.17770000000E+01 0. -1.
        -15    1    5    5    0    0 -0.89921834766E+01  0.26890274942E+02 -0.38240384788E+03  0.38345769891E+03  0.17770000000E+01 0.  1.
          1    1    6    6  503    0 -0.62414613713E+02  0.25068297318E+03 -0.13213293991E+03  0.29016659156E+03  0.00000000000E+00 0. -1.
         -1    1    6    6    0  503 -0.40008603191E-01  0.23721209837E+03 -0.53301586664E+02  0.24312679893E+03  0.00000000000E+00 0.  1.
<mgrwt>
<rscale>  0 0.61744937E+03</rscale>
<asrwt>0</asrwt>
<pdfrwt beam="1">  1        1 0.22730448E+00 0.61744937E+03</pdfrwt>
<pdfrwt beam="2">  1       -1 0.59479140E-01 0.61744937E+03</pdfrwt>
<totfact> 0.20490091E+01</totfact>
</mgrwt>
</event>
<event>
12    1  0.9321077E-008  0.9024118E+03  0.7818608E-02  0.9422572E-01
         -1   -1    0    0    0  501 -0.00000000000E+00  0.00000000000E+00  0.68603381890E+03  0.68603381890E+03  0.00000000000E+00 0.  1.
          1   -1    0    0  501    0  0.00000000000E+00 -0.00000000000E+00 -0.12384902861E+04  0.12384902861E+04  0.00000000000E+00 0. -1.
         23    2    1    2    0    0  0.80413410656E+03 -0.58507246304E+02 -0.84678820580E+02  0.81590950892E+03  0.92103555196E+02 0.  0.
    5000000    2    1    2    0    0 -0.80413410656E+03  0.58507246304E+02 -0.46777764666E+03  0.11086145961E+04  0.60012968333E+03 0.  0.
         23    2    4    4    0    0 -0.53811830781E+03  0.30567992941E+03 -0.34660939166E+03  0.71492702401E+03  0.89280719240E+02 0.  0.
         23    2    4    4    0    0 -0.26601579875E+03 -0.24717268310E+03 -0.12116825500E+03  0.39368757211E+03  0.91920715597E+02 0.  0.
          1    1    3    3  502    0  0.31668605647E+03 -0.44246811452E+02 -0.73619492239E+02  0.32812751839E+03  0.00000000000E+00 0. -1.
         -1    1    3    3    0  502  0.48744805009E+03 -0.14260434852E+02 -0.11059328341E+02  0.48778199052E+03  0.00000000000E+00 0.  1.
         15    1    5    5    0    0 -0.40754339735E+03  0.27275192980E+03 -0.27957769098E+03  0.56449276254E+03  0.17770000000E+01 0.  1.
        -15    1    5    5    0    0 -0.13057491046E+03  0.32927999610E+02 -0.67031700678E+02  0.15043426147E+03  0.17770000000E+01 0. -1.
          1    1    6    6  503    0 -0.15888786695E+03 -0.91465320612E+02 -0.81180565979E+02  0.20050322549E+03  0.00000000000E+00 0. -1.
         -1    1    6    6    0  503 -0.10712793181E+03 -0.15570736249E+03 -0.39987689016E+02  0.19318434662E+03  0.00000000000E+00 0.  1.
<mgrwt>
<rscale>  0 0.90241181E+03</rscale>
<asrwt>0</asrwt>
<pdfrwt beam="1">  1        1 0.19053697E+00 0.90241181E+03</pdfrwt>
<pdfrwt beam="2">  1       -1 0.10554366E+00 0.90241181E+03</pdfrwt>
<totfact> 0.85520708E+00</totfact>
</mgrwt>
</event>
<event>
12    1  0.9321077E-008  0.1049457E+04  0.7818608E-02  0.9255905E-01
          2   -1    0    0  501    0  0.00000000000E+00  0.00000000000E+00  0.19226692558E+04  0.19226692558E+04  0.00000000000E+00 0. -1.
         -2   -1    0    0    0  501 -0.00000000000E+00 -0.00000000000E+00 -0.75623275216E+03  0.75623275216E+03  0.00000000000E+00 0.  1.
         23    2    1    2    0    0 -0.91911962362E+03  0.45342972920E+03  0.10748263165E+04  0.14877544882E+04  0.88217939433E+02 0.  0.
    5000000    2    1    2    0    0  0.91911962362E+03 -0.45342972920E+03  0.91610187125E+02  0.11911475197E+04  0.60005048576E+03 0.  0.
         23    2    4    4    0    0  0.66289753543E+03 -0.17428780296E+03 -0.18242508910E+03  0.71479463396E+03  0.88561136353E+02 0.  0.
         23    2    4    4    0    0  0.25622208819E+03 -0.27914192624E+03  0.27403527622E+03  0.47635288574E+03  0.90811704521E+02 0.  0.
          4    1    3    3  502    0 -0.71731512559E+03  0.31619591088E+03  0.79573131640E+03  0.11170090292E+04  0.00000000000E+00 0. -1.
         -4    1    3    3    0  502 -0.20180449803E+03  0.13723381831E+03  0.27909500010E+03  0.37074545903E+03  0.00000000000E+00 0.  1.
         15    1    5    5    0    0  0.25991271348E+03 -0.36029102676E+02 -0.10021336159E+03  0.28088892901E+03  0.17770000000E+01 0. -1.
        -15    1    5    5    0    0  0.40298482194E+03 -0.13825870028E+03 -0.82211727506E+02  0.43390570495E+03  0.17770000000E+01 0.  1.
          1    1    6    6  503    0  0.24447742555E+02 -0.54489437781E+02  0.79668676070E+02  0.99568513560E+02  0.00000000000E+00 0. -1.
         -1    1    6    6    0  503  0.23177434563E+03 -0.22465248846E+03  0.19436660015E+03  0.37678437218E+03  0.00000000000E+00 0.  1.
<mgrwt>
<rscale>  0 0.10494570E+04</rscale>
<asrwt>0</asrwt>
<pdfrwt beam="1">  1        2 0.29579527E+00 0.10494570E+04</pdfrwt>
<pdfrwt beam="2">  1       -2 0.11634350E+00 0.10494570E+04</pdfrwt>
<totfact> 0.41954245E+00</totfact>
</mgrwt>
</event>
<event>
12    1  0.9321077E-008  0.5720028E+03  0.7818608E-02  0.9965256E-01
          1   -1    0    0  501    0  0.00000000000E+00  0.00000000000E+00  0.17642201680E+04  0.17642201680E+04  0.00000000000E+00 0. -1.
         -1   -1    0    0    0  501 -0.00000000000E+00 -0.00000000000E+00 -0.24429022106E+03  0.24429022106E+03  0.00000000000E+00 0.  1.
         23    2    1    2    0    0 -0.26411280062E+03  0.44167682323E+03  0.60516719802E+03  0.79947831224E+03  0.90023588877E+02 0.  0.
    5000000    2    1    2    0    0  0.26411280062E+03 -0.44167682323E+03  0.91476274888E+03  0.12090320768E+04  0.60011139657E+03 0.  0.
         23    2    4    4    0    0  0.92766908366E+02  0.18613002661E+02 -0.34689358468E+02  0.13612051859E+03  0.91505742082E+02 0.  0.
         23    2    4    4    0    0  0.17134589226E+03 -0.46028982589E+03  0.94945210735E+03  0.10729115582E+04  0.91944379505E+02 0.  0.
          3    1    3    3  502    0 -0.37306524619E+02  0.54683088970E+02  0.13091382069E+03  0.14669848481E+03  0.00000000000E+00 0. -1.
         -3    1    3    3    0  502 -0.22680627601E+03  0.38699373426E+03  0.47425337733E+03  0.65277982743E+03  0.00000000000E+00 0.  1.
         15    1    5    5    0    0  0.37064771157E+02  0.53014740885E+02 -0.72660816517E+01  0.65117691019E+02  0.17770000000E+01 0. -1.
        -15    1    5    5    0    0  0.55702137209E+02 -0.34401738225E+02 -0.27423276816E+02  0.71002827569E+02  0.17770000000E+01 0.  1.
          3    1    6    6  503    0  0.13032967288E+02 -0.15129790886E+03  0.26451476681E+03  0.30500652013E+03  0.00000000000E+00 0. -1.
         -3    1    6    6    0  503  0.15831292497E+03 -0.30899191703E+03  0.68493734054E+03  0.76790503805E+03  0.00000000000E+00 0.  1.
<mgrwt>
<rscale>  0 0.57200281E+03</rscale>
<asrwt>0</asrwt>
<pdfrwt beam="1">  1        1 0.27141848E+00 0.57200281E+03</pdfrwt>
<pdfrwt beam="2">  1       -1 0.37583112E-01 0.57200281E+03</pdfrwt>
<totfact> 0.31216768E+01</totfact>
</mgrwt>
</event>
<event>
12    1  0.9321077E-008  0.7604365E+03  0.7818608E-02  0.9619118E-01
         -2   -1    0    0    0  501 -0.00000000000E+00  0.00000000000E+00  0.73025902875E+03  0.73025902875E+03  0.00000000000E+00 0.  1.
          2   -1    0    0  501    0  0.00000000000E+00 -0.00000000000E+00 -0.98502727239E+03  0.98502727239E+03  0.00000000000E+00 0. -1.
         23    2    1    2    0    0  0.25392468673E+03 -0.67844182140E+03 -0.25943199274E+03  0.77472287333E+03  0.90163851043E+02 0.  0.
    5000000    2    1    2    0    0 -0.25392468673E+03  0.67844182140E+03  0.46637490994E+01  0.94056342781E+03  0.59989729089E+03 0.  0.
         23    2    4    4    0    0 -0.18189268430E+03  0.99794027394E+02  0.21638176204E+03  0.31346649441E+03  0.91631761251E+02 0.  0.
         23    2    4    4    0    0 -0.72032002437E+02  0.57864779401E+03 -0.21171801294E+03  0.62709693340E+03  0.91674249336E+02 0.  0.
          2    1    3    3  502    0  0.21806066818E+03 -0.60719835942E+03 -0.20067427767E+03  0.67565558416E+03  0.00000000000E+00 0. -1.
         -2    1    3    3    0  502  0.35864018549E+02 -0.71243461984E+02 -0.58757715071E+02  0.99067289165E+02  0.00000000000E+00 0.  1.
         15    1    5    5    0    0 -0.12754020490E+03  0.44245937753E+02  0.81253943260E+02  0.15757400769E+03  0.17770000000E+01 0. -1.
        -15    1    5    5    0    0 -0.54352479392E+02  0.55548089641E+02  0.13512781878E+03  0.15589248672E+03  0.17770000000E+01 0.  1.
          4    1    6    6  503    0 -0.24068736279E+02  0.15729891663E+03 -0.10217082793E+03  0.18910613771E+03  0.00000000000E+00 0. -1.
         -4    1    6    6    0  503 -0.47963266158E+02  0.42134887738E+03 -0.10954718502E+03  0.43799079570E+03  0.00000000000E+00 0.  1.
<mgrwt>
<rscale>  0 0.76043645E+03</rscale>
<asrwt>0</asrwt>
<pdfrwt beam="1">  1        2 0.15154266E+00 0.76043645E+03</pdfrwt>
<pdfrwt beam="2">  1       -2 0.11234754E+00 0.76043645E+03</pdfrwt>
<totfact> 0.16324037E+01</totfact>
</mgrwt>
</event>
<event>
12    1  0.9321077E-008  0.4389542E+03  0.7818608E-02  0.1031068E+00
          2   -1    0    0  501    0  0.00000000000E+00  0.00000000000E+00  0.77596205416E+03  0.77596205416E+03  0.00000000000E+00 0. -1.
         -2   -1    0    0    0  501 -0.00000000000E+00 -0.00000000000E+00 -0.46521636832E+03  0.46521636832E+03  0.00000000000E+00 0.  1.
         23    2    1    2    0    0 -0.31382500490E+03  0.44405411431E+02 -0.20565437024E+03  0.38851267164E+03  0.90500838472E+02 0.  0.
    5000000    2    1    2    0    0  0.31382500490E+03 -0.44405411431E+02  0.51640005608E+03  0.85266575084E+03  0.59992657090E+03 0.  0.
         23    2    4    4    0    0  0.19726066784E+03 -0.24314619095E+03  0.57332764593E+02  0.33106695745E+03  0.91029902607E+02 0.  0.
         23    2    4    4    0    0  0.11656433706E+03  0.19874077952E+03  0.45906729149E+03  0.52159879339E+03  0.90760018930E+02 0.  0.
          2    1    3    3  502    0 -0.71200163178E+02 -0.26464584434E+02 -0.35744074879E+02  0.83949248685E+02  0.00000000000E+00 0. -1.
         -2    1    3    3    0  502 -0.24262484172E+03  0.70869995865E+02 -0.16991029536E+03  0.30456342296E+03  0.00000000000E+00 0.  1.
         15    1    5    5    0    0  0.10395771014E+02 -0.14618354683E+02  0.29474197050E+02  0.34549303457E+02  0.17770000000E+01 0. -1.
        -15    1    5    5    0    0  0.18686489682E+03 -0.22852783627E+03  0.27858567543E+02  0.29651765399E+03  0.17770000000E+01 0.  1.
          1    1    6    6  503    0  0.57108720156E+02  0.50499849957E+02  0.81282679916E+02  0.11143839023E+03  0.00000000000E+00 0. -1.
         -1    1    6    6    0  503  0.59455616903E+02  0.14824092956E+03  0.37778461157E+03  0.41016040316E+03  0.00000000000E+00 0.  1.
<mgrwt>
<rscale>  0 0.43895419E+03</rscale>
<asrwt>0</asrwt>
<pdfrwt beam="1">  1        2 0.11937878E+00 0.43895419E+03</pdfrwt>
<pdfrwt beam="2">  1       -2 0.71571749E-01 0.43895419E+03</pdfrwt>
<totfact> 0.66250777E+01</totfact>
</mgrwt>
</event>
<event>
12    1  0.9321077E-008  0.7752835E+03  0.7818608E-02  0.9596499E-01
          2   -1    0    0  501    0  0.00000000000E+00  0.00000000000E+00  0.11362256989E+04  0.11362256989E+04  0.00000000000E+00 0. -1.
         -2   -1    0    0    0  501 -0.00000000000E+00 -0.00000000000E+00 -0.79299643888E+03  0.79299643888E+03  0.00000000000E+00 0.  1.
         23    2    1    2    0    0  0.42442256911E+03 -0.54720737786E+03  0.65859468540E+03  0.96017441439E+03  0.92830570694E+02 0.  0.
    5000000    2    1    2    0    0 -0.42442256911E+03  0.54720737786E+03 -0.31536542542E+03  0.96904772336E+03  0.60002308876E+03 0.  0.
         23    2    4    4    0    0 -0.19221623838E+03 -0.59422444673E+02  0.37770617104E+02  0.22419707792E+03  0.91430853675E+02 0.  0.
         23    2    4    4    0    0 -0.23220633073E+03  0.60662982253E+03 -0.35313604252E+03  0.74485064543E+03  0.90431730395E+02 0.  0.
          1    1    3    3  502    0  0.28595053901E+03 -0.34629999840E+03  0.48316834471E+03  0.65965373415E+03  0.00000000000E+00 0. -1.
         -1    1    3    3    0  502  0.13847203010E+03 -0.20090737946E+03  0.17542634069E+03  0.30052068023E+03  0.00000000000E+00 0.  1.
         15    1    5    5    0    0 -0.53467426798E+02 -0.36220996319E+02  0.51806927360E+02  0.82812087005E+02  0.17770000000E+01 0. -1.
        -15    1    5    5    0    0 -0.13874881159E+03 -0.23201448354E+02 -0.14036310256E+02  0.14138499092E+03  0.17770000000E+01 0.  1.
          4    1    6    6  503    0 -0.45884560932E+01  0.58202985232E+02 -0.55877051148E+02  0.80813898955E+02  0.00000000000E+00 0. -1.
         -4    1    6    6    0  503 -0.22761787463E+03  0.54842683730E+03 -0.29725899137E+03  0.66403674648E+03  0.00000000000E+00 0.  1.
<mgrwt>
<rscale>  0 0.77528354E+03</rscale>
<asrwt>0</asrwt>
<pdfrwt beam="1">  1        2 0.17480395E+00 0.77528354E+03</pdfrwt>
<pdfrwt beam="2">  1       -2 0.12199945E+00 0.77528354E+03</pdfrwt>
<totfact> 0.10713982E+01</totfact>
</mgrwt>
</event>
<event>
12    1  0.9321077E-008  0.4808860E+03  0.7818608E-02  0.1018892E+00
          1   -1    0    0  501    0  0.00000000000E+00  0.00000000000E+00  0.24955590730E+04  0.24955590730E+04  0.00000000000E+00 0. -1.
         -1   -1    0    0    0  501 -0.00000000000E+00 -0.00000000000E+00 -0.14098471978E+03  0.14098471978E+03  0.00000000000E+00 0.  1.
         23    2    1    2    0    0 -0.14114471333E+03 -0.36230327010E+03  0.13200666678E+04  0.13790292940E+04  0.89220494947E+02 0.  0.
    5000000    2    1    2    0    0  0.14114471333E+03  0.36230327010E+03  0.10345076855E+04  0.12575144988E+04  0.59995922675E+03 0.  0.
         23    2    4    4    0    0  0.27779357012E+03  0.25241799322E+03  0.97832076592E+03  0.10517847629E+04  0.90860088113E+02 0.  0.
         23    2    4    4    0    0 -0.13664885679E+03  0.10988527688E+03  0.56186919575E+02  0.20572973588E+03  0.91760940250E+02 0.  0.
          4    1    3    3  502    0 -0.67573940555E+02 -0.20822028059E+03  0.59114095806E+03  0.63037255254E+03  0.00000000000E+00 0. -1.
         -4    1    3    3    0  502 -0.73570772776E+02 -0.15408298951E+03  0.72892570971E+03  0.74865674146E+03  0.00000000000E+00 0.  1.
         15    1    5    5    0    0  0.10784456297E+03  0.13513040629E+03  0.34955323665E+03  0.38997602420E+03  0.17770000000E+01 0.  1.
        -15    1    5    5    0    0  0.16994900716E+03  0.11728758693E+03  0.62876752927E+03  0.66180873874E+03  0.17770000000E+01 0. -1.
          1    1    6    6  503    0 -0.25993226935E+02 -0.11535323402E+02 -0.77054238772E+01  0.29463283755E+02  0.00000000000E+00 0. -1.
         -1    1    6    6    0  503 -0.11065562986E+03  0.12142060029E+03  0.63892343452E+02  0.17626645213E+03  0.00000000000E+00 0.  1.
<mgrwt>
<rscale>  0 0.48088602E+03</rscale>
<asrwt>0</asrwt>
<pdfrwt beam="1">  1        1 0.38393213E+00 0.48088602E+03</pdfrwt>
<pdfrwt beam="2">  1       -1 0.21689959E-01 0.48088602E+03</pdfrwt>
<totfact> 0.26687938E+01</totfact>
</mgrwt>
</event>
<event>
12    1  0.9321077E-008  0.8169552E+03  0.7818608E-02  0.9535794E-01
         -1   -1    0    0    0  501 -0.00000000000E+00  0.00000000000E+00  0.55999930241E+03  0.55999930241E+03  0.00000000000E+00 0.  1.
          1   -1    0    0  501    0  0.00000000000E+00 -0.00000000000E+00 -0.15022013531E+04  0.15022013531E+04  0.00000000000E+00 0. -1.
         23    2    1    2    0    0 -0.39727311751E+03 -0.69778218029E+03 -0.58504183303E+03  0.99810864553E+03  0.96026146770E+02 0.  0.
    5000000    2    1    2    0    0  0.39727311751E+03  0.69778218029E+03 -0.35716021762E+03  0.10640920099E+04  0.60000206963E+03 0.  0.
         23    2    4    4    0    0  0.10918856572E+03  0.37757361816E+03 -0.45981604254E+03  0.61183467440E+03  0.91798125246E+02 0.  0.
         23    2    4    4    0    0  0.28808455179E+03  0.32020856213E+03  0.10265582492E+03  0.45225733555E+03  0.92044809377E+02 0.  0.
          3    1    3    3  502    0 -0.16499206305E+03 -0.38346574066E+03 -0.31750943283E+03  0.52448126283E+03  0.00000000000E+00 0. -1.
         -3    1    3    3    0  502 -0.23228105446E+03 -0.31431643963E+03 -0.26753240020E+03  0.47362738270E+03  0.00000000000E+00 0.  1.
         15    1    5    5    0    0  0.81603814292E+02  0.31199522270E+03 -0.31668492688E+03  0.45198750219E+03  0.17770000000E+01 0. -1.
        -15    1    5    5    0    0  0.27584751429E+02  0.65578395467E+02 -0.14313111567E+03  0.15984717221E+03  0.17770000000E+01 0.  1.
          3    1    6    6  503    0  0.13447574300E+03  0.12534122820E+03  0.26836299496E+00  0.18383204552E+03  0.00000000000E+00 0. -1.
         -3    1    6    6    0  503  0.15360880879E+03  0.19486733393E+03  0.10238746193E+03  0.26842529003E+03  0.00000000000E+00 0.  1.
<mgrwt>
<rscale>  0 0.81695523E+03</rscale>
<asrwt>0</asrwt>
<pdfrwt beam="1">  1        1 0.23110790E+00 0.81695523E+03</pdfrwt>
<pdfrwt beam="2">  1       -1 0.86153739E-01 0.81695523E+03</pdfrwt>
<totfact> 0.89178256E+00</totfact>
</mgrwt>
</event>
<event>
12    1  0.9321077E-008  0.6934442E+03  0.7818608E-02  0.9728510E-01
          2   -1    0    0  501    0  0.00000000000E+00  0.00000000000E+00  0.15714344250E+04  0.15714344250E+04  0.00000000000E+00 0. -1.
         -2   -1    0    0    0  501 -0.00000000000E+00 -0.00000000000E+00 -0.32342619473E+03  0.32342619473E+03  0.00000000000E+00 0.  1.
         23    2    1    2    0    0  0.35456826989E+03 -0.46254543188E+03  0.50796695596E+03  0.77794171036E+03  0.86579107254E+02 0.  0.
    5000000    2    1    2    0    0 -0.35456826989E+03  0.46254543188E+03  0.74004127434E+03  0.11169189094E+04  0.60014983784E+03 0.  0.
         23    2    4    4    0    0 -0.40001044825E+03  0.68607622482E+02  0.47431349097E+03  0.63094438737E+03  0.91663338749E+02 0.  0.
         23    2    4    4    0    0  0.45442178360E+02  0.39393780940E+03  0.26572778337E+03  0.48597452202E+03  0.91148186748E+02 0.  0.
          4    1    3    3  502    0  0.35371201214E+03 -0.45531602785E+03  0.48364585107E+03  0.75255443791E+03  0.00000000000E+00 0. -1.
         -4    1    3    3    0  502  0.85625774272E+00 -0.72294040310E+01  0.24321104885E+02  0.25387272457E+02  0.00000000000E+00 0.  1.
         15    1    5    5    0    0 -0.27127501763E+03  0.41087190276E+02  0.25182548416E+03  0.37242116562E+03  0.17770000000E+01 0. -1.
        -15    1    5    5    0    0 -0.12873543061E+03  0.27520432206E+02  0.22248800681E+03  0.25852322176E+03  0.17770000000E+01 0.  1.
          1    1    6    6  503    0  0.29537426461E+02  0.17285342671E+03  0.65248404047E+02  0.18710457215E+03  0.00000000000E+00 0. -1.
         -1    1    6    6    0  503  0.15904751899E+02  0.22108438269E+03  0.20047937932E+03  0.29886994987E+03  0.00000000000E+00 0.  1.
<mgrwt>
<rscale>  0 0.69344421E+03</rscale>
<asrwt>0</asrwt>
<pdfrwt beam="1">  1        2 0.24175914E+00 0.69344421E+03</pdfrwt>
<pdfrwt beam="2">  1       -2 0.49757877E-01 0.69344421E+03</pdfrwt>
<totfact> 0.45538550E+01</totfact>
</mgrwt>
</event>
<event>
12    1  0.9321077E-008  0.7670253E+03  0.7818608E-02  0.9609013E-01
          2   -1    0    0  501    0  0.00000000000E+00  0.00000000000E+00  0.10079063980E+04  0.10079063980E+04  0.00000000000E+00 0. -1.
         -2   -1    0    0    0  501 -0.00000000000E+00 -0.00000000000E+00 -0.80241462976E+03  0.80241462976E+03  0.00000000000E+00 0.  1.
         23    2    1    2    0    0 -0.35270177062E+03 -0.64595356484E+03  0.39078083484E+03  0.84288333329E+03  0.12683889676E+03 0.  0.
    5000000    2    1    2    0    0  0.35270177062E+03  0.64595356484E+03 -0.18528906664E+03  0.96743769443E+03  0.59995758805E+03 0.  0.
         23    2    4    4    0    0  0.24079751211E+03  0.21268592029E+03 -0.34884823296E+03  0.48326739707E+03  0.92916870914E+02 0.  0.
         23    2    4    4    0    0  0.11190425851E+03  0.43326764455E+03  0.16355916631E+03  0.48417029737E+03  0.86173436030E+02 0.  0.
          4    1    3    3  502    0 -0.48372754407E+02 -0.19598628750E+03  0.13182806423E+03  0.24109995184E+03  0.00000000000E+00 0.  1.
         -4    1    3    3    0  502 -0.30432901622E+03 -0.44996727734E+03  0.25895277061E+03  0.60178338145E+03  0.00000000000E+00 0. -1.
         15    1    5    5    0    0  0.90174013700E+02  0.25633411366E+02 -0.86138540232E+02  0.12732411542E+03  0.17770000000E+01 0.  1.
        -15    1    5    5    0    0  0.15062349841E+03  0.18705250892E+03 -0.26270969273E+03  0.35594328165E+03  0.17770000000E+01 0. -1.
          4    1    6    6  503    0  0.11936362606E+03  0.32023869104E+03  0.11135372360E+03  0.35944421852E+03  0.00000000000E+00 0. -1.
         -4    1    6    6    0  503 -0.74593675476E+01  0.11302895351E+03  0.52205442717E+02  0.12472607885E+03  0.00000000000E+00 0.  1.
<mgrwt>
<rscale>  0 0.76702532E+03</rscale>
<asrwt>0</asrwt>
<pdfrwt beam="1">  1        2 0.15506252E+00 0.76702532E+03</pdfrwt>
<pdfrwt beam="2">  1       -2 0.12344841E+00 0.76702532E+03</pdfrwt>
<totfact> 0.12504188E+01</totfact>
</mgrwt>
</event>
<event>
12    1  0.9321077E-008  0.5650930E+03  0.7818608E-02  0.9980596E-01
         -2   -1    0    0    0  501 -0.00000000000E+00  0.00000000000E+00  0.15123812128E+03  0.15123812128E+03  0.00000000000E+00 0.  1.
          2   -1    0    0  501    0  0.00000000000E+00 -0.00000000000E+00 -0.42681511871E+04  0.42681511871E+04  0.00000000000E+00 0. -1.
         23    2    1    2    0    0 -0.39645391684E+03 -0.38379430355E+03 -0.64753083308E+03  0.85553756628E+03  0.90413339196E+02 0.  0.
    5000000    2    1    2    0    0  0.39645391684E+03  0.38379430355E+03 -0.34693822327E+04  0.35638517421E+04  0.59996032140E+03 0.  0.
         23    2    4    4    0    0  0.44271306329E+02  0.83033736069E+02 -0.22839863939E+04  0.22877156612E+04  0.90523748488E+02 0.  0.
         23    2    4    4    0    0  0.35218261051E+03  0.30076056748E+03 -0.11853958388E+04  0.12761360809E+04  0.94183290356E+02 0.  0.
          1    1    3    3  502    0 -0.29956609009E+03 -0.33710717017E+03 -0.53831874906E+03  0.70225932682E+03  0.00000000000E+00 0. -1.
         -1    1    3    3    0  502 -0.96887826746E+02 -0.46687133373E+02 -0.10921208402E+03  0.15327823946E+03  0.00000000000E+00 0.  1.
         15    1    5    5    0    0  0.14719011227E+02 -0.28421395633E+01 -0.59826980538E+02  0.61702126204E+02  0.17770000000E+01 0.  1.
        -15    1    5    5    0    0  0.29552295101E+02  0.85875875632E+02 -0.22241594133E+04  0.22260135350E+04  0.17770000000E+01 0. -1.
          3    1    6    6  503    0  0.90371630130E+02  0.50396806642E+02 -0.18210029725E+03  0.20944542943E+03  0.00000000000E+00 0. -1.
         -3    1    6    6    0  503  0.26181098038E+03  0.25036376083E+03 -0.10032955416E+04  0.10666906515E+04  0.00000000000E+00 0.  1.
<mgrwt>
<rscale>  0 0.56509304E+03</rscale>
<asrwt>0</asrwt>
<pdfrwt beam="1">  1        2 0.65663858E+00 0.56509304E+03</pdfrwt>
<pdfrwt beam="2">  1       -2 0.23267406E-01 0.56509304E+03</pdfrwt>
<totfact> 0.38854276E+00</totfact>
</mgrwt>
</event>
<event>
12    1  0.9321077E-008  0.9807448E+03  0.7818608E-02  0.9329919E-01
          2   -1    0    0  501    0  0.00000000000E+00  0.00000000000E+00  0.20724553270E+04  0.20724553270E+04  0.00000000000E+00 0. -1.
         -2   -1    0    0    0  501 -0.00000000000E+00 -0.00000000000E+00 -0.50956192444E+03  0.50956192444E+03  0.00000000000E+00 0.  1.
         23    2    1    2    0    0 -0.60332867006E+03  0.65067815949E+03  0.33564107178E+03  0.95308614689E+03  0.91272794187E+02 0.  0.
    5000000    2    1    2    0    0  0.60332867006E+03 -0.65067815949E+03  0.12272523308E+04  0.16289311045E+04  0.59990058226E+03 0.  0.
         23    2    4    4    0    0  0.52009200608E+03 -0.14028084698E+03  0.63059072313E+03  0.83426625755E+03  0.90449530556E+02 0.  0.
         23    2    4    4    0    0  0.83236663981E+02 -0.51039731252E+03  0.59666160763E+03  0.79466484698E+03  0.89740660501E+02 0.  0.
          1    1    3    3  502    0 -0.32907041859E+03  0.29199159786E+03  0.14864644825E+03  0.46437291070E+03  0.00000000000E+00 0. -1.
         -1    1    3    3    0  502 -0.27425825147E+03  0.35868656163E+03  0.18699462353E+03  0.48871323619E+03  0.00000000000E+00 0.  1.
         15    1    5    5    0    0  0.28850782741E+03 -0.34106687138E+02  0.36014891436E+03  0.46272068338E+03  0.17770000000E+01 0. -1.
        -15    1    5    5    0    0  0.23158417867E+03 -0.10617415984E+03  0.27044180876E+03  0.37154557417E+03  0.17770000000E+01 0.  1.
          1    1    6    6  503    0 -0.11543391168E+02 -0.95008549962E+01  0.20130140301E+02  0.25074661988E+02  0.00000000000E+00 0. -1.
         -1    1    6    6    0  503  0.94780055148E+02 -0.50089645752E+03  0.57653146733E+03  0.76959018499E+03  0.00000000000E+00 0.  1.
<mgrwt>
<rscale>  0 0.98074475E+03</rscale>
<asrwt>0</asrwt>
<pdfrwt beam="1">  1        2 0.31883928E+00 0.98074475E+03</pdfrwt>
<pdfrwt beam="2">  1       -2 0.78394143E-01 0.98074475E+03</pdfrwt>
<totfact> 0.88561491E+00</totfact>
</mgrwt>
</event>
<event>
12    1  0.9321077E-008  0.1195950E+04  0.7818608E-02  0.9116409E-01
          2   -1    0    0  501    0  0.00000000000E+00  0.00000000000E+00  0.28945568220E+04  0.28945568220E+04  0.00000000000E+00 0. -1.
         -2   -1    0    0    0  501 -0.00000000000E+00 -0.00000000000E+00 -0.63382555663E+03  0.63382555663E+03  0.00000000000E+00 0.  1.
         23    2    1    2    0    0 -0.11395605596E+04  0.24883354558E+01  0.18532607365E+04  0.21776463815E+04  0.94678110867E+02 0.  0.
    5000000    2    1    2    0    0  0.11395605596E+04 -0.24883354558E+01  0.40747052887E+03  0.13507359971E+04  0.59987585480E+03 0.  0.
         23    2    4    4    0    0  0.85347578910E+03  0.22442986345E+03  0.16448978458E+03  0.90302505922E+03  0.98018784677E+02 0.  0.
         23    2    4    4    0    0  0.28608477051E+03 -0.22691819891E+03  0.24298074429E+03  0.44771093790E+03  0.89828040739E+02 0.  0.
          3    1    3    3  502    0 -0.93250169454E+03  0.30356843810E+02  0.14684606452E+04  0.17397866578E+04  0.00000000000E+00 0. -1.
         -3    1    3    3    0  502 -0.20705886507E+03 -0.27868508354E+02  0.38480009131E+03  0.43785972369E+03  0.00000000000E+00 0.  1.
         15    1    5    5    0    0  0.35894866076E+03  0.11989808456E+03  0.11296681416E+03  0.39494854168E+03  0.17770000000E+01 0.  1.
        -15    1    5    5    0    0  0.49452712834E+03  0.10453177889E+03  0.51522970420E+02  0.50807651754E+03  0.17770000000E+01 0. -1.
          4    1    6    6  503    0  0.55072154839E+02 -0.57324636505E+02  0.99088698048E+02  0.12703395715E+03  0.00000000000E+00 0. -1.
         -4    1    6    6    0  503  0.23101261567E+03 -0.16959356241E+03  0.14389204625E+03  0.32067698074E+03  0.00000000000E+00 0.  1.
<mgrwt>
<rscale>  0 0.11959503E+04</rscale>
<asrwt>0</asrwt>
<pdfrwt beam="1">  1        2 0.44531642E+00 0.11959503E+04</pdfrwt>
<pdfrwt beam="2">  1       -2 0.97511626E-01 0.11959503E+04</pdfrwt>
<totfact> 0.17565896E+00</totfact>
</mgrwt>
</event>
<event>
12    1  0.9321077E-008  0.4776788E+03  0.7818608E-02  0.1019775E+00
         -2   -1    0    0    0  501 -0.00000000000E+00  0.00000000000E+00  0.12255576685E+03  0.12255576685E+03  0.00000000000E+00 0.  1.
          2   -1    0    0  501    0  0.00000000000E+00 -0.00000000000E+00 -0.29059082948E+04  0.29059082948E+04  0.00000000000E+00 0. -1.
         23    2    1    2    0    0  0.31395079473E+03 -0.29423038621E+03 -0.12861210972E+04  0.13593727130E+04  0.93005776622E+02 0.  0.
    5000000    2    1    2    0    0 -0.31395079473E+03  0.29423038621E+03 -0.14972314308E+04  0.16690913487E+04  0.59918891118E+03 0.  0.
         23    2    4    4    0    0  0.32564647746E+02  0.86515536337E+02 -0.10555345379E+04  0.10635388000E+04  0.91739980629E+02 0.  0.
         23    2    4    4    0    0 -0.34651544248E+03  0.20771484988E+03 -0.44169689291E+03  0.60555254874E+03  0.91538698627E+02 0.  0.
          3    1    3    3  502    0  0.21296399611E+03 -0.23640476838E+03 -0.10306132304E+04  0.10786123070E+04  0.00000000000E+00 0. -1.
         -3    1    3    3    0  502  0.10098679862E+03 -0.57825617828E+02 -0.25550786680E+03  0.28076040598E+03  0.00000000000E+00 0.  1.
         15    1    5    5    0    0  0.54198421091E+01 -0.81081381455E+01 -0.44549203460E+03  0.44560231958E+03  0.17770000000E+01 0. -1.
        -15    1    5    5    0    0  0.27144805637E+02  0.94623674483E+02 -0.61004250333E+03  0.61793648042E+03  0.17770000000E+01 0.  1.
          2    1    6    6  503    0 -0.99498543404E+02  0.10574817066E+03 -0.12905259268E+03  0.19426066873E+03  0.00000000000E+00 0. -1.
         -2    1    6    6    0  503 -0.24701689907E+03  0.10196667922E+03 -0.31264430023E+03  0.41129188001E+03  0.00000000000E+00 0.  1.
<mgrwt>
<rscale>  0 0.47767882E+03</rscale>
<asrwt>0</asrwt>
<pdfrwt beam="1">  1        2 0.44706280E+00 0.47767882E+03</pdfrwt>
<pdfrwt beam="2">  1       -2 0.18854734E-01 0.47767882E+03</pdfrwt>
<totfact> 0.52082266E+01</totfact>
</mgrwt>
</event>
<event>
12    1  0.9321077E-008  0.1306331E+04  0.7818608E-02  0.9024559E-01
         -1   -1    0    0    0  501 -0.00000000000E+00  0.00000000000E+00  0.13219346323E+04  0.13219346323E+04  0.00000000000E+00 0.  1.
          1   -1    0    0  501    0  0.00000000000E+00 -0.00000000000E+00 -0.15208591092E+04  0.15208591092E+04  0.00000000000E+00 0. -1.
         23    2    1    2    0    0  0.53191424954E+02  0.12759568171E+04 -0.54272501717E+03  0.13905041061E+04  0.89755768961E+02 0.  0.
    5000000    2    1    2    0    0 -0.53191424954E+02 -0.12759568171E+04  0.34380054021E+03  0.14522896354E+04  0.60004270435E+03 0.  0.
         23    2    4    4    0    0  0.11488823366E+03 -0.92018490970E+03  0.44824099608E+03  0.10345472871E+04  0.97100589420E+02 0.  0.
         23    2    4    4    0    0 -0.16807965861E+03 -0.35577190735E+03 -0.10444045586E+03  0.41774234830E+03  0.93682650677E+02 0.  0.
          4    1    3    3  502    0 -0.79521253372E+01  0.77099155373E+03 -0.30739126472E+03  0.83004855391E+03  0.00000000000E+00 0.  1.
         -4    1    3    3    0  502  0.61143550291E+02  0.50496526332E+03 -0.23533375246E+03  0.56045555216E+03  0.00000000000E+00 0. -1.
         15    1    5    5    0    0  0.15688997867E+02 -0.31220426652E+03  0.19544026499E+03  0.36867018267E+03  0.17770000000E+01 0. -1.
        -15    1    5    5    0    0  0.99199235794E+02 -0.60798064318E+03  0.25280073109E+03  0.66587710445E+03  0.17770000000E+01 0.  1.
          3    1    6    6  503    0 -0.13750000184E+03 -0.18303546403E+03 -0.53973937831E+02  0.23520505429E+03  0.00000000000E+00 0. -1.
         -3    1    6    6    0  503 -0.30579656772E+02 -0.17273644333E+03 -0.50466518034E+02  0.18253729401E+03  0.00000000000E+00 0.  1.
<mgrwt>
<rscale>  0 0.13063315E+04</rscale>
<asrwt>0</asrwt>
<pdfrwt beam="1">  1        1 0.23397833E+00 0.13063315E+04</pdfrwt>
<pdfrwt beam="2">  1       -1 0.20337456E+00 0.13063315E+04</pdfrwt>
<totfact> 0.87324002E-01</totfact>
</mgrwt>
</event>
<event>
12    1  0.9321077E-008  0.5051849E+03  0.7818608E-02  0.1012434E+00
          2   -1    0    0  501    0  0.00000000000E+00  0.00000000000E+00  0.28970850428E+04  0.28970850428E+04  0.00000000000E+00 0. -1.
         -2   -1    0    0    0  501 -0.00000000000E+00 -0.00000000000E+00 -0.14008644330E+03  0.14008644330E+03  0.00000000000E+00 0.  1.
         23    2    1    2    0    0  0.24664314025E+03  0.42054057826E+03  0.12111154947E+04  0.13088239431E+04  0.92369670761E+02 0.  0.
    5000000    2    1    2    0    0 -0.24664314025E+03 -0.42054057826E+03  0.15458831048E+04  0.17283475429E+04  0.59978616098E+03 0.  0.
         23    2    4    4    0    0 -0.12137695615E+03 -0.25398011208E+03  0.14515126241E+04  0.14815549393E+04  0.94222488933E+02 0.  0.
         23    2    4    4    0    0 -0.12526618411E+03 -0.16656046617E+03  0.94370480709E+02  0.24679260366E+03  0.92556986867E+02 0.  0.
          4    1    3    3  502    0  0.16441293788E+03  0.28843783740E+03  0.93045028440E+03  0.98790977924E+03  0.00000000000E+00 0. -1.
         -4    1    3    3    0  502  0.82230202378E+02  0.13210274085E+03  0.28066521027E+03  0.32091416388E+03  0.00000000000E+00 0.  1.
         15    1    5    5    0    0 -0.13195971148E+03 -0.18681733611E+03  0.11024448133E+04  0.11259226468E+04  0.17770000000E+01 0. -1.
        -15    1    5    5    0    0  0.10582755330E+02 -0.67162775969E+02  0.34906781079E+03  0.35563229246E+03  0.17770000000E+01 0.  1.
          3    1    6    6  503    0 -0.81978464889E+02 -0.16315561950E+03  0.62737531401E+02  0.19307051232E+03  0.00000000000E+00 0. -1.
         -3    1    6    6    0  503 -0.43287719217E+02 -0.34048466719E+01  0.31632949308E+02  0.53722091338E+02  0.00000000000E+00 0.  1.
<mgrwt>
<rscale>  0 0.50518492E+03</rscale>
<asrwt>0</asrwt>
<pdfrwt beam="1">  1        2 0.44570534E+00 0.50518492E+03</pdfrwt>
<pdfrwt beam="2">  1       -2 0.21551763E-01 0.50518492E+03</pdfrwt>
<totfact> 0.41518975E+01</totfact>
</mgrwt>
</event>
<event>
12    1  0.9321077E-008  0.1196227E+04  0.7818608E-02  0.9116165E-01
          2   -1    0    0  501    0  0.00000000000E+00  0.00000000000E+00  0.21019857552E+04  0.21019857552E+04  0.00000000000E+00 0. -1.
         -2   -1    0    0    0  501 -0.00000000000E+00 -0.00000000000E+00 -0.68696448596E+03  0.68696448596E+03  0.00000000000E+00 0.  1.
         23    2    1    2    0    0  0.11174830985E+04 -0.11944173588E+03  0.62589348758E+03  0.12903685295E+04  0.10135817944E+03 0.  0.
    5000000    2    1    2    0    0 -0.11174830985E+04  0.11944173588E+03  0.78912778167E+03  0.14985817116E+04  0.59999140572E+03 0.  0.
         23    2    4    4    0    0 -0.33363230465E+03 -0.22575176357E+03  0.27873728200E+03  0.49710966172E+03  0.84552764240E+02 0.  0.
         23    2    4    4    0    0 -0.78385079384E+03  0.34519349945E+03  0.51039049967E+03  0.10014720499E+04  0.94165734318E+02 0.  0.
          4    1    3    3  502    0  0.75318923898E+03 -0.75092404405E+02  0.36662581500E+03  0.84103946824E+03  0.00000000000E+00 0. -1.
         -4    1    3    3    0  502  0.36429385951E+03 -0.44349331473E+02  0.25926767258E+03  0.44932906130E+03  0.00000000000E+00 0.  1.
         15    1    5    5    0    0 -0.12013024878E+03 -0.13112745971E+03  0.11232945754E+03  0.21034911961E+03  0.17770000000E+01 0.  1.
        -15    1    5    5    0    0 -0.21350205587E+03 -0.94624303867E+02  0.16640782446E+03  0.28676054211E+03  0.17770000000E+01 0. -1.
          2    1    6    6  503    0 -0.30875406884E+03  0.11792403285E+03  0.24711058740E+03  0.41267274559E+03  0.00000000000E+00 0. -1.
         -2    1    6    6    0  503 -0.47509672500E+03  0.22726946660E+03  0.26327991227E+03  0.58879930431E+03  0.00000000000E+00 0.  1.
<mgrwt>
<rscale>  0 0.11962275E+04</rscale>
<asrwt>0</asrwt>
<pdfrwt beam="1">  1        2 0.32338242E+00 0.11962275E+04</pdfrwt>
<pdfrwt beam="2">  1       -2 0.10568685E+00 0.11962275E+04</pdfrwt>
<totfact> 0.41530373E+00</totfact>
</mgrwt>
</event>
<event>
12    1  0.9321077E-008  0.9962917E+03  0.7818608E-02  0.9312621E-01
          2   -1    0    0  501    0  0.00000000000E+00  0.00000000000E+00  0.29241531643E+04  0.29241531643E+04  0.00000000000E+00 0. -1.
         -2   -1    0    0    0  501 -0.00000000000E+00 -0.00000000000E+00 -0.52535333357E+03  0.52535333357E+03  0.00000000000E+00 0.  1.
         23    2    1    2    0    0  0.91541893082E+03 -0.36268710941E+03  0.26418659188E+03  0.10234117092E+04  0.89683961595E+02 0.  0.
    5000000    2    1    2    0    0 -0.91541893082E+03  0.36268710941E+03  0.21346132388E+04  0.24260947887E+04  0.59985705459E+03 0.  0.
         23    2    4    4    0    0 -0.76948258209E+03  0.33031378598E+03  0.20815525133E+04  0.22455472596E+04  0.91711437539E+02 0.  0.
         23    2    4    4    0    0 -0.14593634873E+03  0.32373323424E+02  0.53060725474E+02  0.18054752909E+03  0.86235257994E+02 0.  0.
          1    1    3    3  502    0  0.31907749900E+03 -0.10296343592E+03  0.12787157022E+03  0.35883569774E+03  0.00000000000E+00 0. -1.
         -1    1    3    3    0  502  0.59634143182E+03 -0.25972367349E+03  0.13631502166E+03  0.66457601146E+03  0.00000000000E+00 0.  1.
         15    1    5    5    0    0 -0.66996752795E+03  0.29575197380E+03  0.18900805115E+04  0.20270010401E+04  0.17770000000E+01 0. -1.
        -15    1    5    5    0    0 -0.99515054137E+02  0.34561812180E+02  0.19147200180E+03  0.21854621951E+03  0.17770000000E+01 0.  1.
          3    1    6    6  503    0 -0.41924948161E+02  0.48268827389E+02  0.29423237179E+01  0.64001861260E+02  0.00000000000E+00 0. -1.
         -3    1    6    6    0  503 -0.10401140057E+03 -0.15895503966E+02  0.50118401756E+02  0.11654566783E+03  0.00000000000E+00 0.  1.
<mgrwt>
<rscale>  0 0.99629168E+03</rscale>
<asrwt>0</asrwt>
<pdfrwt beam="1">  1        2 0.44986971E+00 0.99629168E+03</pdfrwt>
<pdfrwt beam="2">  1       -2 0.80823592E-01 0.99629168E+03</pdfrwt>
<totfact> 0.26743146E+00</totfact>
</mgrwt>
</event>
<event>
12    1  0.9321077E-008  0.9274099E+03  0.7818608E-02  0.9391952E-01
         -2   -1    0    0    0  501 -0.00000000000E+00  0.00000000000E+00  0.38274595067E+03  0.38274595067E+03  0.00000000000E+00 0.  1.
          2   -1    0    0  501    0  0.00000000000E+00 -0.00000000000E+00 -0.50173272919E+04  0.50173272919E+04  0.00000000000E+00 0. -1.
         23    2    1    2    0    0  0.14239445101E+03 -0.85957770554E+03 -0.28146898089E+03  0.92026393445E+03  0.92254595022E+02 0.  0.
    5000000    2    1    2    0    0 -0.14239445101E+03  0.85957770554E+03 -0.43531123603E+04  0.44798093081E+04  0.59996183531E+03 0.  0.
         23    2    4    4    0    0  0.48987384966E+02  0.76238206888E+03 -0.38375588146E+04  0.39139320387E+04  0.91543239773E+02 0.  0.
         23    2    4    4    0    0 -0.19138183597E+03  0.97195636665E+02 -0.51555354572E+03  0.56587726946E+03  0.91365347144E+02 0.  0.
          3    1    3    3  502    0  0.98690128673E+02 -0.73352194213E+03 -0.21227265183E+03  0.76997003825E+03  0.00000000000E+00 0. -1.
         -3    1    3    3    0  502  0.43704322335E+02 -0.12605576341E+03 -0.69196329063E+02  0.15029389620E+03  0.00000000000E+00 0.  1.
         15    1    5    5    0    0 -0.81728748733E+01  0.31192002136E+03 -0.13878673230E+04  0.14225117783E+04  0.17770000000E+01 0. -1.
        -15    1    5    5    0    0  0.57160259840E+02  0.45046204752E+03 -0.24496914916E+04  0.24914202603E+04  0.17770000000E+01 0.  1.
          2    1    6    6  503    0 -0.11101615455E+03  0.64551102823E+02 -0.19267147601E+03  0.23154638653E+03  0.00000000000E+00 0. -1.
         -2    1    6    6    0  503 -0.80365681420E+02  0.32644533842E+02 -0.32288206971E+03  0.33433088293E+03  0.00000000000E+00 0.  1.
<mgrwt>
<rscale>  0 0.92740991E+03</rscale>
<asrwt>0</asrwt>
<pdfrwt beam="1">  1        2 0.77189649E+00 0.92740991E+03</pdfrwt>
<pdfrwt beam="2">  1       -2 0.58883993E-01 0.92740991E+03</pdfrwt>
<totfact> 0.99019618E-02</totfact>
</mgrwt>
</event>
<event>
12    1  0.9321077E-008  0.8176316E+03  0.7818608E-02  0.9534841E-01
          2   -1    0    0  501    0  0.00000000000E+00  0.00000000000E+00  0.43915120007E+03  0.43915120007E+03  0.00000000000E+00 0. -1.
         -2   -1    0    0    0  501 -0.00000000000E+00 -0.00000000000E+00 -0.18692860455E+04  0.18692860455E+04  0.00000000000E+00 0.  1.
         23    2    1    2    0    0 -0.79041830035E+03 -0.10783727639E+03 -0.51268173768E+03  0.95268567100E+03  0.91528442946E+02 0.  0.
    5000000    2    1    2    0    0  0.79041830035E+03  0.10783727639E+03 -0.91745310777E+03  0.13557515746E+04  0.59996013145E+03 0.  0.
         23    2    4    4    0    0  0.37601632161E+03  0.14692848542E+03 -0.86770076158E+02  0.42263500392E+03  0.90083552762E+02 0.  0.
         23    2    4    4    0    0  0.41440197874E+03 -0.39091209027E+02 -0.83068303161E+03  0.93311657066E+03  0.86111049450E+02 0.  0.
          1    1    3    3  502    0 -0.42573101995E+03 -0.18531879608E+02 -0.24465834583E+03  0.49137362373E+03  0.00000000000E+00 0. -1.
         -1    1    3    3    0  502 -0.36468728040E+03 -0.89305396785E+02 -0.26802339185E+03  0.46131204727E+03  0.00000000000E+00 0.  1.
         15    1    5    5    0    0  0.94915863730E+02  0.76177652199E+02 -0.44991253459E+02  0.12976681586E+03  0.17770000000E+01 0.  1.
        -15    1    5    5    0    0  0.28110045788E+03  0.70750833220E+02 -0.41778822699E+02  0.29286818806E+03  0.17770000000E+01 0. -1.
          1    1    6    6  503    0  0.22270653302E+03 -0.55990046537E+02 -0.39649776265E+03  0.45819598531E+03  0.00000000000E+00 0. -1.
         -1    1    6    6    0  503  0.19169544572E+03  0.16898837510E+02 -0.43418526896E+03  0.47492058536E+03  0.00000000000E+00 0.  1.
<mgrwt>
<rscale>  0 0.81763165E+03</rscale>
<asrwt>0</asrwt>
<pdfrwt beam="1">  1        2 0.67561724E-01 0.81763165E+03</pdfrwt>
<pdfrwt beam="2">  1       -2 0.28758246E+00 0.81763165E+03</pdfrwt>
<totfact> 0.27834901E+00</totfact>
</mgrwt>
</event>
<event>
12    1  0.9321077E-008  0.1220092E+04  0.7818608E-02  0.9095450E-01
         -1   -1    0    0    0  501 -0.00000000000E+00  0.00000000000E+00  0.82280073283E+03  0.82280073283E+03  0.00000000000E+00 0.  1.
          1   -1    0    0  501    0  0.00000000000E+00 -0.00000000000E+00 -0.22283375667E+04  0.22283375667E+04  0.00000000000E+00 0. -1.
         23    2    1    2    0    0  0.10551892025E+04 -0.55197931008E+03 -0.12155733825E+04  0.17041441721E+04  0.91560359268E+02 0.  0.
    5000000    2    1    2    0    0 -0.10551892025E+04  0.55197931008E+03 -0.18996345135E+03  0.13469941274E+04  0.60016802199E+03 0.  0.
         23    2    4    4    0    0 -0.66598079956E+02  0.12808842392E+03  0.13696354489E+03  0.21910298607E+03  0.91679644843E+02 0.  0.
         23    2    4    4    0    0 -0.98859112251E+03  0.42389088616E+03 -0.32692699624E+03  0.11278911413E+04  0.90891555858E+02 0.  0.
          3    1    3    3  502    0  0.32017411439E+03 -0.21037934786E+03 -0.41829259523E+03  0.56722096995E+03  0.00000000000E+00 0. -1.
         -3    1    3    3    0  502  0.73501508807E+03 -0.34159996223E+03 -0.79728078730E+03  0.11369232022E+04  0.00000000000E+00 0.  1.
         15    1    5    5    0    0 -0.67800212896E+02  0.14170093618E+03  0.12825188644E+03  0.20279972457E+03  0.17770000000E+01 0.  1.
        -15    1    5    5    0    0  0.12021329394E+01 -0.13612512254E+02  0.87116584522E+01  0.16303261498E+02  0.17770000000E+01 0. -1.
          3    1    6    6  503    0 -0.42214670285E+03  0.18634666163E+03 -0.18713370286E+03  0.49794772795E+03  0.00000000000E+00 0. -1.
         -3    1    6    6    0  503 -0.56644441966E+03  0.23754422453E+03 -0.13979329338E+03  0.62994341337E+03  0.00000000000E+00 0.  1.
<mgrwt>
<rscale>  0 0.12200918E+04</rscale>
<asrwt>0</asrwt>
<pdfrwt beam="1">  1        1 0.34282116E+00 0.12200918E+04</pdfrwt>
<pdfrwt beam="2">  1       -1 0.12658473E+00 0.12200918E+04</pdfrwt>
<totfact> 0.11109735E+00</totfact>
</mgrwt>
</event>
<event>
12    1  0.9321077E-008  0.5700522E+03  0.7818608E-02  0.9969563E-01
          2   -1    0    0  501    0  0.00000000000E+00  0.00000000000E+00  0.67503731490E+03  0.67503731490E+03  0.00000000000E+00 0.  1.
         -2   -1    0    0    0  501 -0.00000000000E+00 -0.00000000000E+00 -0.54137180724E+03  0.54137180724E+03  0.00000000000E+00 0. -1.
         23    2    1    2    0    0  0.42046060131E+03  0.13746621433E+03  0.13346098025E+03  0.47094661375E+03  0.91075805891E+02 0.  0.
    5000000    2    1    2    0    0 -0.42046060131E+03 -0.13746621433E+03  0.20452740423E+00  0.74546250838E+03  0.60002519300E+03 0.  0.
         23    2    4    4    0    0  0.10253026110E+03  0.19117230260E+02 -0.11420328119E+03  0.18019237300E+03  0.92460688513E+02 0.  0.
         23    2    4    4    0    0 -0.52299086241E+03 -0.15658344459E+03  0.11440780859E+03  0.56527013538E+03  0.91669853256E+02 0.  0.
          4    1    3    3  502    0  0.32995997618E+03  0.78561099463E+02  0.72149455460E+02  0.34677222517E+03  0.00000000000E+00 0. -1.
         -4    1    3    3    0  502  0.90500625134E+02  0.58905114868E+02  0.61311524793E+02  0.12417438858E+03  0.00000000000E+00 0.  1.
         15    1    5    5    0    0  0.10480795834E+02 -0.32241298971E+02 -0.28704287755E+02  0.44457196326E+02  0.17770000000E+01 0. -1.
        -15    1    5    5    0    0  0.92049465266E+02  0.51358529231E+02 -0.85498993434E+02  0.13573517668E+03  0.17770000000E+01 0.  1.
          4    1    6    6  503    0 -0.10535800868E+03 -0.71574818086E+02  0.25423663485E+02  0.12988312917E+03  0.00000000000E+00 0. -1.
         -4    1    6    6    0  503 -0.41763285373E+03 -0.85008626505E+02  0.88984145108E+02  0.43538700621E+03  0.00000000000E+00 0.  1.
<mgrwt>
<rscale>  0 0.57005222E+03</rscale>
<asrwt>0</asrwt>
<pdfrwt beam="1">  1        2 0.10385189E+00 0.57005222E+03</pdfrwt>
<pdfrwt beam="2">  1       -2 0.83287970E-01 0.57005222E+03</pdfrwt>
<totfact> 0.55633641E+01</totfact>
</mgrwt>
</event>
<event>
12    1  0.9321077E-008  0.5747757E+03  0.7818608E-02  0.9959166E-01
          1   -1    0    0  501    0  0.00000000000E+00  0.00000000000E+00  0.27745320881E+03  0.27745320881E+03  0.00000000000E+00 0. -1.
         -1   -1    0    0    0  501 -0.00000000000E+00 -0.00000000000E+00 -0.12433980491E+04  0.12433980491E+04  0.00000000000E+00 0.  1.
         23    2    1    2    0    0  0.34116996757E+03 -0.25779300029E+03 -0.33505636934E+03  0.55090214915E+03  0.91521743513E+02 0.  0.
    5000000    2    1    2    0    0 -0.34116996757E+03  0.25779300029E+03 -0.63088847094E+03  0.96994910875E+03  0.59993902442E+03 0.  0.
         23    2    4    4    0    0  0.10242397338E+03  0.23744789350E+03 -0.31382123484E+03  0.41683619485E+03  0.91632272958E+02 0.  0.
         23    2    4    4    0    0 -0.44359394095E+03  0.20345106781E+02 -0.31706723610E+03  0.55311291390E+03  0.90624254469E+02 0.  0.
          2    1    3    3  502    0  0.26213116546E+03 -0.14803299709E+03 -0.24812148281E+03  0.39011637541E+03  0.00000000000E+00 0. -1.
         -2    1    3    3    0  502  0.79038802112E+02 -0.10976000320E+03 -0.86934886532E+02  0.16078577374E+03  0.00000000000E+00 0.  1.
         15    1    5    5    0    0  0.13599478164E+02  0.12492154112E+03 -0.18770044236E+03  0.22588703157E+03  0.17770000000E+01 0. -1.
        -15    1    5    5    0    0  0.88824495211E+02  0.11252635239E+03 -0.12612079248E+03  0.19094916328E+03  0.17770000000E+01 0.  1.
          1    1    6    6  503    0 -0.30485550171E+03  0.19324642689E+02 -0.16469006056E+03  0.34703477460E+03  0.00000000000E+00 0. -1.
         -1    1    6    6    0  503 -0.13873843924E+03  0.10204640921E+01 -0.15237717554E+03  0.20607813930E+03  0.00000000000E+00 0.  1.
<mgrwt>
<rscale>  0 0.57477574E+03</rscale>
<asrwt>0</asrwt>
<pdfrwt beam="1">  1        1 0.42685108E-01 0.57477574E+03</pdfrwt>
<pdfrwt beam="2">  1       -1 0.19129201E+00 0.57477574E+03</pdfrwt>
<totfact> 0.17623435E+01</totfact>
</mgrwt>
</event>
<event>
12    1  0.9321077E-008  0.1246106E+04  0.7818608E-02  0.9073431E-01
         -2   -1    0    0    0  501 -0.00000000000E+00  0.00000000000E+00  0.15270603686E+04  0.15270603686E+04  0.00000000000E+00 0.  1.
          2   -1    0    0  501    0  0.00000000000E+00 -0.00000000000E+00 -0.10926167997E+04  0.10926167997E+04  0.00000000000E+00 0. -1.
         23    2    1    2    0    0  0.81333483088E+02 -0.11795036619E+04 -0.10083052708E+03  0.11898972442E+04  0.88569930436E+02 0.  0.
    5000000    2    1    2    0    0 -0.81333483088E+02  0.11795036619E+04  0.53527409600E+03  0.14297799241E+04  0.59992353632E+03 0.  0.
         23    2    4    4    0    0  0.22588764319E+03  0.65553907834E+03  0.18720323158E+03  0.72388353150E+03  0.90584803797E+02 0.  0.
         23    2    4    4    0    0 -0.30722112627E+03  0.52396458361E+03  0.34807086442E+03  0.70589639259E+03  0.90623866089E+02 0.  0.
          1    1    3    3  502    0  0.74201545806E+02 -0.48750630548E+03 -0.25581909315E+02  0.49378406350E+03  0.00000000000E+00 0. -1.
         -1    1    3    3    0  502  0.71319372812E+01 -0.69199735646E+03 -0.75248617761E+02  0.69611318071E+03  0.00000000000E+00 0.  1.
         15    1    5    5    0    0  0.84911924068E+02  0.38421915764E+03  0.10550239309E+03  0.40739208218E+03  0.17770000000E+01 0. -1.
        -15    1    5    5    0    0  0.14097571912E+03  0.27131992070E+03  0.81700838491E+02  0.31649144931E+03  0.17770000000E+01 0.  1.
          3    1    6    6  503    0 -0.72703025428E+02  0.10604536229E+03  0.34234494581E+02  0.13305393413E+03  0.00000000000E+00 0. -1.
         -3    1    6    6    0  503 -0.23451810085E+03  0.41791922132E+03  0.31383636984E+03  0.57284245845E+03  0.00000000000E+00 0.  1.
<mgrwt>
<rscale>  0 0.12461056E+04</rscale>
<asrwt>0</asrwt>
<pdfrwt beam="1">  1        2 0.16809489E+00 0.12461056E+04</pdfrwt>
<pdfrwt beam="2">  1       -2 0.23493236E+00 0.12461056E+04</pdfrwt>
<totfact> 0.16974367E+00</totfact>
</mgrwt>
</event>
<event>
12    1  0.9321077E-008  0.1210568E+04  0.7818608E-02  0.9103657E-01
          1   -1    0    0  501    0  0.00000000000E+00  0.00000000000E+00  0.21708022062E+04  0.21708022062E+04  0.00000000000E+00 0. -1.
         -1   -1    0    0    0  501 -0.00000000000E+00 -0.00000000000E+00 -0.79042213076E+03  0.79042213076E+03  0.00000000000E+00 0.  1.
         23    2    1    2    0    0  0.25715576721E+03 -0.11387278498E+04  0.18430932318E+03  0.11853655948E+04  0.91057466778E+02 0.  0.
    5000000    2    1    2    0    0 -0.25715576721E+03  0.11387278498E+04  0.11960707523E+04  0.17758587422E+04  0.60021564739E+03 0.  0.
         23    2    4    4    0    0  0.11353467236E+03  0.34493840094E+03  0.13796074131E+03  0.39910512572E+03  0.91537494831E+02 0.  0.
         23    2    4    4    0    0 -0.37069043957E+03  0.79378944882E+03  0.10581100110E+04  0.13767536165E+04  0.91327072307E+02 0.  0.
          4    1    3    3  502    0  0.69633803229E+02 -0.46938670160E+03  0.47263218549E+02  0.47687163264E+03  0.00000000000E+00 0. -1.
         -4    1    3    3    0  502  0.18752196399E+03 -0.66934114816E+03  0.13704610463E+03  0.70849396214E+03  0.00000000000E+00 0.  1.
         15    1    5    5    0    0  0.11036260916E+03  0.34985376084E+03  0.13030407033E+03  0.38930690714E+03  0.17770000000E+01 0.  1.
        -15    1    5    5    0    0  0.31720631940E+01 -0.49153598981E+01  0.76566709713E+01  0.97982185726E+01  0.17770000000E+01 0. -1.
          2    1    6    6  503    0 -0.65585686100E+01  0.49618231128E+02  0.85949469854E+02  0.99460017347E+02  0.00000000000E+00 0. -1.
         -2    1    6    6    0  503 -0.36413187096E+03  0.74417121769E+03  0.97216054115E+03  0.12772935992E+04  0.00000000000E+00 0.  1.
<mgrwt>
<rscale>  0 0.12105676E+04</rscale>
<asrwt>0</asrwt>
<pdfrwt beam="1">  1        1 0.33396957E+00 0.12105676E+04</pdfrwt>
<pdfrwt beam="2">  1       -1 0.12160341E+00 0.12105676E+04</pdfrwt>
<totfact> 0.13452221E+00</totfact>
</mgrwt>
</event>
<event>
12    1  0.9321077E-008  0.3935181E+03  0.7818608E-02  0.1046048E+00
         -2   -1    0    0    0  501 -0.00000000000E+00  0.00000000000E+00  0.19868521384E+03  0.19868521384E+03  0.00000000000E+00 0.  1.
          2   -1    0    0  501    0  0.00000000000E+00 -0.00000000000E+00 -0.10141828645E+04  0.10141828645E+04  0.00000000000E+00 0. -1.
         23    2    1    2    0    0 -0.21083757950E+03  0.25658350263E+02 -0.90083600617E+02  0.24776071498E+03  0.90329845103E+02 0.  0.
    5000000    2    1    2    0    0  0.21083757950E+03 -0.25658350263E+02 -0.72541405000E+03  0.96510736332E+03  0.60007986379E+03 0.  0.
         23    2    4    4    0    0  0.37326177088E+03 -0.65479609079E+02 -0.27481300363E+03  0.47694841752E+03  0.91354678064E+02 0.  0.
         23    2    4    4    0    0 -0.16242419138E+03  0.39821258816E+02 -0.45060104637E+03  0.48815894580E+03  0.85384441077E+02 0.  0.
          3    1    3    3  502    0 -0.30407163019E+01  0.10691902579E+02  0.11486917694E+02  0.15984743179E+02  0.00000000000E+00 0. -1.
         -3    1    3    3    0  502 -0.20779686320E+03  0.14966447684E+02 -0.10157051831E+03  0.23177597180E+03  0.00000000000E+00 0.  1.
         15    1    5    5    0    0  0.25004434553E+03 -0.86283064166E+02 -0.17746443989E+03  0.31853371415E+03  0.17770000000E+01 0.  1.
        -15    1    5    5    0    0  0.12321742534E+03  0.20803455087E+02 -0.97348563737E+02  0.15841470337E+03  0.17770000000E+01 0.  1.
          3    1    6    6  503    0 -0.17565974565E+02  0.27605364564E+02 -0.35216803620E+02  0.48071227074E+02  0.00000000000E+00 0. -1.
         -3    1    6    6    0  503 -0.14485821681E+03  0.12215894252E+02 -0.41538424275E+03  0.44008771872E+03  0.00000000000E+00 0.  1.
<mgrwt>
<rscale>  0 0.39351812E+03</rscale>
<asrwt>0</asrwt>
<pdfrwt beam="1">  1        2 0.15602813E+00 0.39351812E+03</pdfrwt>
<pdfrwt beam="2">  1       -2 0.30566956E-01 0.39351812E+03</pdfrwt>
<totfact> 0.25285929E+02</totfact>
</mgrwt>
</event>
<event>
12    1  0.9321077E-008  0.4487853E+03  0.7818608E-02  0.1028085E+00
         -2   -1    0    0    0  501 -0.00000000000E+00  0.00000000000E+00  0.14097168963E+04  0.14097168963E+04  0.00000000000E+00 0.  1.
          2   -1    0    0  501    0  0.00000000000E+00 -0.00000000000E+00 -0.22942286839E+03  0.22942286839E+03  0.00000000000E+00 0. -1.
         23    2    1    2    0    0  0.18252126537E+03  0.19601034694E+03  0.86440777512E+03  0.90954652184E+03  0.91323629402E+02 0.  0.
    5000000    2    1    2    0    0 -0.18252126537E+03 -0.19601034694E+03  0.31588625279E+03  0.72959324284E+03  0.60065639668E+03 0.  0.
         23    2    4    4    0    0 -0.62501045912E+02 -0.37156443796E+03  0.74304865136E+02  0.39486858776E+03  0.91833960592E+02 0.  0.
         23    2    4    4    0    0 -0.12002021946E+03  0.17555409102E+03  0.24158138765E+03  0.33472465508E+03  0.91950725427E+02 0.  0.
          4    1    3    3  502    0  0.18598855477E+02  0.79562184752E+02  0.26521909214E+03  0.27751977498E+03  0.00000000000E+00 0.  1.
         -4    1    3    3    0  502  0.16392240989E+03  0.11644816219E+03  0.59918868298E+03  0.63202674686E+03  0.00000000000E+00 0. -1.
         15    1    5    5    0    0  0.50232354265E+00 -0.24197433791E+03  0.64502956339E+02  0.25043087198E+03  0.17770000000E+01 0.  1.
        -15    1    5    5    0    0 -0.63003369454E+02 -0.12959010006E+03  0.98019087972E+01  0.14443771578E+03  0.17770000000E+01 0. -1.
          3    1    6    6  503    0 -0.54584272731E+01  0.78121889088E+02  0.58250492091E+02  0.97600941655E+02  0.00000000000E+00 0. -1.
         -3    1    6    6    0  503 -0.11456179218E+03  0.97432201931E+02  0.18333089556E+03  0.23712371343E+03  0.00000000000E+00 0.  1.
<mgrwt>
<rscale>  0 0.44878526E+03</rscale>
<asrwt>0</asrwt>
<pdfrwt beam="1">  1        2 0.35295827E-01 0.44878526E+03</pdfrwt>
<pdfrwt beam="2">  1       -2 0.21687952E+00 0.44878526E+03</pdfrwt>
<totfact> 0.16168664E+01</totfact>
</mgrwt>
</event>
<event>
12    1  0.9321077E-008  0.9560707E+03  0.7818608E-02  0.9358083E-01
         -2   -1    0    0    0  501 -0.00000000000E+00  0.00000000000E+00  0.21675823712E+04  0.21675823712E+04  0.00000000000E+00 0.  1.
          2   -1    0    0  501    0  0.00000000000E+00 -0.00000000000E+00 -0.66522466671E+03  0.66522466671E+03  0.00000000000E+00 0. -1.
         23    2    1    2    0    0  0.55600788833E+03  0.77283748795E+03  0.14100216679E+04  0.17036540340E+04  0.88619461462E+02 0.  0.
    5000000    2    1    2    0    0 -0.55600788833E+03 -0.77283748795E+03  0.92336036532E+02  0.11291530039E+04  0.60003167235E+03 0.  0.
         23    2    4    4    0    0 -0.12829982468E+03 -0.16900161363E+03  0.27710869440E+03  0.36109424573E+03  0.92614444702E+02 0.  0.
         23    2    4    4    0    0 -0.42770806366E+03 -0.60383587432E+03 -0.18477265786E+03  0.76805875814E+03  0.90671770825E+02 0.  0.
          3    1    3    3  502    0  0.74965419177E+02  0.67174358597E+02  0.17969324026E+03  0.20596569889E+03  0.00000000000E+00 0. -1.
         -3    1    3    3    0  502  0.48104246916E+03  0.70566312935E+03  0.12303284277E+04  0.14976883351E+04  0.00000000000E+00 0.  1.
         15    1    5    5    0    0 -0.61050986290E+02 -0.11091503696E+03  0.94473048697E+02  0.15798000826E+03  0.17770000000E+01 0. -1.
        -15    1    5    5    0    0 -0.67248838386E+02 -0.58086576669E+02  0.18263564570E+03  0.20311423747E+03  0.17770000000E+01 0.  1.
          1    1    6    6  503    0 -0.26039256024E+03 -0.32097059093E+03 -0.65659195038E+02  0.41849436742E+03  0.00000000000E+00 0. -1.
         -1    1    6    6    0  503 -0.16731550342E+03 -0.28286528338E+03 -0.11911346283E+03  0.34956439071E+03  0.00000000000E+00 0.  1.
<mgrwt>
<rscale>  0 0.95607072E+03</rscale>
<asrwt>0</asrwt>
<pdfrwt beam="1">  1        2 0.10234226E+00 0.95607072E+03</pdfrwt>
<pdfrwt beam="2">  1       -2 0.33347421E+00 0.95607072E+03</pdfrwt>
<totfact> 0.87733950E-01</totfact>
</mgrwt>
</event>
<event>
12    1  0.9321077E-008  0.4281085E+03  0.7818608E-02  0.1034459E+00
          1   -1    0    0  501    0  0.00000000000E+00  0.00000000000E+00  0.19378354126E+04  0.19378354126E+04  0.00000000000E+00 0. -1.
         -1   -1    0    0    0  501 -0.00000000000E+00 -0.00000000000E+00 -0.13715828425E+03  0.13715828425E+03  0.00000000000E+00 0.  1.
         23    2    1    2    0    0 -0.25337879951E+03  0.91704655288E+02  0.99443124732E+03  0.10344858006E+04  0.93041958924E+02 0.  0.
    5000000    2    1    2    0    0  0.25337879951E+03 -0.91704655288E+02  0.80624588107E+03  0.10405078963E+04  0.60001141796E+03 0.  0.
         23    2    4    4    0    0  0.25933266649E+03 -0.27621424046E+03  0.29364954441E+03  0.48812946184E+03  0.92155184568E+02 0.  0.
         23    2    4    4    0    0 -0.59538669831E+01  0.18450958517E+03  0.51259633665E+03  0.55237843445E+03  0.91036778000E+02 0.  0.
          4    1    3    3  502    0 -0.80024601569E+02  0.30151714673E+02  0.17653472190E+03  0.19615700546E+03  0.00000000000E+00 0. -1.
         -4    1    3    3    0  502 -0.17335419794E+03  0.61552940615E+02  0.81789652543E+03  0.83832879513E+03  0.00000000000E+00 0.  1.
         15    1    5    5    0    0  0.15240369301E+03 -0.22198936106E+03  0.21686935802E+03  0.34574794033E+03  0.17770000000E+01 0.  1.
        -15    1    5    5    0    0  0.10692897348E+03 -0.54224879395E+02  0.76780186397E+02  0.14238152151E+03  0.17770000000E+01 0. -1.
          2    1    6    6  503    0  0.32034033699E+02  0.71776882702E+02  0.13206324357E+03  0.15368409321E+03  0.00000000000E+00 0. -1.
         -2    1    6    6    0  503 -0.37987900682E+02  0.11273270247E+03  0.38053309308E+03  0.39869434124E+03  0.00000000000E+00 0.  1.
<mgrwt>
<rscale>  0 0.42810854E+03</rscale>
<asrwt>0</asrwt>
<pdfrwt beam="1">  1        1 0.29812851E+00 0.42810854E+03</pdfrwt>
<pdfrwt beam="2">  1       -1 0.21101276E-01 0.42810854E+03</pdfrwt>
<totfact> 0.66307205E+01</totfact>
</mgrwt>
</event>
<event>
12    1  0.9321077E-008  0.6126116E+03  0.7818608E-02  0.9879581E-01
          1   -1    0    0  501    0  0.00000000000E+00  0.00000000000E+00  0.14278265533E+04  0.14278265533E+04  0.00000000000E+00 0. -1.
         -1   -1    0    0    0  501 -0.00000000000E+00 -0.00000000000E+00 -0.34015517288E+03  0.34015517288E+03  0.00000000000E+00 0.  1.
         23    2    1    2    0    0  0.17923738412E+03  0.51506197318E+03  0.62686785190E+03  0.83543685640E+03  0.87043444433E+02 0.  0.
    5000000    2    1    2    0    0 -0.17923738412E+03 -0.51506197318E+03  0.46080352851E+03  0.93254486977E+03  0.59990429751E+03 0.  0.
         23    2    4    4    0    0 -0.80682557622E+02 -0.53914025360E+03  0.54314179576E+03  0.77513377199E+03  0.92991752417E+02 0.  0.
         23    2    4    4    0    0 -0.98554826494E+02  0.24078280420E+02 -0.82338267244E+02  0.15741109779E+03  0.87782948461E+02 0.  0.
          4    1    3    3  502    0  0.16683589048E+03  0.44048569350E+03  0.57712424317E+03  0.74493909320E+03  0.00000000000E+00 0.  1.
         -4    1    3    3    0  502  0.12401493639E+02  0.74576279678E+02  0.49743608727E+02  0.90497763200E+02  0.00000000000E+00 0. -1.
         15    1    5    5    0    0 -0.73368886407E+02 -0.49516448326E+03  0.45553478745E+03  0.67682047788E+03  0.17770000000E+01 0. -1.
        -15    1    5    5    0    0 -0.73136712146E+01 -0.43975770341E+02  0.87607008313E+02  0.98313294108E+02  0.17770000000E+01 0.  1.
          3    1    6    6  503    0 -0.13837751990E+02 -0.29908868177E+02 -0.13401208191E+02  0.35575499389E+02  0.00000000000E+00 0. -1.
         -3    1    6    6    0  503 -0.84717074504E+02  0.53987148597E+02 -0.68937059053E+02  0.12183559840E+03  0.00000000000E+00 0.  1.
<mgrwt>
<rscale>  0 0.61261161E+03</rscale>
<asrwt>0</asrwt>
<pdfrwt beam="1">  1        1 0.21966562E+00 0.61261161E+03</pdfrwt>
<pdfrwt beam="2">  1       -1 0.52331566E-01 0.61261161E+03</pdfrwt>
<totfact> 0.28395705E+01</totfact>
</mgrwt>
</event>
<event>
12    1  0.9321077E-008  0.4499079E+03  0.7818608E-02  0.1027750E+00
          2   -1    0    0  501    0  0.00000000000E+00  0.00000000000E+00  0.32421218548E+04  0.32421218548E+04  0.00000000000E+00 0. -1.
         -2   -1    0    0    0  501 -0.00000000000E+00 -0.00000000000E+00 -0.83933050992E+02  0.83933050992E+02  0.00000000000E+00 0.  1.
         23    2    1    2    0    0 -0.22297752534E+03  0.24475236166E+03  0.13608055440E+04  0.14026371021E+04  0.77307285225E+02 0.  0.
    5000000    2    1    2    0    0  0.22297752534E+03 -0.24475236166E+03  0.17973832598E+04  0.19234178037E+04  0.59943871201E+03 0.  0.
         23    2    4    4    0    0  0.91752016662E+01 -0.32627463126E+03  0.51089829313E+03  0.61355804970E+03  0.94324414102E+02 0.  0.
         23    2    4    4    0    0  0.21380232367E+03  0.81522269598E+02  0.12864849667E+04  0.13098597540E+04  0.91278099875E+02 0.  0.
          2    1    3    3  502    0 -0.16843829068E+03  0.19973239857E+03  0.11780470517E+04  0.12066728409E+04  0.00000000000E+00 0. -1.
         -2    1    3    3    0  502 -0.54539234664E+02  0.45019963097E+02  0.18275849226E+03  0.19596426125E+03  0.00000000000E+00 0.  1.
         15    1    5    5    0    0  0.45765377577E+02 -0.15671775619E+03  0.28862640516E+03  0.33160712353E+03  0.17770000000E+01 0. -1.
        -15    1    5    5    0    0 -0.36590175910E+02 -0.16955687507E+03  0.22227188797E+03  0.28195092617E+03  0.17770000000E+01 0.  1.
          2    1    6    6  503    0  0.14773153044E+03  0.40026027861E+02  0.10432483890E+04  0.10544163737E+04  0.00000000000E+00 0. -1.
         -2    1    6    6    0  503  0.66070793234E+02  0.41496241737E+02  0.24323657773E+03  0.25544338031E+03  0.00000000000E+00 0.  1.
<mgrwt>
<rscale>  0 0.44990790E+03</rscale>
<asrwt>0</asrwt>
<pdfrwt beam="1">  1        2 0.49878788E+00 0.44990790E+03</pdfrwt>
<pdfrwt beam="2">  1       -2 0.12912780E-01 0.44990790E+03</pdfrwt>
<totfact> 0.61765881E+01</totfact>
</mgrwt>
</event>
<event>
12    1  0.9321077E-008  0.5950103E+03  0.7818608E-02  0.9915813E-01
          2   -1    0    0  501    0  0.00000000000E+00  0.00000000000E+00  0.43902942548E+03  0.43902942548E+03  0.00000000000E+00 0. -1.
         -2   -1    0    0    0  501 -0.00000000000E+00 -0.00000000000E+00 -0.11353335056E+04  0.11353335056E+04  0.00000000000E+00 0.  1.
         23    2    1    2    0    0  0.17382236116E+03  0.53539556309E+03 -0.41692064711E+03  0.70550549077E+03  0.83979457607E+02 0.  0.
    5000000    2    1    2    0    0 -0.17382236116E+03 -0.53539556309E+03 -0.27938343305E+03  0.86885744035E+03  0.59999627230E+03 0.  0.
         23    2    4    4    0    0 -0.22076340180E+03 -0.52967639496E+03 -0.40532389463E+03  0.70819422682E+03  0.89207849358E+02 0.  0.
         23    2    4    4    0    0  0.46941040634E+02 -0.57191681213E+01  0.12594046157E+03  0.16066321354E+03  0.87837908350E+02 0.  0.
          2    1    3    3  502    0  0.15637377690E+03  0.46086174368E+03 -0.39229402637E+03  0.62509271953E+03  0.00000000000E+00 0. -1.
         -2    1    3    3    0  502  0.17448584260E+02  0.74533819408E+02 -0.24626620746E+02  0.80412771234E+02  0.00000000000E+00 0.  1.
         15    1    5    5    0    0 -0.16962075598E+03 -0.42090536062E+03 -0.27374849207E+03  0.52997539386E+03  0.17770000000E+01 0.  1.
        -15    1    5    5    0    0 -0.51142645815E+02 -0.10877103434E+03 -0.13157540256E+03  0.17821883295E+03  0.17770000000E+01 0. -1.
          4    1    6    6  503    0  0.27870513209E+02  0.83510788260E+01  0.13283295118E+03  0.13598198021E+03  0.00000000000E+00 0.  1.
         -4    1    6    6    0  503  0.19070527425E+02 -0.14070246947E+02 -0.68924896061E+01  0.24681233324E+02  0.00000000000E+00 0. -1.
<mgrwt>
<rscale>  0 0.59501029E+03</rscale>
<asrwt>0</asrwt>
<pdfrwt beam="1">  1        2 0.67542988E-01 0.59501029E+03</pdfrwt>
<pdfrwt beam="2">  1       -2 0.17466669E+00 0.59501029E+03</pdfrwt>
<totfact> 0.14585902E+01</totfact>
</mgrwt>
</event>
<event>
12    1  0.9321077E-008  0.9019667E+03  0.7818608E-02  0.9423126E-01
         -2   -1    0    0    0  501 -0.00000000000E+00  0.00000000000E+00  0.57209486994E+03  0.57209486994E+03  0.00000000000E+00 0.  1.
          2   -1    0    0  501    0  0.00000000000E+00 -0.00000000000E+00 -0.21063156672E+04  0.21063156672E+04  0.00000000000E+00 0. -1.
         23    2    1    2    0    0 -0.85982300233E+03 -0.12857211005E+02 -0.56303740200E+02  0.86637221993E+03  0.89273787249E+02 0.  0.
    5000000    2    1    2    0    0  0.85982300233E+03  0.12857211005E+02 -0.14779170571E+04  0.18120383172E+04  0.59981924967E+03 0.  0.
         23    2    4    4    0    0  0.81826334724E+03 -0.61494970441E+02 -0.14718088344E+04  0.16876609074E+04  0.92959973167E+02 0.  0.
         23    2    4    4    0    0  0.41559655090E+02  0.74352181446E+02 -0.61082226828E+01  0.12437740980E+03  0.90426643568E+02 0.  0.
          1    1    3    3  502    0 -0.44901449015E+03 -0.10292764411E+02  0.15150492203E+02  0.44938790680E+03  0.00000000000E+00 0. -1.
         -1    1    3    3    0  502 -0.41080851219E+03 -0.25644465938E+01 -0.71454232402E+02  0.41698431314E+03  0.00000000000E+00 0.  1.
         15    1    5    5    0    0  0.65574772241E+03 -0.44601301287E+02 -0.10978124498E+04  0.12795271330E+04  0.17770000000E+01 0. -1.
        -15    1    5    5    0    0  0.16251562483E+03 -0.16893669154E+02 -0.37399638461E+03  0.40813377439E+03  0.17770000000E+01 0.  1.
          2    1    6    6  503    0  0.69605668908E+02  0.59563345314E+02 -0.11095173794E+02  0.92281331431E+02  0.00000000000E+00 0. -1.
         -2    1    6    6    0  503 -0.28046013818E+02  0.14788836132E+02  0.49869511116E+01  0.32096078368E+02  0.00000000000E+00 0.  1.
<mgrwt>
<rscale>  0 0.90196666E+03</rscale>
<asrwt>0</asrwt>
<pdfrwt beam="1">  1        2 0.32404857E+00 0.90196666E+03</pdfrwt>
<pdfrwt beam="2">  1       -2 0.88014594E-01 0.90196666E+03</pdfrwt>
<totfact> 0.65846267E+00</totfact>
</mgrwt>
</event>
<event>
12    1  0.9321077E-008  0.5744079E+03  0.7818608E-02  0.9959972E-01
          1   -1    0    0  501    0  0.00000000000E+00  0.00000000000E+00  0.10695807271E+04  0.10695807271E+04  0.00000000000E+00 0. -1.
         -1   -1    0    0    0  501 -0.00000000000E+00 -0.00000000000E+00 -0.36541600335E+03  0.36541600335E+03  0.00000000000E+00 0.  1.
         23    2    1    2    0    0  0.44206273920E+03  0.40353339370E+02  0.46985171376E+03  0.65275363885E+03  0.90988036168E+02 0.  0.
    5000000    2    1    2    0    0 -0.44206273920E+03 -0.40353339370E+02  0.23431300999E+03  0.78224309160E+03  0.59996150737E+03 0.  0.
         23    2    4    4    0    0  0.93641320745E+02 -0.10784090814E+03 -0.30883012639E+02  0.17398094739E+03  0.94431198056E+02 0.  0.
         23    2    4    4    0    0 -0.53570405995E+03  0.67487568767E+02  0.26519602263E+03  0.60826214421E+03  0.90113782983E+02 0.  0.
          4    1    3    3  502    0  0.14303330057E+03  0.50072817476E+02  0.19048686653E+03  0.24341540305E+03  0.00000000000E+00 0. -1.
         -4    1    3    3    0  502  0.29902943863E+03 -0.97194781064E+01  0.27936484723E+03  0.40933823580E+03  0.00000000000E+00 0.  1.
         15    1    5    5    0    0  0.17945447501E+02  0.13559946012E+01  0.24137746992E+02  0.30160675825E+02  0.17770000000E+01 0.  1.
        -15    1    5    5    0    0  0.75695873244E+02 -0.10919690274E+03 -0.55020759630E+02  0.14382027157E+03  0.17770000000E+01 0. -1.
          3    1    6    6  503    0 -0.26199636154E+03 -0.11482231193E+02  0.11728987179E+03  0.28728182873E+03  0.00000000000E+00 0. -1.
         -3    1    6    6    0  503 -0.27370769841E+03  0.78969799960E+02  0.14790615084E+03  0.32098031549E+03  0.00000000000E+00 0.  1.
<mgrwt>
<rscale>  0 0.57440791E+03</rscale>
<asrwt>0</asrwt>
<pdfrwt beam="1">  1        1 0.16455088E+00 0.57440791E+03</pdfrwt>
<pdfrwt beam="2">  1       -1 0.56217847E-01 0.57440791E+03</pdfrwt>
<totfact> 0.44807870E+01</totfact>
</mgrwt>
</event>
<event>
12    1  0.9321077E-008  0.3811425E+03  0.7818608E-02  0.1050512E+00
          1   -1    0    0  501    0  0.00000000000E+00  0.00000000000E+00  0.13561279720E+03  0.13561279720E+03  0.00000000000E+00 0. -1.
         -1   -1    0    0    0  501 -0.00000000000E+00 -0.00000000000E+00 -0.17470244258E+04  0.17470244258E+04  0.00000000000E+00 0.  1.
         23    2    1    2    0    0 -0.11065061396E+03  0.20996846964E+03 -0.17837696601E+03  0.31104161766E+03  0.92726637484E+02 0.  0.
    5000000    2    1    2    0    0  0.11065061396E+03 -0.20996846964E+03 -0.14330346625E+04  0.15715956053E+04  0.59999507160E+03 0.  0.
         23    2    4    4    0    0  0.44355381581E+02 -0.35394247561E+03 -0.12811591855E+04  0.13328914092E+04  0.89375467432E+02 0.  0.
         23    2    4    4    0    0  0.66295232378E+02  0.14397400596E+03 -0.15187547704E+03  0.23870419611E+03  0.93754789138E+02 0.  0.
          1    1    3    3  502    0 -0.97621124175E+02  0.14850480707E+03 -0.81357795581E+02  0.19545498845E+03  0.00000000000E+00 0. -1.
         -1    1    3    3    0  502 -0.13029489784E+02  0.61463662572E+02 -0.97019170432E+02  0.11558662921E+03  0.00000000000E+00 0.  1.
         15    1    5    5    0    0 -0.95586019254E+00 -0.24108054153E+03 -0.74206720113E+03  0.78024844113E+03  0.17770000000E+01 0. -1.
        -15    1    5    5    0    0  0.45311241773E+02 -0.11286193407E+03 -0.53909198437E+03  0.55264296805E+03  0.17770000000E+01 0.  1.
          4    1    6    6  503    0  0.33245097530E+02  0.57150600127E+02 -0.68445674932E+01  0.66470111394E+02  0.00000000000E+00 0. -1.
         -4    1    6    6    0  503  0.33050134848E+02  0.86823405837E+02 -0.14503090955E+03  0.17223408472E+03  0.00000000000E+00 0.  1.
<mgrwt>
<rscale>  0 0.38114248E+03</rscale>
<asrwt>0</asrwt>
<pdfrwt beam="1">  1        1 0.20863509E-01 0.38114248E+03</pdfrwt>
<pdfrwt beam="2">  1       -1 0.26877297E+00 0.38114248E+03</pdfrwt>
<totfact> 0.14298426E+01</totfact>
</mgrwt>
</event>
<event>
12    1  0.9321077E-008  0.6247105E+03  0.7818608E-02  0.9855426E-01
         -2   -1    0    0    0  501 -0.00000000000E+00  0.00000000000E+00  0.56253510668E+03  0.56253510668E+03  0.00000000000E+00 0.  1.
          2   -1    0    0  501    0  0.00000000000E+00 -0.00000000000E+00 -0.87824000148E+03  0.87824000148E+03  0.00000000000E+00 0. -1.
         23    2    1    2    0    0 -0.36953643111E+03  0.40905583593E+03 -0.27574311107E+03  0.62508671748E+03  0.10399658765E+03 0.  0.
    5000000    2    1    2    0    0  0.36953643111E+03 -0.40905583593E+03 -0.39961783735E+02  0.81568839068E+03  0.59988895281E+03 0.  0.
         23    2    4    4    0    0  0.36203219127E+03 -0.10800104253E+03 -0.22655288006E+03  0.44987477127E+03  0.91266476127E+02 0.  0.
         23    2    4    4    0    0  0.75042398431E+01 -0.30105479340E+03  0.18659109633E+03  0.36581361940E+03  0.91176009271E+02 0.  0.
          2    1    3    3  502    0 -0.13395545443E+03  0.21478863039E+03 -0.15441035372E+03  0.29651437883E+03  0.00000000000E+00 0. -1.
         -2    1    3    3    0  502 -0.23558097668E+03  0.19426720554E+03 -0.12133275735E+03  0.32857233865E+03  0.00000000000E+00 0.  1.
         15    1    5    5    0    0  0.16901320901E+03 -0.83626197213E+02 -0.73763391114E+02  0.20249197831E+03  0.17770000000E+01 0. -1.
        -15    1    5    5    0    0  0.19301898225E+03 -0.24374845313E+02 -0.15278948895E+03  0.24738279297E+03  0.17770000000E+01 0.  1.
          3    1    6    6  503    0  0.35435637126E+02 -0.19048308718E+03  0.79689638602E+02  0.20949923480E+03  0.00000000000E+00 0. -1.
         -3    1    6    6    0  503 -0.27931397283E+02 -0.11057170622E+03  0.10690145772E+03  0.15631438460E+03  0.00000000000E+00 0.  1.
<mgrwt>
<rscale>  0 0.62471048E+03</rscale>
<asrwt>0</asrwt>
<pdfrwt beam="1">  1        2 0.13511385E+00 0.62471048E+03</pdfrwt>
<pdfrwt beam="2">  1       -2 0.86543862E-01 0.62471048E+03</pdfrwt>
<totfact> 0.36037033E+01</totfact>
</mgrwt>
</event>
<event>
12    1  0.9321077E-008  0.8750830E+03  0.7818608E-02  0.9457276E-01
         -2   -1    0    0    0  501 -0.00000000000E+00  0.00000000000E+00  0.41743571617E+03  0.41743571617E+03  0.00000000000E+00 0.  1.
          2   -1    0    0  501    0  0.00000000000E+00 -0.00000000000E+00 -0.18595898146E+04  0.18595898146E+04  0.00000000000E+00 0. -1.
         23    2    1    2    0    0  0.58185258096E+03  0.51266493315E+03 -0.60574806013E+03  0.98826197791E+03  0.91396197819E+02 0.  0.
    5000000    2    1    2    0    0 -0.58185258096E+03 -0.51266493315E+03 -0.83640603826E+03  0.12887635528E+04  0.59996556117E+03 0.  0.
         23    2    4    4    0    0 -0.13588382463E+02 -0.37240171076E+03 -0.38396352757E+03  0.54322011542E+03  0.93767931533E+02 0.  0.
         23    2    4    4    0    0 -0.56826419850E+03 -0.14026322239E+03 -0.45244251069E+03  0.74554343740E+03  0.92373268379E+02 0.  0.
          2    1    3    3  502    0  0.12528492563E+03  0.63985534264E+02 -0.11317082361E+03  0.18054942953E+03  0.00000000000E+00 0.  1.
         -2    1    3    3    0  502  0.45656765533E+03  0.44867939889E+03 -0.49257723652E+03  0.80771254838E+03  0.00000000000E+00 0. -1.
         15    1    5    5    0    0  0.20775405207E+02 -0.25613043632E+03 -0.30357095972E+03  0.39773471458E+03  0.17770000000E+01 0. -1.
        -15    1    5    5    0    0 -0.34363787670E+02 -0.11627127445E+03 -0.80392567845E+02  0.14548540084E+03  0.17770000000E+01 0.  1.
          2    1    6    6  503    0 -0.77249718984E+02  0.93672999053E+01 -0.77980803041E+02  0.11016474497E+03  0.00000000000E+00 0. -1.
         -2    1    6    6    0  503 -0.49101447951E+03 -0.14963052229E+03 -0.37446170765E+03  0.63537869243E+03  0.00000000000E+00 0.  1.
<mgrwt>
<rscale>  0 0.87508303E+03</rscale>
<asrwt>0</asrwt>
<pdfrwt beam="1">  1        2 0.28609074E+00 0.87508303E+03</pdfrwt>
<pdfrwt beam="2">  1       -2 0.64220880E-01 0.87508303E+03</pdfrwt>
<totfact> 0.18186499E+01</totfact>
</mgrwt>
</event>
<event>
12    1  0.9321077E-008  0.1263284E+04  0.7818608E-02  0.9059199E-01
         -2   -1    0    0    0  501 -0.00000000000E+00  0.00000000000E+00  0.55409375077E+03  0.55409375077E+03  0.00000000000E+00 0.  1.
          2   -1    0    0  501    0  0.00000000000E+00 -0.00000000000E+00 -0.32686884944E+04  0.32686884944E+04  0.00000000000E+00 0. -1.
         23    2    1    2    0    0 -0.31419386786E+03  0.11810065398E+04 -0.18187481049E+04  0.21930573840E+04  0.90342606243E+02 0.  0.
    5000000    2    1    2    0    0  0.31419386786E+03 -0.11810065398E+04 -0.89584663868E+03  0.16297248612E+04  0.59997307411E+03 0.  0.
         23    2    4    4    0    0  0.37684529092E+03 -0.11418200698E+04 -0.67996448788E+03  0.13842203195E+04  0.89155723175E+02 0.  0.
         23    2    4    4    0    0 -0.62651423062E+02 -0.39186469966E+02 -0.21588215080E+03  0.24550454174E+03  0.90590268470E+02 0.  0.
          1    1    3    3  502    0 -0.22946080511E+03  0.76186821128E+03 -0.11203837573E+04  0.13741743689E+04  0.00000000000E+00 0.  1.
         -1    1    3    3    0  502 -0.84733062749E+02  0.41913832849E+03 -0.69836434765E+03  0.81888301509E+03  0.00000000000E+00 0. -1.
         15    1    5    5    0    0  0.33004736845E+03 -0.94057309048E+03 -0.53027270747E+03  0.11290709924E+04  0.17770000000E+01 0. -1.
        -15    1    5    5    0    0  0.46797922468E+02 -0.20124697932E+03 -0.14969178041E+03  0.25514932703E+03  0.17770000000E+01 0.  1.
          2    1    6    6  503    0 -0.13997058408E+02  0.19257416892E+02 -0.12385887587E+03  0.12612607535E+03  0.00000000000E+00 0. -1.
         -2    1    6    6    0  503 -0.48654364654E+02 -0.58443886857E+02 -0.92023274928E+02  0.11937846640E+03  0.00000000000E+00 0.  1.
<mgrwt>
<rscale>  0 0.12632840E+04</rscale>
<asrwt>0</asrwt>
<pdfrwt beam="1">  1        2 0.50287515E+00 0.12632840E+04</pdfrwt>
<pdfrwt beam="2">  1       -2 0.85245193E-01 0.12632840E+04</pdfrwt>
<totfact> 0.13838747E+00</totfact>
</mgrwt>
</event>
<event>
12    1  0.9321077E-008  0.1034868E+04  0.7818608E-02  0.9271108E-01
         -1   -1    0    0    0  501 -0.00000000000E+00  0.00000000000E+00  0.12158559804E+04  0.12158559804E+04  0.00000000000E+00 0.  1.
          1   -1    0    0  501    0  0.00000000000E+00 -0.00000000000E+00 -0.10177958695E+04  0.10177958695E+04  0.00000000000E+00 0. -1.
         23    2    1    2    0    0  0.41316872305E+03 -0.93938333991E+03  0.17146685719E+03  0.10445717136E+04  0.92626825174E+02 0.  0.
    5000000    2    1    2    0    0 -0.41316872305E+03  0.93938333991E+03  0.26593253713E+02  0.11890801362E+04  0.60004576177E+03 0.  0.
         23    2    4    4    0    0 -0.35837172603E+03  0.67264632761E+03 -0.23294639682E+03  0.80208746076E+03  0.90536704448E+02 0.  0.
         23    2    4    4    0    0 -0.54796997025E+02  0.26673701230E+03  0.25953965053E+03  0.38699267547E+03  0.90835874261E+02 0.  0.
          2    1    3    3  502    0  0.34580310910E+03 -0.69950352325E+03  0.11085499763E+03  0.78814579857E+03  0.00000000000E+00 0. -1.
         -2    1    3    3    0  502  0.67365613957E+02 -0.23987981666E+03  0.60611859551E+02  0.25642591503E+03  0.00000000000E+00 0.  1.
         15    1    5    5    0    0 -0.25850287673E+03  0.40026926215E+03 -0.12576422085E+03  0.49280728128E+03  0.17770000000E+01 0. -1.
        -15    1    5    5    0    0 -0.99868849295E+02  0.27237706546E+03 -0.10718217597E+03  0.30928017948E+03  0.17770000000E+01 0.  1.
          4    1    6    6  503    0 -0.39808639218E+02  0.12623902068E+03  0.67529679448E+02  0.14859769751E+03  0.00000000000E+00 0. -1.
         -4    1    6    6    0  503 -0.14988357807E+02  0.14049799161E+03  0.19200997109E+03  0.23839497795E+03  0.00000000000E+00 0.  1.
<mgrwt>
<rscale>  0 0.10348681E+04</rscale>
<asrwt>0</asrwt>
<pdfrwt beam="1">  1        1 0.15658398E+00 0.10348681E+04</pdfrwt>
<pdfrwt beam="2">  1       -1 0.18705477E+00 0.10348681E+04</pdfrwt>
<totfact> 0.27145343E+00</totfact>
</mgrwt>
</event>
<event>
12    1  0.9321077E-008  0.4902103E+03  0.7818608E-02  0.1016366E+00
         -1   -1    0    0    0  501 -0.00000000000E+00  0.00000000000E+00  0.28337083886E+03  0.28337083886E+03  0.00000000000E+00 0.  1.
          1   -1    0    0  501    0  0.00000000000E+00 -0.00000000000E+00 -0.15601366523E+04  0.15601366523E+04  0.00000000000E+00 0. -1.
         23    2    1    2    0    0  0.13937320720E+03 -0.27941269609E+03  0.79181838693E+02  0.32816767344E+03  0.62673061880E+02 0.  0.
    5000000    2    1    2    0    0 -0.13937320720E+03  0.27941269609E+03 -0.13559476521E+04  0.15153398177E+04  0.60013696955E+03 0.  0.
         23    2    4    4    0    0 -0.14179636015E+03 -0.15683082208E+03 -0.43582696225E+03  0.49293517827E+03  0.91311743173E+02 0.  0.
         23    2    4    4    0    0  0.24231529444E+01  0.43624351817E+03 -0.92012068985E+03  0.10224046394E+04  0.91514392402E+02 0.  0.
          3    1    3    3  502    0  0.47210472374E+02 -0.44519736868E+02  0.28143418908E+02  0.70731094297E+02  0.00000000000E+00 0. -1.
         -3    1    3    3    0  502  0.92162734829E+02 -0.23489295923E+03  0.51038419785E+02  0.25743657914E+03  0.00000000000E+00 0.  1.
         15    1    5    5    0    0 -0.13858854623E+03 -0.10983440200E+03 -0.28988061735E+03  0.33956488490E+03  0.17770000000E+01 0.  1.
        -15    1    5    5    0    0 -0.32078139219E+01 -0.46996420078E+02 -0.14594634490E+03  0.15337029337E+03  0.17770000000E+01 0. -1.
          2    1    6    6  503    0 -0.10696667945E+02  0.40732202648E+03 -0.79525729887E+03  0.89356579129E+03  0.00000000000E+00 0.  1.
         -2    1    6    6    0  503  0.13119820889E+02  0.28921491689E+02 -0.12486339098E+03  0.12883884814E+03  0.00000000000E+00 0. -1.
<mgrwt>
<rscale>  0 0.49021032E+03</rscale>
<asrwt>0</asrwt>
<pdfrwt beam="1">  1        1 0.24002103E+00 0.49021032E+03</pdfrwt>
<pdfrwt beam="2">  1       -1 0.43595513E-01 0.49021032E+03</pdfrwt>
<totfact> 0.33142887E+01</totfact>
</mgrwt>
</event>
<event>
12    1  0.9321077E-008  0.9539516E+03  0.7818608E-02  0.9360544E-01
         -1   -1    0    0    0  501 -0.00000000000E+00  0.00000000000E+00  0.65672825041E+03  0.65672825041E+03  0.00000000000E+00 0.  1.
          1   -1    0    0  501    0  0.00000000000E+00 -0.00000000000E+00 -0.18643889156E+04  0.18643889156E+04  0.00000000000E+00 0. -1.
         23    2    1    2    0    0 -0.58611570171E+03 -0.73174631535E+03 -0.93795958826E+02  0.94658453985E+03  0.90776226863E+02 0.  0.
    5000000    2    1    2    0    0  0.58611570171E+03  0.73174631535E+03 -0.11138647064E+04  0.15745326262E+04  0.59956160730E+03 0.  0.
         23    2    4    4    0    0  0.45222834637E+03  0.39874333263E+03 -0.29871948327E+03  0.67914964464E+03  0.92218151931E+02 0.  0.
         23    2    4    4    0    0  0.13388735534E+03  0.33300298272E+03 -0.81514522311E+03  0.89538298154E+03  0.91826676120E+02 0.  0.
          4    1    3    3  502    0 -0.18066116029E+03 -0.20145665934E+03 -0.65704214882E+02  0.27846056145E+03  0.00000000000E+00 0. -1.
         -4    1    3    3    0  502 -0.40545454142E+03 -0.53028965602E+03 -0.28091743945E+02  0.66812397840E+03  0.00000000000E+00 0.  1.
         15    1    5    5    0    0  0.26994865257E+03  0.19362809050E+03 -0.12831886425E+03  0.35613621145E+03  0.17770000000E+01 0.  1.
        -15    1    5    5    0    0  0.18227969380E+03  0.20511524214E+03 -0.17040061902E+03  0.32301343319E+03  0.17770000000E+01 0. -1.
          2    1    6    6  503    0  0.13239109468E+03  0.27586920478E+03 -0.61028764050E+03  0.68270214899E+03  0.00000000000E+00 0. -1.
         -2    1    6    6    0  503  0.14962606649E+01  0.57133777935E+02 -0.20485758262E+03  0.21268083255E+03  0.00000000000E+00 0.  1.
<mgrwt>
<rscale>  0 0.95395159E+03</rscale>
<asrwt>0</asrwt>
<pdfrwt beam="1">  1        1 0.28682906E+00 0.95395159E+03</pdfrwt>
<pdfrwt beam="2">  1       -1 0.10103512E+00 0.95395159E+03</pdfrwt>
<totfact> 0.34829920E+00</totfact>
</mgrwt>
</event>
<event>
12    1  0.9321077E-008  0.5053691E+03  0.7818608E-02  0.1012387E+00
         -2   -1    0    0    0  501 -0.00000000000E+00  0.00000000000E+00  0.92338924933E+02  0.92338924933E+02  0.00000000000E+00 0.  1.
          2   -1    0    0  501    0  0.00000000000E+00 -0.00000000000E+00 -0.31828879916E+04  0.31828879916E+04  0.00000000000E+00 0. -1.
         23    2    1    2    0    0 -0.28845590028E+03 -0.19034600321E+03 -0.69261102876E+03  0.77932428159E+03  0.90542207612E+02 0.  0.
    5000000    2    1    2    0    0  0.28845590028E+03  0.19034600321E+03 -0.23979380379E+04  0.24959026350E+04  0.59998726834E+03 0.  0.
         23    2    4    4    0    0 -0.12962920680E+03 -0.52805165102E+02 -0.32695787286E+03  0.36721655293E+03  0.91402567828E+02 0.  0.
         23    2    4    4    0    0  0.41808510708E+03  0.24315116831E+03 -0.20709801650E+04  0.21286860820E+04  0.91803836183E+02 0.  0.
          1    1    3    3  502    0 -0.17009607062E+03 -0.71621249357E+02 -0.29720518755E+03  0.34984739546E+03  0.00000000000E+00 0. -1.
         -1    1    3    3    0  502 -0.11835982966E+03 -0.11872475386E+03 -0.39540584121E+03  0.42947688613E+03  0.00000000000E+00 0.  1.
         15    1    5    5    0    0 -0.65455302991E+02  0.21538928945E+02 -0.13721274048E+03  0.15355395153E+03  0.17770000000E+01 0. -1.
        -15    1    5    5    0    0 -0.64173903811E+02 -0.74344094046E+02 -0.18974513238E+03  0.21366260141E+03  0.17770000000E+01 0.  1.
          2    1    6    6  503    0  0.93286036675E+02  0.98997473792E+02 -0.51710579136E+03  0.53469728250E+03  0.00000000000E+00 0. -1.
         -2    1    6    6    0  503  0.32479907041E+03  0.14415369452E+03 -0.15538743737E+04  0.15939887995E+04  0.00000000000E+00 0.  1.
<mgrwt>
<rscale>  0 0.50536910E+03</rscale>
<asrwt>0</asrwt>
<pdfrwt beam="1">  1        2 0.48967502E+00 0.50536910E+03</pdfrwt>
<pdfrwt beam="2">  1       -2 0.14205990E-01 0.50536910E+03</pdfrwt>
<totfact> 0.56699676E+01</totfact>
</mgrwt>
</event>
<event>
12    1  0.9321077E-008  0.5960560E+03  0.7818608E-02  0.9913622E-01
         -1   -1    0    0    0  501 -0.00000000000E+00  0.00000000000E+00  0.27149053097E+03  0.27149053097E+03  0.00000000000E+00 0.  1.
          1   -1    0    0  501    0  0.00000000000E+00 -0.00000000000E+00 -0.14685079029E+04  0.14685079029E+04  0.00000000000E+00 0. -1.
         23    2    1    2    0    0  0.43092142087E+03 -0.13722311850E+03 -0.23036505394E+03  0.51577838432E+03  0.91846766052E+02 0.  0.
    5000000    2    1    2    0    0 -0.43092142087E+03  0.13722311850E+03 -0.96665231802E+03  0.12242200496E+04  0.59981211279E+03 0.  0.
         23    2    4    4    0    0 -0.54012452795E+03  0.18935226395E+03 -0.86795936617E+03  0.10438763564E+04  0.93464434892E+02 0.  0.
         23    2    4    4    0    0  0.10920310708E+03 -0.52129145446E+02 -0.98692951846E+02  0.18034369317E+03  0.90226285081E+02 0.  0.
          3    1    3    3  502    0  0.59463927892E+02  0.12629099764E+02 -0.34702157626E+02  0.69997804430E+02  0.00000000000E+00 0. -1.
         -3    1    3    3    0  502  0.37145749298E+03 -0.14985221826E+03 -0.19566289632E+03  0.44578057989E+03  0.00000000000E+00 0.  1.
         15    1    5    5    0    0 -0.29105203995E+03  0.52888724490E+02 -0.43314867560E+03  0.52452782580E+03  0.17770000000E+01 0. -1.
        -15    1    5    5    0    0 -0.24907248800E+03  0.13646353946E+03 -0.43481069057E+03  0.51934853061E+03  0.17770000000E+01 0.  1.
          3    1    6    6  503    0  0.92957906905E+02 -0.77357420490E+02 -0.79294496646E+02  0.14461313965E+03  0.00000000000E+00 0. -1.
         -3    1    6    6    0  503  0.16245200179E+02  0.25228275044E+02 -0.19398455200E+02  0.35730553518E+02  0.00000000000E+00 0.  1.
<mgrwt>
<rscale>  0 0.59605603E+03</rscale>
<asrwt>0</asrwt>
<pdfrwt beam="1">  1        1 0.22592430E+00 0.59605603E+03</pdfrwt>
<pdfrwt beam="2">  1       -1 0.41767773E-01 0.59605603E+03</pdfrwt>
<totfact> 0.40632622E+01</totfact>
</mgrwt>
</event>
<event>
12    1  0.9321077E-008  0.1114639E+04  0.7818608E-02  0.9191040E-01
          1   -1    0    0  501    0  0.00000000000E+00  0.00000000000E+00  0.20053731931E+04  0.20053731931E+04  0.00000000000E+00 0. -1.
         -1   -1    0    0    0  501 -0.00000000000E+00 -0.00000000000E+00 -0.74420399284E+03  0.74420399284E+03  0.00000000000E+00 0.  1.
         23    2    1    2    0    0 -0.29778189962E+03 -0.10626871106E+04  0.94135090761E+03  0.14533356603E+04  0.89805653642E+02 0.  0.
    5000000    2    1    2    0    0  0.29778189962E+03  0.10626871106E+04  0.31981829263E+03  0.12962415257E+04  0.59998366468E+03 0.  0.
         23    2    4    4    0    0  0.16045373193E+03  0.84034630009E+03 -0.16655274869E+02  0.86056329183E+03  0.91457514177E+02 0.  0.
         23    2    4    4    0    0  0.13732816769E+03  0.22234081047E+03  0.33647356750E+03  0.43567823384E+03  0.91140551765E+02 0.  0.
          1    1    3    3  502    0 -0.10007315696E+03 -0.51899762140E+03  0.46286102912E+03  0.70257633040E+03  0.00000000000E+00 0. -1.
         -1    1    3    3    0  502 -0.19770874266E+03 -0.54368948916E+03  0.47848987849E+03  0.75075932985E+03  0.00000000000E+00 0.  1.
         15    1    5    5    0    0  0.68605089860E+02  0.16586945300E+03  0.39019298253E+01  0.17954864683E+03  0.17770000000E+01 0. -1.
        -15    1    5    5    0    0  0.91848642067E+02  0.67447684709E+03 -0.20557204694E+02  0.68101464500E+03  0.17770000000E+01 0.  1.
          2    1    6    6  503    0  0.78020025457E+02  0.10868124672E+03  0.10122886193E+03  0.16776775688E+03  0.00000000000E+00 0. -1.
         -2    1    6    6    0  503  0.59308142236E+02  0.11365956375E+03  0.23524470557E+03  0.26791047696E+03  0.00000000000E+00 0.  1.
<mgrwt>
<rscale>  0 0.11146393E+04</rscale>
<asrwt>0</asrwt>
<pdfrwt beam="1">  1        1 0.30851895E+00 0.11146393E+04</pdfrwt>
<pdfrwt beam="2">  1       -1 0.11449292E+00 0.11146393E+04</pdfrwt>
<totfact> 0.20407578E+00</totfact>
</mgrwt>
</event>
<event>
12    1  0.9321077E-008  0.6260505E+03  0.7818608E-02  0.9852786E-01
         -2   -1    0    0    0  501 -0.00000000000E+00  0.00000000000E+00  0.41003027982E+03  0.41003027982E+03  0.00000000000E+00 0.  1.
          2   -1    0    0  501    0  0.00000000000E+00 -0.00000000000E+00 -0.12462318045E+04  0.12462318045E+04  0.00000000000E+00 0. -1.
         23    2    1    2    0    0  0.19008478992E+03 -0.49049656608E+03 -0.49925508620E+02  0.53600634449E+03  0.89950743317E+02 0.  0.
    5000000    2    1    2    0    0 -0.19008478992E+03  0.49049656608E+03 -0.78627601605E+03  0.11202557398E+04  0.60001986674E+03 0.  0.
         23    2    4    4    0    0 -0.22569990119E+03  0.15204857115E+02 -0.66883207021E+02  0.25263219484E+03  0.90432457733E+02 0.  0.
         23    2    4    4    0    0  0.35615111272E+02  0.47529170897E+03 -0.71939280903E+03  0.86762354498E+03  0.89855202116E+02 0.  0.
          1    1    3    3  502    0  0.19581765126E+02 -0.16452960130E+03 -0.10272679750E+02  0.16600892500E+03  0.00000000000E+00 0. -1.
         -1    1    3    3    0  502  0.17050302479E+03 -0.32596696478E+03 -0.39652828870E+02  0.36999741949E+03  0.00000000000E+00 0.  1.
         15    1    5    5    0    0 -0.22310846783E+03  0.30811695752E+02 -0.71054042244E+02  0.23617490057E+03  0.17770000000E+01 0. -1.
        -15    1    5    5    0    0 -0.25914333582E+01 -0.15606838637E+02  0.41708352229E+01  0.16457294266E+02  0.17770000000E+01 0.  1.
          2    1    6    6  503    0  0.37085673287E+02  0.32771201817E+03 -0.56373255475E+03  0.65311936680E+03  0.00000000000E+00 0.  1.
         -2    1    6    6    0  503 -0.14705620148E+01  0.14757969080E+03 -0.15566025429E+03  0.21450417817E+03  0.00000000000E+00 0. -1.
<mgrwt>
<rscale>  0 0.62605052E+03</rscale>
<asrwt>0</asrwt>
<pdfrwt beam="1">  1        2 0.19172797E+00 0.62605052E+03</pdfrwt>
<pdfrwt beam="2">  1       -2 0.63081582E-01 0.62605052E+03</pdfrwt>
<totfact> 0.42735773E+01</totfact>
</mgrwt>
</event>
<event>
12    1  0.9321077E-008  0.3674200E+03  0.7818608E-02  0.1055684E+00
          2   -1    0    0  501    0  0.00000000000E+00  0.00000000000E+00  0.11768244471E+04  0.11768244471E+04  0.00000000000E+00 0. -1.
         -2   -1    0    0    0  501 -0.00000000000E+00 -0.00000000000E+00 -0.26745719164E+03  0.26745719164E+03  0.00000000000E+00 0.  1.
         23    2    1    2    0    0  0.34681991325E+03 -0.87560016233E+02  0.11484799872E+03  0.38646176078E+03  0.90619098766E+02 0.  0.
    5000000    2    1    2    0    0 -0.34681991325E+03  0.87560016233E+02  0.79451925677E+03  0.10578198780E+04  0.59980933325E+03 0.  0.
         23    2    4    4    0    0 -0.18262623044E+03  0.72200705034E+02  0.83874961155E+03  0.86503525638E+03  0.78865721675E+02 0.  0.
         23    2    4    4    0    0 -0.16419368282E+03  0.15359311199E+02 -0.44230354782E+02  0.19278462162E+03  0.89521573556E+02 0.  0.
          2    1    3    3  502    0  0.44737053462E+02  0.25333159547E+01  0.45162594613E+02  0.63619820766E+02  0.00000000000E+00 0. -1.
         -2    1    3    3    0  502  0.30208285979E+03 -0.90093332187E+02  0.69685404111E+02  0.32284194001E+03  0.00000000000E+00 0.  1.
         15    1    5    5    0    0 -0.76939935291E+02  0.46300616883E+02  0.53256109031E+03  0.54008145072E+03  0.17770000000E+01 0. -1.
        -15    1    5    5    0    0 -0.10568629514E+03  0.25900088151E+02  0.30618852124E+03  0.32495380566E+03  0.17770000000E+01 0.  1.
          4    1    6    6  503    0 -0.67804967997E+02  0.37179682268E+02 -0.52723293859E+02  0.93592671583E+02  0.00000000000E+00 0. -1.
         -4    1    6    6    0  503 -0.96388714820E+02 -0.21820371069E+02  0.84929390768E+01  0.99191950039E+02  0.00000000000E+00 0.  1.
<mgrwt>
<rscale>  0 0.36742001E+03</rscale>
<asrwt>0</asrwt>
<pdfrwt beam="1">  1        2 0.18104991E+00 0.36742001E+03</pdfrwt>
<pdfrwt beam="2">  1       -2 0.41147261E-01 0.36742001E+03</pdfrwt>
<totfact> 0.11565661E+02</totfact>
</mgrwt>
</event>
<event>
12    1  0.9321077E-008  0.6111821E+03  0.7818608E-02  0.9882475E-01
          3   -1    0    0  501    0  0.00000000000E+00  0.00000000000E+00  0.75766020174E+03  0.75766020174E+03  0.00000000000E+00 0. -1.
         -3   -1    0    0    0  501 -0.00000000000E+00 -0.00000000000E+00 -0.84090928714E+03  0.84090928714E+03  0.00000000000E+00 0.  1.
         23    2    1    2    0    0 -0.41953375371E+03 -0.23256308459E+03  0.44889906927E+03  0.66419679591E+03  0.97738684742E+02 0.  0.
    5000000    2    1    2    0    0  0.41953375371E+03  0.23256308459E+03 -0.53214815467E+03  0.93437269296E+03  0.59981373110E+03 0.  0.
         23    2    4    4    0    0  0.48231780556E+03  0.33106448266E+03 -0.31529128842E+03  0.66935191035E+03  0.79932634761E+02 0.  0.
         23    2    4    4    0    0 -0.62784051851E+02 -0.98501398065E+02 -0.21685686625E+03  0.26502078261E+03  0.97799551056E+02 0.  0.
          3    1    3    3  502    0 -0.18336509094E+03 -0.13067232022E+03  0.26645874497E+03  0.34885279792E+03  0.00000000000E+00 0. -1.
         -3    1    3    3    0  502 -0.23616866278E+03 -0.10189076438E+03  0.18244032430E+03  0.31534399800E+03  0.00000000000E+00 0.  1.
         15    1    5    5    0    0  0.30529679834E+03  0.24922046660E+03 -0.23160240404E+03  0.45712121733E+03  0.17770000000E+01 0.  1.
        -15    1    5    5    0    0  0.17702100722E+03  0.81844016055E+02 -0.83688884384E+02  0.21223069302E+03  0.17770000000E+01 0. -1.
          3    1    6    6  503    0 -0.69696518446E+02 -0.20647168885E+02 -0.86070908869E+02  0.11265927223E+03  0.00000000000E+00 0.  1.
         -3    1    6    6    0  503  0.69124665950E+01 -0.77854229181E+02 -0.13078595738E+03  0.15236151038E+03  0.00000000000E+00 0. -1.
<mgrwt>
<rscale>  0 0.61118206E+03</rscale>
<asrwt>0</asrwt>
<pdfrwt beam="1">  1        3 0.11656311E+00 0.61118206E+03</pdfrwt>
<pdfrwt beam="2">  1       -3 0.12937066E+00 0.61118206E+03</pdfrwt>
<totfact> 0.74505804E-01</totfact>
</mgrwt>
</event>
<event>
12    1  0.9321077E-008  0.1101709E+04  0.7818608E-02  0.9203528E-01
         -1   -1    0    0    0  501 -0.00000000000E+00  0.00000000000E+00  0.42197968907E+03  0.42197968907E+03  0.00000000000E+00 0.  1.
          1   -1    0    0  501    0  0.00000000000E+00 -0.00000000000E+00 -0.31112266902E+04  0.31112266902E+04  0.00000000000E+00 0. -1.
         23    2    1    2    0    0 -0.10212732255E+04 -0.12267036736E+02 -0.17200792181E+04  0.20028242736E+04  0.97381070266E+02 0.  0.
    5000000    2    1    2    0    0  0.10212732255E+04  0.12267036736E+02 -0.96916778298E+03  0.15303821057E+04  0.59969468614E+03 0.  0.
         23    2    4    4    0    0 -0.49312508622E+02 -0.30035866071E+02 -0.93303363323E+02  0.14371010922E+03  0.92807333363E+02 0.  0.
         23    2    4    4    0    0  0.10705857341E+04  0.42302902807E+02 -0.87586441966E+03  0.13866719965E+04  0.88189537591E+02 0.  0.
          3    1    3    3  502    0 -0.59658742309E+03 -0.42550030933E+02 -0.94090086412E+03  0.11149087383E+04  0.00000000000E+00 0. -1.
         -3    1    3    3    0  502 -0.42468580239E+03  0.30282994197E+02 -0.77917835402E+03  0.88791553532E+03  0.00000000000E+00 0.  1.
         15    1    5    5    0    0  0.14450503023E+02 -0.40828945457E+02 -0.26971546250E+02  0.51053323700E+02  0.17770000000E+01 0. -1.
        -15    1    5    5    0    0 -0.63763011645E+02  0.10793079386E+02 -0.66331817074E+02  0.92656785515E+02  0.17770000000E+01 0.  1.
          1    1    6    6  503    0  0.50251323171E+03  0.12990599552E+02 -0.35499998137E+03  0.61539685609E+03  0.00000000000E+00 0.  1.
         -1    1    6    6    0  503  0.56807250240E+03  0.29312303255E+02 -0.52086443829E+03  0.77127514039E+03  0.00000000000E+00 0. -1.
<mgrwt>
<rscale>  0 0.11017090E+04</rscale>
<asrwt>0</asrwt>
<pdfrwt beam="1">  1        1 0.47865027E+00 0.11017090E+04</pdfrwt>
<pdfrwt beam="2">  1       -1 0.64919951E-01 0.11017090E+04</pdfrwt>
<totfact> 0.12085296E+00</totfact>
</mgrwt>
</event>
<event>
12    1  0.9321077E-008  0.1136633E+04  0.7818608E-02  0.9170204E-01
          1   -1    0    0  501    0  0.00000000000E+00  0.00000000000E+00  0.13455320124E+04  0.13455320124E+04  0.00000000000E+00 0. -1.
         -1   -1    0    0    0  501 -0.00000000000E+00 -0.00000000000E+00 -0.10737372361E+04  0.10737372361E+04  0.00000000000E+00 0.  1.
         23    2    1    2    0    0 -0.10699184627E+04 -0.82152787742E+02  0.46805933224E+03  0.11742856791E+04  0.91611791888E+02 0.  0.
    5000000    2    1    2    0    0  0.10699184627E+04  0.82152787742E+02 -0.19626455602E+03  0.12449835694E+04  0.59999142885E+03 0.  0.
         23    2    4    4    0    0  0.10453034399E+04  0.18661563658E+03 -0.93901180384E+02  0.10702453658E+04  0.95514576119E+02 0.  0.
         23    2    4    4    0    0  0.24615022829E+02 -0.10446284884E+03 -0.10236337563E+03  0.17473820351E+03  0.92394766940E+02 0.  0.
          4    1    3    3  502    0 -0.29606685913E+03 -0.58803866473E+02  0.15324881860E+03  0.33852426824E+03  0.00000000000E+00 0. -1.
         -4    1    3    3    0  502 -0.77385160355E+03 -0.23348921269E+02  0.31481051364E+03  0.83576141090E+03  0.00000000000E+00 0.  1.
         15    1    5    5    0    0  0.49469695401E+03  0.11849838369E+03 -0.74904315994E+01  0.50874965114E+03  0.17770000000E+01 0.  1.
        -15    1    5    5    0    0  0.55060648585E+03  0.68117252886E+02 -0.86410748785E+02  0.56149571471E+03  0.17770000000E+01 0. -1.
          2    1    6    6  503    0  0.45403794451E+02 -0.25534446746E+02 -0.69254072561E+02  0.86658173806E+02  0.00000000000E+00 0. -1.
         -2    1    6    6    0  503 -0.20788771622E+02 -0.78928402091E+02 -0.33109303074E+02  0.88080029702E+02  0.00000000000E+00 0.  1.
<mgrwt>
<rscale>  0 0.11366334E+04</rscale>
<asrwt>0</asrwt>
<pdfrwt beam="1">  1        1 0.20700492E+00 0.11366334E+04</pdfrwt>
<pdfrwt beam="2">  1       -1 0.16519035E+00 0.11366334E+04</pdfrwt>
<totfact> 0.22143627E+00</totfact>
</mgrwt>
</event>
<event>
12    1  0.9321077E-008  0.1024136E+04  0.7818608E-02  0.9282462E-01
         -2   -1    0    0    0  501 -0.00000000000E+00  0.00000000000E+00  0.84122052357E+03  0.84122052357E+03  0.00000000000E+00 0.  1.
          2   -1    0    0  501    0  0.00000000000E+00 -0.00000000000E+00 -0.14742033256E+04  0.14742033256E+04  0.00000000000E+00 0. -1.
         23    2    1    2    0    0  0.35448002939E+03 -0.86709573920E+03  0.15295494934E+03  0.95339243765E+03  0.89726314262E+02 0.  0.
    5000000    2    1    2    0    0 -0.35448002939E+03  0.86709573920E+03 -0.78593775134E+03  0.13620314115E+04  0.59993358360E+03 0.  0.
         23    2    4    4    0    0 -0.81078677828E+02 -0.62099959504E+02 -0.74194553187E+02  0.15606706738E+03  0.91771132878E+02 0.  0.
         23    2    4    4    0    0 -0.27340135156E+03  0.92919569870E+03 -0.71174319816E+03  0.12059643441E+04  0.98074836811E+02 0.  0.
          4    1    3    3  502    0  0.21305319732E+03 -0.59118764905E+03  0.68998291092E+02  0.63218293669E+03  0.00000000000E+00 0. -1.
         -4    1    3    3    0  502  0.14142683208E+03 -0.27590809015E+03  0.83956658252E+02  0.32120950096E+03  0.00000000000E+00 0.  1.
         15    1    5    5    0    0  0.19309022813E+02 -0.21020154845E+02 -0.19162308292E+02  0.34424367239E+02  0.17770000000E+01 0.  1.
        -15    1    5    5    0    0 -0.10038770064E+03 -0.41079804659E+02 -0.55032244895E+02  0.12164270014E+03  0.17770000000E+01 0. -1.
          1    1    6    6  503    0 -0.26025388276E+03  0.76573156889E+03 -0.57313199937E+03  0.99124023717E+03  0.00000000000E+00 0. -1.
         -1    1    6    6    0  503 -0.13147468808E+02  0.16346412981E+03 -0.13861119878E+03  0.21472410693E+03  0.00000000000E+00 0.  1.
<mgrwt>
<rscale>  0 0.10241360E+04</rscale>
<asrwt>0</asrwt>
<pdfrwt beam="1">  1        2 0.22680051E+00 0.10241360E+04</pdfrwt>
<pdfrwt beam="2">  1       -2 0.12941854E+00 0.10241360E+04</pdfrwt>
<totfact> 0.57132103E+00</totfact>
</mgrwt>
</event>
<event>
12    1  0.9321077E-008  0.1084263E+04  0.7818608E-02  0.9220667E-01
          1   -1    0    0  501    0  0.00000000000E+00  0.00000000000E+00  0.36612465793E+04  0.36612465793E+04  0.00000000000E+00 0. -1.
         -1   -1    0    0    0  501 -0.00000000000E+00 -0.00000000000E+00 -0.50694802818E+03  0.50694802818E+03  0.00000000000E+00 0.  1.
         23    2    1    2    0    0  0.46204203763E+03  0.89138867685E+03  0.27540911259E+04  0.29319744208E+04  0.58304862030E+02 0.  0.
    5000000    2    1    2    0    0 -0.46204203763E+03 -0.89138867685E+03  0.40020742518E+03  0.12362201866E+04  0.60001479051E+03 0.  0.
         23    2    4    4    0    0  0.11998960170E+03 -0.10677540509E+03  0.29407749609E+02  0.18727140554E+03  0.91691177042E+02 0.  0.
         23    2    4    4    0    0 -0.58203163933E+03 -0.78461327176E+03  0.37079967557E+03  0.10489487811E+04  0.91773255776E+02 0.  0.
          3    1    3    3  502    0  0.18244882727E+03  0.35878731262E+03  0.11878069399E+04  0.12541535938E+04  0.00000000000E+00 0. -1.
         -3    1    3    3    0  502  0.27959321036E+03  0.53260136423E+03  0.15662841860E+04  0.16778208270E+04  0.00000000000E+00 0.  1.
         15    1    5    5    0    0  0.34484656860E+02  0.13745250773E+02  0.57285472716E+01  0.37604487237E+02  0.17770000000E+01 0. -1.
        -15    1    5    5    0    0  0.85504944841E+02 -0.12052065586E+03  0.23679202337E+02  0.14966691830E+03  0.17770000000E+01 0.  1.
          1    1    6    6  503    0 -0.55992786815E+03 -0.72561185515E+03  0.36155444578E+03  0.98526818639E+03  0.00000000000E+00 0. -1.
         -1    1    6    6    0  503 -0.22103771185E+02 -0.59001416614E+02  0.92452297923E+01  0.63680594666E+02  0.00000000000E+00 0.  1.
<mgrwt>
<rscale>  0 0.10842632E+04</rscale>
<asrwt>0</asrwt>
<pdfrwt beam="1">  1        1 0.56326869E+00 0.10842632E+04</pdfrwt>
<pdfrwt beam="2">  1       -1 0.77992007E-01 0.10842632E+04</pdfrwt>
<totfact> 0.31429664E-01</totfact>
</mgrwt>
</event>
<event>
12    1  0.9321077E-008  0.5856320E+03  0.7818608E-02  0.9935672E-01
         -2   -1    0    0    0  501 -0.00000000000E+00  0.00000000000E+00  0.62020649123E+03  0.62020649123E+03  0.00000000000E+00 0.  1.
          2   -1    0    0  501    0  0.00000000000E+00 -0.00000000000E+00 -0.72364554321E+03  0.72364554321E+03  0.00000000000E+00 0. -1.
         23    2    1    2    0    0  0.51542975775E+03 -0.12598230264E+03 -0.41862244586E+02  0.54047315137E+03  0.93911682354E+02 0.  0.
    5000000    2    1    2    0    0 -0.51542975775E+03  0.12598230264E+03 -0.61576807395E+02  0.80337888306E+03  0.60007212132E+03 0.  0.
         23    2    4    4    0    0 -0.40511917648E+02  0.12594339590E+03  0.19786384482E+03  0.25475173304E+03  0.90804129634E+02 0.  0.
         23    2    4    4    0    0 -0.47491784010E+03  0.38906739930E-01 -0.25944065222E+03  0.54862715002E+03  0.90196127136E+02 0.  0.
          1    1    3    3  502    0  0.20308979356E+03 -0.80290444947E+02  0.18212519800E+02  0.21914313969E+03  0.00000000000E+00 0. -1.
         -1    1    3    3    0  502  0.31233996419E+03 -0.45691857691E+02 -0.60074764386E+02  0.32133001168E+03  0.00000000000E+00 0.  1.
         15    1    5    5    0    0 -0.65419574852E+02  0.56180276505E+02  0.11123025185E+03  0.14075251649E+03  0.17770000000E+01 0. -1.
        -15    1    5    5    0    0  0.24907657204E+02  0.69763119394E+02  0.86633592975E+02  0.11399921656E+03  0.17770000000E+01 0.  1.
          2    1    6    6  503    0 -0.30259707315E+03  0.20740553379E+02 -0.12074628824E+03  0.32645799938E+03  0.00000000000E+00 0. -1.
         -2    1    6    6    0  503 -0.17232076695E+03 -0.20701646639E+02 -0.13869436398E+03  0.22216915064E+03  0.00000000000E+00 0.  1.
<mgrwt>
<rscale>  0 0.58563199E+03</rscale>
<asrwt>0</asrwt>
<pdfrwt beam="1">  1        2 0.11133008E+00 0.58563199E+03</pdfrwt>
<pdfrwt beam="2">  1       -2 0.95416383E-01 0.58563199E+03</pdfrwt>
<totfact> 0.37277168E+01</totfact>
</mgrwt>
</event>
<event>
12    1  0.9321077E-008  0.9489225E+03  0.7818608E-02  0.9366411E-01
          1   -1    0    0  501    0  0.00000000000E+00  0.00000000000E+00  0.62049083205E+03  0.62049083205E+03  0.00000000000E+00 0. -1.
         -1   -1    0    0    0  501 -0.00000000000E+00 -0.00000000000E+00 -0.24535838704E+04  0.24535838704E+04  0.00000000000E+00 0.  1.
         23    2    1    2    0    0  0.71383756417E+03 -0.60544332678E+03 -0.17142279101E+04  0.19552624541E+04  0.91368741412E+02 0.  0.
    5000000    2    1    2    0    0 -0.71383756417E+03  0.60544332678E+03 -0.11886512827E+03  0.11188122483E+04  0.60123725624E+03 0.  0.
         23    2    4    4    0    0 -0.23755567822E+03  0.25192575735E+03 -0.32373132959E+03  0.48472679488E+03  0.10128575639E+03 0.  0.
         23    2    4    4    0    0 -0.47628188595E+03  0.35351756943E+03  0.20486620132E+03  0.63408545343E+03  0.90967549301E+02 0.  0.
          2    1    3    3  502    0  0.26131570435E+03 -0.16629747269E+03 -0.54854241353E+03  0.62995200309E+03  0.00000000000E+00 0. -1.
         -2    1    3    3    0  502  0.45252185982E+03 -0.43914585409E+03 -0.11656854965E+04  0.13253104510E+04  0.00000000000E+00 0.  1.
         15    1    5    5    0    0 -0.16836433706E+03  0.10885346547E+03 -0.20119798210E+03  0.28404121650E+03  0.17770000000E+01 0.  1.
        -15    1    5    5    0    0 -0.69191341152E+02  0.14307229188E+03 -0.12253334749E+03  0.20068557838E+03  0.17770000000E+01 0. -1.
          1    1    6    6  503    0 -0.40157140005E+03  0.33000645980E+03  0.16009525127E+03  0.54386978435E+03  0.00000000000E+00 0. -1.
         -1    1    6    6    0  503 -0.74710485905E+02  0.23511109635E+02  0.44770950045E+02  0.90215669085E+02  0.00000000000E+00 0.  1.
<mgrwt>
<rscale>  0 0.94892246E+03</rscale>
<asrwt>0</asrwt>
<pdfrwt beam="1">  1        1 0.95460130E-01 0.94892246E+03</pdfrwt>
<pdfrwt beam="2">  1       -1 0.37747443E+00 0.94892246E+03</pdfrwt>
<totfact> 0.34262496E-01</totfact>
</mgrwt>
</event>
<event>
12    1  0.9321077E-008  0.6574118E+03  0.7818608E-02  0.9792970E-01
          2   -1    0    0  501    0  0.00000000000E+00  0.00000000000E+00  0.14373353016E+04  0.14373353016E+04  0.00000000000E+00 0. -1.
         -2   -1    0    0    0  501 -0.00000000000E+00 -0.00000000000E+00 -0.41162268360E+03  0.41162268360E+03  0.00000000000E+00 0.  1.
         23    2    1    2    0    0 -0.47869480406E+03 -0.43441180421E+03  0.49863612113E+03  0.82146942684E+03  0.91168562932E+02 0.  0.
    5000000    2    1    2    0    0  0.47869480406E+03  0.43441180421E+03  0.52707649683E+03  0.10274885583E+04  0.60005064196E+03 0.  0.
         23    2    4    4    0    0  0.23021231613E+03  0.23536850970E+03 -0.65841931539E+02  0.34826638028E+03  0.92510895715E+02 0.  0.
         23    2    4    4    0    0  0.24848248792E+03  0.19904329452E+03  0.59291842837E+03  0.67922217806E+03  0.91808085506E+02 0.  0.
          2    1    3    3  502    0 -0.21362687041E+03 -0.25530556471E+03  0.25759563868E+03  0.42091909460E+03  0.00000000000E+00 0. -1.
         -2    1    3    3    0  502 -0.26506793365E+03 -0.17910623950E+03  0.24104048246E+03  0.40055033224E+03  0.00000000000E+00 0.  1.
         15    1    5    5    0    0  0.12936256703E+02  0.62651889176E+02 -0.19136378027E+02  0.66797938949E+02  0.17770000000E+01 0. -1.
        -15    1    5    5    0    0  0.21727605943E+03  0.17271662052E+03 -0.46705553512E+02  0.28146844133E+03  0.17770000000E+01 0.  1.
          1    1    6    6  503    0  0.53935897746E+02  0.63695724759E+02  0.24011396740E+03  0.25420649827E+03  0.00000000000E+00 0. -1.
         -1    1    6    6    0  503  0.19454659018E+03  0.13534756976E+03  0.35280446097E+03  0.42501567979E+03  0.00000000000E+00 0.  1.
<mgrwt>
<rscale>  0 0.65741184E+03</rscale>
<asrwt>0</asrwt>
<pdfrwt beam="1">  1        2 0.22112851E+00 0.65741184E+03</pdfrwt>
<pdfrwt beam="2">  1       -2 0.63326567E-01 0.65741184E+03</pdfrwt>
<totfact> 0.32870093E+01</totfact>
</mgrwt>
</event>
<event>
12    1  0.9930692E-008  0.7545679E+03  0.7818608E-02  0.9628211E-01
          1   -1    0    0  501    0  0.00000000000E+00  0.00000000000E+00  0.15149572017E+04  0.15149572017E+04  0.00000000000E+00 0. -1.
         -1   -1    0    0    0  501 -0.00000000000E+00 -0.00000000000E+00 -0.39852006790E+03  0.39852006790E+03  0.00000000000E+00 0.  1.
         23    2    1    2    0    0 -0.51263231966E+03  0.40018015107E+03  0.59564340570E+03  0.88680253449E+03  0.93228857934E+02 0.  0.
    5000000    2    1    2    0    0  0.51263231966E+03 -0.40018015107E+03  0.52079372808E+03  0.10266747351E+04  0.59991570740E+03 0.  0.
         23    2    4    4    0    0 -0.10514581689E+03 -0.80988764378E+02  0.14917490838E+02  0.16126712388E+03  0.90386563978E+02 0.  0.
         23    2    4    4    0    0  0.61777813654E+03 -0.31919138670E+03  0.50587623724E+03  0.86540761121E+03  0.97399172458E+02 0.  0.
          4    1    3    3  502    0 -0.22220283652E+03  0.21169949539E+03  0.23225383521E+03  0.38488000841E+03  0.00000000000E+00 0.  1.
         -4    1    3    3    0  502 -0.29042948314E+03  0.18848065569E+03  0.36338957049E+03  0.50192252608E+03  0.00000000000E+00 0. -1.
         15    1    5    5    0    0 -0.38326829319E+02  0.16980359403E+02  0.49735810605E+01  0.42251303988E+02  0.17770000000E+01 0.  1.
        -15    1    5    5    0    0 -0.66818987566E+02 -0.97969123782E+02  0.99439097774E+01  0.11901581989E+03  0.17770000000E+01 0. -1.
          1    1    6    6  503    0  0.32941877190E+03 -0.17610134527E+03  0.21184697797E+03  0.42942700563E+03  0.00000000000E+00 0. -1.
         -1    1    6    6    0  503  0.28835936464E+03 -0.14309004142E+03  0.29402925928E+03  0.43598060558E+03  0.00000000000E+00 0.  1.
<mgrwt>
<rscale>  0 0.75456788E+03</rscale>
<asrwt>0</asrwt>
<pdfrwt beam="1">  1        1 0.23307034E+00 0.75456788E+03</pdfrwt>
<pdfrwt beam="2">  1       -1 0.61310781E-01 0.75456788E+03</pdfrwt>
<totfact> 0.17833887E+01</totfact>
</mgrwt>
</event>
<event>
12    1  0.9321077E-008  0.4986262E+03  0.7818608E-02  0.1014138E+00
          2   -1    0    0  501    0  0.00000000000E+00  0.00000000000E+00  0.71023685818E+03  0.71023685818E+03  0.00000000000E+00 0.  1.
         -2   -1    0    0    0  501 -0.00000000000E+00 -0.00000000000E+00 -0.44211934153E+03  0.44211934153E+03  0.00000000000E+00 0. -1.
         23    2    1    2    0    0 -0.30806334155E+03 -0.21340410898E+03  0.21926571351E+03  0.44323585372E+03  0.89085536227E+02 0.  0.
    5000000    2    1    2    0    0  0.30806334155E+03  0.21340410898E+03  0.48851803132E+02  0.70912034599E+03  0.60001735832E+03 0.  0.
         23    2    4    4    0    0  0.26562470232E+03 -0.96458091140E+02 -0.14239278094E+03  0.33107629816E+03  0.97340460804E+02 0.  0.
         23    2    4    4    0    0  0.42438639229E+02  0.30986220012E+03  0.19124458408E+03  0.37804404783E+03  0.92342785286E+02 0.  0.
          1    1    3    3  502    0 -0.24189924430E+03 -0.20452308343E+03  0.19617175966E+03  0.37259669260E+03  0.00000000000E+00 0. -1.
         -1    1    3    3    0  502 -0.66164097246E+02 -0.88810255547E+01  0.23093953856E+02  0.70639161122E+02  0.00000000000E+00 0.  1.
         15    1    5    5    0    0  0.22525227004E+03 -0.10158767816E+03 -0.86280773401E+02  0.26173683558E+03  0.17770000000E+01 0. -1.
        -15    1    5    5    0    0  0.40372432282E+02  0.51295870221E+01 -0.56112007543E+02  0.69339462580E+02  0.17770000000E+01 0.  1.
          3    1    6    6  503    0  0.67165103588E+02  0.27535381466E+03  0.17094127851E+03  0.33098609500E+03  0.00000000000E+00 0. -1.
         -3    1    6    6    0  503 -0.24726464359E+02  0.34508385469E+02  0.20303305564E+02  0.47057952826E+02  0.00000000000E+00 0.  1.
<mgrwt>
<rscale>  0 0.49862623E+03</rscale>
<asrwt>0</asrwt>
<pdfrwt beam="1">  1        2 0.10926721E+00 0.49862623E+03</pdfrwt>
<pdfrwt beam="2">  1       -2 0.68018360E-01 0.49862623E+03</pdfrwt>
<totfact> 0.82226536E+01</totfact>
</mgrwt>
</event>
<event>
12    1  0.9321077E-008  0.4399430E+03  0.7818608E-02  0.1030764E+00
          2   -1    0    0  501    0  0.00000000000E+00  0.00000000000E+00  0.21810611354E+04  0.21810611354E+04  0.00000000000E+00 0. -1.
         -2   -1    0    0    0  501 -0.00000000000E+00 -0.00000000000E+00 -0.18228726436E+03  0.18228726436E+03  0.00000000000E+00 0.  1.
         23    2    1    2    0    0  0.11007422168E+03 -0.38651185651E+03  0.27839607879E+03  0.49756099593E+03  0.92492261724E+02 0.  0.
    5000000    2    1    2    0    0 -0.11007422168E+03  0.38651185651E+03  0.17203777923E+04  0.18657874039E+04  0.59996261447E+03 0.  0.
         23    2    4    4    0    0  0.46058064346E+02  0.12251956039E+03  0.14171713170E+04  0.14261110171E+04  0.91025838977E+02 0.  0.
         23    2    4    4    0    0 -0.15613228603E+03  0.26399229611E+03  0.30320647529E+03  0.43967638679E+03  0.85509854965E+02 0.  0.
          3    1    3    3  502    0  0.15490979974E+02 -0.13763460962E+03  0.51561292353E+02  0.14778979361E+03  0.00000000000E+00 0. -1.
         -3    1    3    3    0  502  0.94583241706E+02 -0.24887724689E+03  0.22683478644E+03  0.34977120231E+03  0.00000000000E+00 0.  1.
         15    1    5    5    0    0 -0.21053124137E+02  0.68773252732E+02  0.74347942396E+03  0.74695234514E+03  0.17770000000E+01 0. -1.
        -15    1    5    5    0    0  0.67111188483E+02  0.53746307663E+02  0.67369189302E+03  0.67915867193E+03  0.17770000000E+01 0.  1.
          3    1    6    6  503    0 -0.96553104620E+02  0.22796524994E+03  0.22013093885E+03  0.33128279072E+03  0.00000000000E+00 0. -1.
         -3    1    6    6    0  503 -0.59579181405E+02  0.36027046173E+02  0.83075536441E+02  0.10839359606E+03  0.00000000000E+00 0.  1.
<mgrwt>
<rscale>  0 0.43994299E+03</rscale>
<asrwt>0</asrwt>
<pdfrwt beam="1">  1        2 0.33554785E+00 0.43994299E+03</pdfrwt>
<pdfrwt beam="2">  1       -2 0.28044196E-01 0.43994299E+03</pdfrwt>
<totfact> 0.66594724E+01</totfact>
</mgrwt>
</event>
<event>
12    1  0.9321077E-008  0.7984821E+03  0.7818608E-02  0.9562217E-01
          1   -1    0    0  501    0  0.00000000000E+00  0.00000000000E+00  0.16411442220E+04  0.16411442220E+04  0.00000000000E+00 0. -1.
         -1   -1    0    0    0  501 -0.00000000000E+00 -0.00000000000E+00 -0.41824058395E+03  0.41824058395E+03  0.00000000000E+00 0.  1.
         23    2    1    2    0    0 -0.40667804131E+02  0.70124114992E+03  0.35834681233E+03  0.79416088713E+03  0.94265879860E+02 0.  0.
    5000000    2    1    2    0    0  0.40667804131E+02 -0.70124114992E+03  0.86455682571E+03  0.12652239188E+04  0.59995003063E+03 0.  0.
         23    2    4    4    0    0 -0.15754892278E+03  0.30788567973E+01  0.11916938077E+03  0.21762404841E+03  0.91256466646E+02 0.  0.
         23    2    4    4    0    0  0.19821672691E+03 -0.70432000671E+03  0.74538744494E+03  0.10475998704E+04  0.80662895642E+02 0.  0.
          2    1    3    3  502    0 -0.30628737977E+02  0.33804071005E+03  0.22450280766E+03  0.40695350089E+03  0.00000000000E+00 0.  1.
         -2    1    3    3    0  502 -0.10039066154E+02  0.36320043987E+03  0.13384400467E+03  0.38720738623E+03  0.00000000000E+00 0. -1.
         15    1    5    5    0    0 -0.11203389885E+03  0.95125649647E+01  0.12842618765E+03  0.17070010776E+03  0.17770000000E+01 0.  1.
        -15    1    5    5    0    0 -0.45515023929E+02 -0.64337081674E+01 -0.92568068786E+01  0.46923940656E+02  0.17770000000E+01 0. -1.
          3    1    6    6  503    0  0.12357001694E+03 -0.29762491189E+03  0.34293153294E+03  0.47058705205E+03  0.00000000000E+00 0. -1.
         -3    1    6    6    0  503  0.74646709970E+02 -0.40669509482E+03  0.40245591199E+03  0.57701281837E+03  0.00000000000E+00 0.  1.
<mgrwt>
<rscale>  0 0.79848211E+03</rscale>
<asrwt>0</asrwt>
<pdfrwt beam="1">  1        1 0.25248372E+00 0.79848211E+03</pdfrwt>
<pdfrwt beam="2">  1       -1 0.64344706E-01 0.79848211E+03</pdfrwt>
<totfact> 0.13214808E+01</totfact>
</mgrwt>
</event>
<event>
12    1  0.9321077E-008  0.3814431E+03  0.7818608E-02  0.1050402E+00
          1   -1    0    0  501    0  0.00000000000E+00  0.00000000000E+00  0.47051911044E+03  0.47051911044E+03  0.00000000000E+00 0. -1.
         -1   -1    0    0    0  501 -0.00000000000E+00 -0.00000000000E+00 -0.62023972055E+03  0.62023972055E+03  0.00000000000E+00 0.  1.
         23    2    1    2    0    0 -0.15285403842E+03 -0.13059280257E+03 -0.36199482777E+03  0.42334062827E+03  0.88080616849E+02 0.  0.
    5000000    2    1    2    0    0  0.15285403842E+03  0.13059280257E+03  0.21227421766E+03  0.66741820272E+03  0.59997322998E+03 0.  0.
         23    2    4    4    0    0 -0.77330933414E+02 -0.15896084868E+03  0.20747713089E+03  0.28674166647E+03  0.89024708760E+02 0.  0.
         23    2    4    4    0    0  0.23018497184E+03  0.28955365126E+03  0.47970867714E+01  0.38067653625E+03  0.89806319334E+02 0.  0.
          3    1    3    3  502    0 -0.10412744548E+03 -0.12318451018E+03 -0.21828097870E+03  0.27141026899E+03  0.00000000000E+00 0. -1.
         -3    1    3    3    0  502 -0.48726592940E+02 -0.74082923906E+01 -0.14371384907E+03  0.15193035928E+03  0.00000000000E+00 0.  1.
         15    1    5    5    0    0 -0.49593244385E+02 -0.97118253936E+02  0.18600547095E+03  0.21562151583E+03  0.17770000000E+01 0. -1.
        -15    1    5    5    0    0 -0.27737689029E+02 -0.61842594748E+02  0.21471659947E+02  0.71120150645E+02  0.17770000000E+01 0.  1.
          4    1    6    6  503    0  0.14195378914E+03  0.12695256714E+03 -0.28943165815E+02  0.19262798188E+03  0.00000000000E+00 0. -1.
         -4    1    6    6    0  503  0.88231182693E+02  0.16260108411E+03  0.33740252587E+02  0.18804855436E+03  0.00000000000E+00 0.  1.
<mgrwt>
<rscale>  0 0.38144309E+03</rscale>
<asrwt>0</asrwt>
<pdfrwt beam="1">  1        1 0.72387556E-01 0.38144309E+03</pdfrwt>
<pdfrwt beam="2">  1       -1 0.95421495E-01 0.38144309E+03</pdfrwt>
<totfact> 0.54370120E+01</totfact>
</mgrwt>
</event>
<event>
12    1  0.9321077E-008  0.1690375E+04  0.7818608E-02  0.8766873E-01
         -1   -1    0    0    0  501 -0.00000000000E+00  0.00000000000E+00  0.12809853361E+04  0.12809853361E+04  0.00000000000E+00 0.  1.
          1   -1    0    0  501    0  0.00000000000E+00 -0.00000000000E+00 -0.22818127974E+04  0.22818127974E+04  0.00000000000E+00 0. -1.
         23    2    1    2    0    0 -0.10785035442E+02  0.16553849039E+04 -0.51905173774E+03  0.17373437698E+04  0.92375164948E+02 0.  0.
    5000000    2    1    2    0    0  0.10785035442E+02 -0.16553849039E+04 -0.48177572355E+03  0.18254543637E+04  0.59980020778E+03 0.  0.
         23    2    4    4    0    0  0.23699889301E+03 -0.85103213040E+03 -0.41876156360E+03  0.98184857338E+03  0.90781119418E+02 0.  0.
         23    2    4    4    0    0 -0.22621385757E+03 -0.80435277348E+03 -0.63014159951E+02  0.84360579034E+03  0.97692638335E+02 0.  0.
          3    1    3    3  502    0  0.13466723626E+02  0.12764363636E+04 -0.36605353439E+03  0.13279556969E+04  0.00000000000E+00 0. -1.
         -3    1    3    3    0  502 -0.24251759068E+02  0.37894854030E+03 -0.15299820335E+03  0.40938807291E+03  0.00000000000E+00 0.  1.
         15    1    5    5    0    0  0.20056981630E+03 -0.69878131418E+03 -0.30531338538E+03  0.78850681499E+03  0.17770000000E+01 0. -1.
        -15    1    5    5    0    0  0.36429076710E+02 -0.15225081622E+03 -0.11344817822E+03  0.19334175839E+03  0.17770000000E+01 0.  1.
          4    1    6    6  503    0 -0.86320989768E+02 -0.48042482684E+03 -0.25711944515E+02  0.48879487683E+03  0.00000000000E+00 0. -1.
         -4    1    6    6    0  503 -0.13989286780E+03 -0.32392794664E+03 -0.37302215437E+02  0.35481091352E+03  0.00000000000E+00 0.  1.
<mgrwt>
<rscale>  0 0.16903754E+04</rscale>
<asrwt>0</asrwt>
<pdfrwt beam="1">  1        1 0.35104812E+00 0.16903754E+04</pdfrwt>
<pdfrwt beam="2">  1       -1 0.19707467E+00 0.16903754E+04</pdfrwt>
<totfact> 0.27964782E-01</totfact>
</mgrwt>
</event>
<event>
12    1  0.9321077E-008  0.1502416E+04  0.7818608E-02  0.8882848E-01
         -2   -1    0    0    0  501 -0.00000000000E+00  0.00000000000E+00  0.19302483678E+04  0.19302483678E+04  0.00000000000E+00 0.  1.
          2   -1    0    0  501    0  0.00000000000E+00 -0.00000000000E+00 -0.11744316001E+04  0.11744316001E+04  0.00000000000E+00 0. -1.
         23    2    1    2    0    0  0.95196222224E+03 -0.10863854677E+04  0.37336027433E+03  0.14947926965E+04  0.92422151079E+02 0.  0.
    5000000    2    1    2    0    0 -0.95196222224E+03  0.10863854677E+04  0.38245649331E+03  0.16098872714E+04  0.59916491924E+03 0.  0.
         23    2    4    4    0    0 -0.55040905357E+02 -0.43791996867E+02  0.61017424799E+01  0.11599107543E+03  0.92029658626E+02 0.  0.
         23    2    4    4    0    0 -0.89692131688E+03  0.11301774645E+04  0.37635475083E+03  0.14938961960E+04  0.91181115713E+02 0.  0.
          3    1    3    3  502    0  0.77171506005E+03 -0.91899699620E+03  0.33422804865E+03  0.12457158590E+04  0.00000000000E+00 0. -1.
         -3    1    3    3    0  502  0.18024716219E+03 -0.16738847148E+03  0.39132225679E+02  0.24907683744E+03  0.00000000000E+00 0.  1.
         15    1    5    5    0    0 -0.78151042140E+02 -0.16289376643E+02  0.50106013423E+01  0.80007456114E+02  0.17770000000E+01 0. -1.
        -15    1    5    5    0    0  0.23110136783E+02 -0.27502620225E+02  0.10911411376E+01  0.35983619320E+02  0.17770000000E+01 0.  1.
          4    1    6    6  503    0 -0.79324477388E+03  0.98840512404E+03  0.36004972975E+03  0.13175043713E+04  0.00000000000E+00 0. -1.
         -4    1    6    6    0  503 -0.10367654300E+03  0.14177234051E+03  0.16305021081E+02  0.17639182468E+03  0.00000000000E+00 0.  1.
<mgrwt>
<rscale>  0 0.15024158E+04</rscale>
<asrwt>0</asrwt>
<pdfrwt beam="1">  1        2 0.18068178E+00 0.15024158E+04</pdfrwt>
<pdfrwt beam="2">  1       -2 0.29696129E+00 0.15024158E+04</pdfrwt>
<totfact> 0.61493532E-01</totfact>
</mgrwt>
</event>
<event>
12    1  0.9321077E-008  0.7726353E+03  0.7818608E-02  0.9600493E-01
          2   -1    0    0  501    0  0.00000000000E+00  0.00000000000E+00  0.36364693042E+04  0.36364693042E+04  0.00000000000E+00 0.  1.
         -2   -1    0    0    0  501 -0.00000000000E+00 -0.00000000000E+00 -0.19198045953E+03  0.19198045953E+03  0.00000000000E+00 0. -1.
         23    2    1    2    0    0 -0.25352795253E+03  0.67428808927E+03  0.16823141684E+04  0.18324272727E+04  0.93101548518E+02 0.  0.
    5000000    2    1    2    0    0  0.25352795253E+03 -0.67428808927E+03  0.17621746763E+04  0.19960224911E+04  0.59992111578E+03 0.  0.
         23    2    4    4    0    0  0.10835455347E+03 -0.27814960148E+01  0.78832820877E+03  0.80131550064E+03  0.94322430234E+02 0.  0.
         23    2    4    4    0    0  0.14517339906E+03 -0.67150659325E+03  0.97384646753E+03  0.11947069905E+04  0.83375237129E+02 0.  0.
          2    1    3    3  502    0 -0.22295615125E+02  0.10305283068E+03  0.32713727433E+03  0.34370885444E+03  0.00000000000E+00 0. -1.
         -2    1    3    3    0  502 -0.23123233740E+03  0.57123525859E+03  0.13551768941E+04  0.14887184182E+04  0.00000000000E+00 0.  1.
         15    1    5    5    0    0  0.12305003187E+02 -0.29924547479E+02  0.85527177292E+02  0.91460086539E+02  0.17770000000E+01 0. -1.
        -15    1    5    5    0    0  0.96049550284E+02  0.27143051464E+02  0.70280103148E+03  0.70985541410E+03  0.17770000000E+01 0.  1.
          1    1    6    6  503    0 -0.74071569123E+01 -0.98797467942E+01  0.11055936078E+02  0.16574350449E+02  0.00000000000E+00 0. -1.
         -1    1    6    6    0  503  0.15258055597E+03 -0.66162684646E+03  0.96279053145E+03  0.11781326400E+04  0.00000000000E+00 0.  1.
<mgrwt>
<rscale>  0 0.77263528E+03</rscale>
<asrwt>0</asrwt>
<pdfrwt beam="1">  1        2 0.55945676E+00 0.77263528E+03</pdfrwt>
<pdfrwt beam="2">  1       -2 0.29535458E-01 0.77263528E+03</pdfrwt>
<totfact> 0.74185620E+00</totfact>
</mgrwt>
</event>
<event>
12    1  0.9321077E-008  0.1378653E+04  0.7818608E-02  0.8969417E-01
         -2   -1    0    0    0  501 -0.00000000000E+00  0.00000000000E+00  0.13913365370E+04  0.13913365370E+04  0.00000000000E+00 0.  1.
          2   -1    0    0  501    0  0.00000000000E+00 -0.00000000000E+00 -0.15074580241E+04  0.15074580241E+04  0.00000000000E+00 0. -1.
         23    2    1    2    0    0  0.13298193494E+04  0.20708225590E+03  0.27073421438E+03  0.13751595279E+04  0.80399935350E+02 0.  0.
    5000000    2    1    2    0    0 -0.13298193494E+04 -0.20708225590E+03 -0.38685570156E+03  0.15236350332E+04  0.60041970131E+03 0.  0.
         23    2    4    4    0    0 -0.90026661072E+03 -0.33427273136E+03 -0.68821668427E+02  0.96651805543E+03  0.84867544500E+02 0.  0.
         23    2    4    4    0    0 -0.42955273869E+03  0.12719047546E+03 -0.31803403314E+03  0.55711697776E+03  0.92415952647E+02 0.  0.
          4    1    3    3  502    0  0.51952863684E+03  0.12018911393E+03  0.10077230140E+03  0.54268820176E+03  0.00000000000E+00 0.  1.
         -4    1    3    3    0  502  0.81029071258E+03  0.86893141964E+02  0.16996191298E+03  0.83247132616E+03  0.00000000000E+00 0. -1.
         15    1    5    5    0    0 -0.11237131611E+03 -0.55681397006E+02  0.16369757408E+02  0.12648658957E+03  0.17770000000E+01 0.  1.
        -15    1    5    5    0    0 -0.78789529462E+03 -0.27859133435E+03 -0.85191425834E+02  0.84003146585E+03  0.17770000000E+01 0. -1.
          1    1    6    6  503    0 -0.39476346960E+03  0.11609276120E+03 -0.25446424833E+03  0.48380551858E+03  0.00000000000E+00 0. -1.
         -1    1    6    6    0  503 -0.34789269093E+02  0.11097714263E+02 -0.63569784802E+02  0.73311459170E+02  0.00000000000E+00 0.  1.
<mgrwt>
<rscale>  0 0.13786530E+04</rscale>
<asrwt>0</asrwt>
<pdfrwt beam="1">  1        2 0.23191662E+00 0.13786530E+04</pdfrwt>
<pdfrwt beam="2">  1       -2 0.21405177E+00 0.13786530E+04</pdfrwt>
<totfact> 0.12909470E+00</totfact>
</mgrwt>
</event>
<event>
12    1  0.9321077E-008  0.4029341E+03  0.7818608E-02  0.1042768E+00
          2   -1    0    0  501    0  0.00000000000E+00  0.00000000000E+00  0.10330858191E+04  0.10330858191E+04  0.00000000000E+00 0. -1.
         -2   -1    0    0    0  501 -0.00000000000E+00 -0.00000000000E+00 -0.18045537417E+03  0.18045537417E+03  0.00000000000E+00 0.  1.
         23    2    1    2    0    0  0.58112785441E+02  0.17351216046E+03  0.36863647196E+03  0.42179517982E+03  0.92383762641E+02 0.  0.
    5000000    2    1    2    0    0 -0.58112785441E+02 -0.17351216046E+03  0.48399397300E+03  0.79174601347E+03  0.59927290802E+03 0.  0.
         23    2    4    4    0    0 -0.30898194980E+03 -0.37251724718E+02  0.29057288046E+03  0.43550578137E+03  0.91515848103E+02 0.  0.
         23    2    4    4    0    0  0.25086916436E+03 -0.13626043574E+03  0.19342109255E+03  0.35624023210E+03  0.89404362044E+02 0.  0.
          2    1    3    3  502    0  0.50358764692E+02  0.61306646075E+02  0.22984270035E+03  0.24315052321E+03  0.00000000000E+00 0. -1.
         -2    1    3    3    0  502  0.77540207495E+01  0.11220551439E+03  0.13879377162E+03  0.17864465661E+03  0.00000000000E+00 0.  1.
         15    1    5    5    0    0 -0.10815105408E+03  0.23509293993E+02  0.13337205571E+03  0.17332224432E+03  0.17770000000E+01 0. -1.
        -15    1    5    5    0    0 -0.20083089572E+03 -0.60761018711E+02  0.15720082474E+03  0.26218353705E+03  0.17770000000E+01 0.  1.
          1    1    6    6  503    0  0.19059218052E+03 -0.67727330033E+02  0.16383106957E+03  0.26029404501E+03  0.00000000000E+00 0. -1.
         -1    1    6    6    0  503  0.60276983836E+02 -0.68533105712E+02  0.29590022979E+02  0.95946187098E+02  0.00000000000E+00 0.  1.
<mgrwt>
<rscale>  0 0.40293413E+03</rscale>
<asrwt>0</asrwt>
<pdfrwt beam="1">  1        2 0.15893628E+00 0.40293413E+03</pdfrwt>
<pdfrwt beam="2">  1       -2 0.27762366E-01 0.40293413E+03</pdfrwt>
<totfact> 0.29323408E+02</totfact>
</mgrwt>
</event>
<event>
12    1  0.9321077E-008  0.1097219E+04  0.7818608E-02  0.9207907E-01
         -2   -1    0    0    0  501 -0.00000000000E+00  0.00000000000E+00  0.10079669003E+04  0.10079669003E+04  0.00000000000E+00 0. -1.
          2   -1    0    0  501    0  0.00000000000E+00 -0.00000000000E+00 -0.13384012235E+04  0.13384012235E+04  0.00000000000E+00 0.  1.
         23    2    1    2    0    0  0.99490118792E+03  0.35241277439E+03  0.85620916904E+02  0.10629423241E+04  0.92153707378E+02 0.  0.
    5000000    2    1    2    0    0 -0.99490118792E+03 -0.35241277439E+03 -0.41605524001E+03  0.12834257996E+04  0.60004723413E+03 0.  0.
         23    2    4    4    0    0 -0.27420586717E+03 -0.30784999935E+03 -0.35832843913E+03  0.55369549098E+03  0.90658406942E+02 0.  0.
         23    2    4    4    0    0 -0.72069532075E+03 -0.44562775040E+02 -0.57726800879E+02  0.72973030867E+03  0.88240317210E+02 0.  0.
          2    1    3    3  502    0  0.48374969266E+03  0.13076185614E+03  0.66188914794E+02  0.50546355023E+03  0.00000000000E+00 0. -1.
         -2    1    3    3    0  502  0.51115149526E+03  0.22165091825E+03  0.19432002111E+02  0.55747877392E+03  0.00000000000E+00 0.  1.
         15    1    5    5    0    0 -0.15840987910E+03 -0.16567725490E+03 -0.25628843053E+03  0.34384525581E+03  0.17770000000E+01 0. -1.
        -15    1    5    5    0    0 -0.11579598806E+03 -0.14217274445E+03 -0.10204000860E+03  0.20985023517E+03  0.17770000000E+01 0.  1.
          3    1    6    6  503    0 -0.41551227792E+03 -0.25061822434E+01 -0.70212266559E+02  0.42141012853E+03  0.00000000000E+00 0. -1.
         -3    1    6    6    0  503 -0.30518304283E+03 -0.42056592797E+02  0.12485465680E+02  0.30832018014E+03  0.00000000000E+00 0.  1.
<mgrwt>
<rscale>  0 0.10972191E+04</rscale>
<asrwt>0</asrwt>
<pdfrwt beam="1">  1        2 0.20590788E+00 0.10972191E+04</pdfrwt>
<pdfrwt beam="2">  1       -2 0.15507183E+00 0.10972191E+04</pdfrwt>
<totfact> 0.42263261E+00</totfact>
</mgrwt>
</event>
<event>
12    1  0.9321077E-008  0.2262447E+04  0.7818608E-02  0.8492876E-01
          2   -1    0    0  501    0  0.00000000000E+00  0.00000000000E+00  0.26231161434E+04  0.26231161434E+04  0.00000000000E+00 0. -1.
         -2   -1    0    0    0  501 -0.00000000000E+00 -0.00000000000E+00 -0.26232737697E+04  0.26232737697E+04  0.00000000000E+00 0.  1.
         23    2    1    2    0    0 -0.14745556783E+04  0.17033483957E+04  0.12736749263E+04  0.25896284102E+04  0.90649213564E+02 0.  0.
    5000000    2    1    2    0    0  0.14745556783E+04 -0.17033483957E+04 -0.12738325525E+04  0.26567615029E+04  0.60001842139E+03 0.  0.
         23    2    4    4    0    0  0.54145821532E+03 -0.81500757338E+03 -0.84454051957E+03  0.12958389431E+04  0.92387951629E+02 0.  0.
         23    2    4    4    0    0  0.93309746297E+03 -0.88834082231E+03 -0.42929203296E+03  0.13609225598E+04  0.89433060536E+02 0.  0.
          1    1    3    3  502    0 -0.48559166365E+03  0.60208760700E+03  0.39879456236E+03  0.87025619979E+03  0.00000000000E+00 0. -1.
         -1    1    3    3    0  502 -0.98896401464E+03  0.11012607887E+04  0.87488036390E+03  0.17193722105E+04  0.00000000000E+00 0.  1.
         15    1    5    5    0    0  0.21896160161E+03 -0.27902400092E+03 -0.35160629357E+03  0.49942839274E+03  0.17770000000E+01 0. -1.
        -15    1    5    5    0    0  0.32249661371E+03 -0.53598357246E+03 -0.49293422600E+03  0.79641055034E+03  0.17770000000E+01 0.  1.
          2    1    6    6  503    0  0.35511566032E+03 -0.28314042295E+03 -0.13474236692E+03  0.47374163502E+03  0.00000000000E+00 0. -1.
         -2    1    6    6    0  503  0.57798180265E+03 -0.60520039936E+03 -0.29454966605E+03  0.88718092481E+03  0.00000000000E+00 0.  1.
<mgrwt>
<rscale>  0 0.22624474E+04</rscale>
<asrwt>0</asrwt>
<pdfrwt beam="1">  1        2 0.40355633E+00 0.22624474E+04</pdfrwt>
<pdfrwt beam="2">  1       -2 0.40358058E+00 0.22624474E+04</pdfrwt>
<totfact> 0.17769645E-02</totfact>
</mgrwt>
</event>
<event>
12    1  0.9321077E-008  0.5967093E+03  0.7818608E-02  0.9912257E-01
         -2   -1    0    0    0  501 -0.00000000000E+00  0.00000000000E+00  0.21223520604E+03  0.21223520604E+03  0.00000000000E+00 0.  1.
          2   -1    0    0  501    0  0.00000000000E+00 -0.00000000000E+00 -0.23752394132E+04  0.23752394132E+04  0.00000000000E+00 0. -1.
         23    2    1    2    0    0  0.54898543735E+03 -0.35137818261E+02 -0.12209469244E+04  0.13424351872E+04  0.93814512792E+02 0.  0.
    5000000    2    1    2    0    0 -0.54898543735E+03  0.35137818261E+02 -0.94205728280E+03  0.12450394321E+04  0.60002632176E+03 0.  0.
         23    2    4    4    0    0 -0.21686387093E+03  0.17288809590E+03 -0.79233610710E+03  0.84533017855E+03  0.99329612584E+02 0.  0.
         23    2    4    4    0    0 -0.33212156641E+03 -0.13775027764E+03 -0.14972117570E+03  0.39970925358E+03  0.89839763348E+02 0.  0.
          2    1    3    3  502    0  0.29651675728E+03 -0.39044839677E+02 -0.55923343638E+03  0.63418350911E+03  0.00000000000E+00 0. -1.
         -2    1    3    3    0  502  0.25246868007E+03  0.39070214162E+01 -0.66171348802E+03  0.70825167805E+03  0.00000000000E+00 0.  1.
         15    1    5    5    0    0 -0.19538947024E+03  0.14474449885E+03 -0.56298538122E+03  0.61325664467E+03  0.17770000000E+01 0. -1.
        -15    1    5    5    0    0 -0.21474400689E+02  0.28143597048E+02 -0.22935072588E+03  0.23207353389E+03  0.17770000000E+01 0.  1.
          1    1    6    6  503    0 -0.21310238340E+03 -0.11465988266E+03 -0.13628546220E+03  0.27772871963E+03  0.00000000000E+00 0. -1.
         -1    1    6    6    0  503 -0.11901918301E+03 -0.23090394982E+02 -0.13435713505E+02  0.12198053395E+03  0.00000000000E+00 0.  1.
<mgrwt>
<rscale>  0 0.59670934E+03</rscale>
<asrwt>0</asrwt>
<pdfrwt beam="1">  1        2 0.36542144E+00 0.59670934E+03</pdfrwt>
<pdfrwt beam="2">  1       -2 0.32651571E-01 0.59670934E+03</pdfrwt>
<totfact> 0.38208143E+01</totfact>
</mgrwt>
</event>
<event>
12    1  0.9321077E-008  0.8710927E+03  0.7818608E-02  0.9462456E-01
          2   -1    0    0  501    0  0.00000000000E+00  0.00000000000E+00  0.27888538522E+04  0.27888538522E+04  0.00000000000E+00 0. -1.
         -2   -1    0    0    0  501 -0.00000000000E+00 -0.00000000000E+00 -0.29062468098E+03  0.29062468098E+03  0.00000000000E+00 0.  1.
         23    2    1    2    0    0  0.37380526752E+03  0.67892413362E+03  0.14332973646E+04  0.16321288071E+04  0.93993353152E+02 0.  0.
    5000000    2    1    2    0    0 -0.37380526752E+03 -0.67892413362E+03  0.10649318066E+04  0.14473497260E+04  0.60006092982E+03 0.  0.
         23    2    4    4    0    0  0.60712802421E+02  0.54675852821E+02  0.11826732500E+03  0.17000320014E+03  0.90765823055E+02 0.  0.
         23    2    4    4    0    0 -0.43451806994E+03 -0.73359998644E+03  0.94666448160E+03  0.12773465259E+04  0.92008767361E+02 0.  0.
          2    1    3    3  502    0  0.23907447968E+03  0.33742773459E+03  0.74959142639E+03  0.85609660052E+03  0.00000000000E+00 0. -1.
         -2    1    3    3    0  502  0.13473078784E+03  0.34149639903E+03  0.68370593820E+03  0.77603220660E+03  0.00000000000E+00 0.  1.
         15    1    5    5    0    0  0.36229521799E+02 -0.90007518886E+01  0.87493249207E+02  0.95141043563E+02  0.17770000000E+01 0. -1.
        -15    1    5    5    0    0  0.24483280623E+02  0.63676604710E+02  0.30774075798E+02  0.74862156579E+02  0.17770000000E+01 0.  1.
          1    1    6    6  503    0 -0.51148815389E+01 -0.38782635429E+02  0.28178880285E+02  0.48211037306E+02  0.00000000000E+00 0. -1.
         -1    1    6    6    0  503 -0.42940318840E+03 -0.69481735102E+03  0.91848560132E+03  0.12291354886E+04  0.00000000000E+00 0.  1.
<mgrwt>
<rscale>  0 0.87109267E+03</rscale>
<asrwt>0</asrwt>
<pdfrwt beam="1">  1        2 0.42905442E+00 0.87109267E+03</pdfrwt>
<pdfrwt beam="2">  1       -2 0.44711491E-01 0.87109267E+03</pdfrwt>
<totfact> 0.11543400E+01</totfact>
</mgrwt>
</event>
<event>
12    1  0.9321077E-008  0.5047877E+03  0.7818608E-02  0.1012537E+00
          1   -1    0    0  501    0  0.00000000000E+00  0.00000000000E+00  0.11789637210E+04  0.11789637210E+04  0.00000000000E+00 0. -1.
         -1   -1    0    0    0  501 -0.00000000000E+00 -0.00000000000E+00 -0.25980391739E+03  0.25980391739E+03  0.00000000000E+00 0.  1.
         23    2    1    2    0    0  0.12351377561E+03 -0.30838509672E+03  0.57812796397E+03  0.67279501660E+03  0.89800729315E+02 0.  0.
    5000000    2    1    2    0    0 -0.12351377561E+03  0.30838509672E+03  0.34103183962E+03  0.76597262177E+03  0.60004526582E+03 0.  0.
         23    2    4    4    0    0 -0.32417445775E+03  0.54506796186E+02  0.11051251046E+03  0.35837045067E+03  0.90312208777E+02 0.  0.
         23    2    4    4    0    0  0.20066068214E+03  0.25387830053E+03  0.23051932916E+03  0.40760217110E+03  0.91002571033E+02 0.  0.
          2    1    3    3  502    0  0.74323772919E+02 -0.25090493204E+03  0.49817634723E+03  0.56272282794E+03  0.00000000000E+00 0. -1.
         -2    1    3    3    0  502  0.49190002690E+02 -0.57480164679E+02  0.79951616741E+02  0.11007218866E+03  0.00000000000E+00 0.  1.
         15    1    5    5    0    0 -0.11498630944E+03 -0.22087601570E+02  0.24969834613E+02  0.11973455588E+03  0.17770000000E+01 0.  1.
        -15    1    5    5    0    0 -0.20918814831E+03  0.76594397756E+02  0.85542675850E+02  0.23863589479E+03  0.17770000000E+01 0. -1.
          1    1    6    6  503    0  0.15522622248E+03  0.23816618311E+03  0.17360888619E+03  0.33310412229E+03  0.00000000000E+00 0. -1.
         -1    1    6    6    0  503  0.45434459667E+02  0.15712117427E+02  0.56910442963E+02  0.74498048817E+02  0.00000000000E+00 0.  1.
<mgrwt>
<rscale>  0 0.50478767E+03</rscale>
<asrwt>0</asrwt>
<pdfrwt beam="1">  1        1 0.18137903E+00 0.50478767E+03</pdfrwt>
<pdfrwt beam="2">  1       -1 0.39969834E-01 0.50478767E+03</pdfrwt>
<totfact> 0.71047175E+01</totfact>
</mgrwt>
</event>
<event>
12    1  0.9321077E-008  0.1051676E+04  0.7818608E-02  0.9253615E-01
          2   -1    0    0  501    0  0.00000000000E+00  0.00000000000E+00  0.10357250489E+04  0.10357250489E+04  0.00000000000E+00 0. -1.
         -2   -1    0    0    0  501 -0.00000000000E+00 -0.00000000000E+00 -0.13556338287E+04  0.13556338287E+04  0.00000000000E+00 0.  1.
         23    2    1    2    0    0  0.28437463638E+03 -0.93577503576E+03 -0.67312027041E+03  0.11908694267E+04  0.92386372108E+02 0.  0.
    5000000    2    1    2    0    0 -0.28437463638E+03  0.93577503576E+03  0.35321149058E+03  0.12004894509E+04  0.59989391834E+03 0.  0.
         23    2    4    4    0    0  0.16347445062E+03  0.23220559045E+03  0.15779394659E+03  0.33870256369E+03  0.95797519953E+02 0.  0.
         23    2    4    4    0    0 -0.44784908700E+03  0.70356944531E+03  0.19541754399E+03  0.86178688720E+03  0.94392019571E+02 0.  0.
          3    1    3    3  502    0  0.20193749345E+03 -0.56141963281E+03 -0.36862871571E+03  0.70132580547E+03  0.00000000000E+00 0. -1.
         -3    1    3    3    0  502  0.82437142937E+02 -0.37435540295E+03 -0.30449155470E+03  0.48954362128E+03  0.00000000000E+00 0.  1.
         15    1    5    5    0    0  0.63395148090E+02  0.96503934476E+02  0.12564679267E+02  0.11615930038E+03  0.17770000000E+01 0. -1.
        -15    1    5    5    0    0  0.10007930253E+03  0.13570165598E+03  0.14522926733E+03  0.22254326331E+03  0.17770000000E+01 0.  1.
          4    1    6    6  503    0 -0.29004025482E+03  0.53378459035E+03  0.14545105412E+03  0.62466418775E+03  0.00000000000E+00 0. -1.
         -4    1    6    6    0  503 -0.15780883218E+03  0.16978485496E+03  0.49966489864E+02  0.23712269945E+03  0.00000000000E+00 0.  1.
<mgrwt>
<rscale>  0 0.10516759E+04</rscale>
<asrwt>0</asrwt>
<pdfrwt beam="1">  1        2 0.15934232E+00 0.10516759E+04</pdfrwt>
<pdfrwt beam="2">  1       -2 0.20855905E+00 0.10516759E+04</pdfrwt>
<totfact> 0.27594572E+00</totfact>
</mgrwt>
</event>
<event>
12    1  0.9321077E-008  0.1360990E+04  0.7818608E-02  0.8982550E-01
         -2   -1    0    0    0  501 -0.00000000000E+00  0.00000000000E+00  0.11753230610E+04  0.11753230610E+04  0.00000000000E+00 0.  1.
          2   -1    0    0  501    0  0.00000000000E+00 -0.00000000000E+00 -0.24067921646E+04  0.24067921646E+04  0.00000000000E+00 0. -1.
         23    2    1    2    0    0 -0.88144719560E+03 -0.96650541707E+03  0.43427569771E+03  0.13808355257E+04  0.83842038514E+02 0.  0.
    5000000    2    1    2    0    0  0.88144719560E+03  0.96650541707E+03 -0.16657448014E+04  0.22012796999E+04  0.59987056455E+03 0.  0.
         23    2    4    4    0    0  0.86245672944E+03  0.62618240920E+03 -0.13868160411E+04  0.17513529204E+04  0.89678872765E+02 0.  0.
         23    2    4    4    0    0  0.18990466161E+02  0.34032300786E+03 -0.27892876030E+03  0.44992677955E+03  0.91937294657E+02 0.  0.
          1    1    3    3  502    0 -0.21391256832E+03 -0.26007344686E+03  0.14619636922E+03  0.36711055967E+03  0.00000000000E+00 0. -1.
         -1    1    3    3    0  502 -0.66753462729E+03 -0.70643197021E+03  0.28807932849E+03  0.10137249660E+04  0.00000000000E+00 0.  1.
         15    1    5    5    0    0  0.70581261105E+03  0.49208494998E+03 -0.11676936143E+04  0.14504587462E+04  0.17770000000E+01 0.  1.
        -15    1    5    5    0    0  0.15664411839E+03  0.13409745922E+03 -0.21912242676E+03  0.30089417415E+03  0.17770000000E+01 0. -1.
          3    1    6    6  503    0  0.41755225965E+02  0.18228624436E+03 -0.10769390545E+03  0.21580025729E+03  0.00000000000E+00 0. -1.
         -3    1    6    6    0  503 -0.22764759804E+02  0.15803676350E+03 -0.17123485485E+03  0.23412652226E+03  0.00000000000E+00 0.  1.
<mgrwt>
<rscale>  0 0.13609901E+04</rscale>
<asrwt>0</asrwt>
<pdfrwt beam="1">  1        2 0.37027571E+00 0.13609901E+04</pdfrwt>
<pdfrwt beam="2">  1       -2 0.18081894E+00 0.13609901E+04</pdfrwt>
<totfact> 0.67391680E-01</totfact>
</mgrwt>
</event>
<event>
12    1  0.9321077E-008  0.1089778E+04  0.7818608E-02  0.9215213E-01
          2   -1    0    0  501    0  0.00000000000E+00  0.00000000000E+00  0.63579883774E+03  0.63579883774E+03  0.00000000000E+00 0. -1.
         -2   -1    0    0    0  501 -0.00000000000E+00 -0.00000000000E+00 -0.20218104650E+04  0.20218104650E+04  0.00000000000E+00 0.  1.
         23    2    1    2    0    0  0.10448032249E+04  0.63633678237E+02 -0.51971265149E+03  0.11723229747E+04  0.92611517217E+02 0.  0.
    5000000    2    1    2    0    0 -0.10448032249E+04 -0.63633678237E+02 -0.86629897578E+03  0.14852863280E+04  0.59994877873E+03 0.  0.
         23    2    4    4    0    0 -0.98756064459E+03 -0.15690734621E+03 -0.89009521142E+03  0.13419357697E+04  0.92877244457E+02 0.  0.
         23    2    4    4    0    0 -0.57242580302E+02  0.93273667970E+02  0.23796235646E+02  0.14335055836E+03  0.89478665695E+02 0.  0.
          1    1    3    3  502    0  0.55130263788E+03  0.85845197750E+01 -0.31681065802E+03  0.63590666418E+03  0.00000000000E+00 0. -1.
         -1    1    3    3    0  502  0.49350058701E+03  0.55049158462E+02 -0.20290199346E+03  0.53641631051E+03  0.00000000000E+00 0.  1.
         15    1    5    5    0    0 -0.40747460844E+03 -0.87839793901E+02 -0.31812715299E+03  0.52436573983E+03  0.17770000000E+01 0. -1.
        -15    1    5    5    0    0 -0.58008603615E+03 -0.69067552306E+02 -0.57196805843E+03  0.81757002986E+03  0.17770000000E+01 0.  1.
          1    1    6    6  503    0 -0.50041417447E+02  0.15348559666E+02 -0.17083120639E+02  0.55059556434E+02  0.00000000000E+00 0. -1.
         -1    1    6    6    0  503 -0.72011628556E+01  0.77925108304E+02  0.40879356285E+02  0.88291001925E+02  0.00000000000E+00 0.  1.
<mgrwt>
<rscale>  0 0.10897776E+04</rscale>
<asrwt>0</asrwt>
<pdfrwt beam="1">  1        2 0.97815205E-01 0.10897776E+04</pdfrwt>
<pdfrwt beam="2">  1       -2 0.31104777E+00 0.10897776E+04</pdfrwt>
<totfact> 0.12518331E+00</totfact>
</mgrwt>
</event>
<event>
12    1  0.9321077E-008  0.1380483E+04  0.7818608E-02  0.8968069E-01
         -1   -1    0    0    0  501 -0.00000000000E+00  0.00000000000E+00  0.64731283297E+03  0.64731283297E+03  0.00000000000E+00 0.  1.
          1   -1    0    0  501    0  0.00000000000E+00 -0.00000000000E+00 -0.32605494528E+04  0.32605494528E+04  0.00000000000E+00 0. -1.
         23    2    1    2    0    0  0.66071578926E+03  0.11514193403E+04 -0.70305126234E+03  0.15051607609E+04  0.94424506213E+02 0.  0.
    5000000    2    1    2    0    0 -0.66071578926E+03 -0.11514193403E+04 -0.19101853575E+04  0.24027015249E+04  0.60154356977E+03 0.  0.
         23    2    4    4    0    0 -0.87421024892E+02 -0.67159071383E+03 -0.70713863739E+03  0.98334335944E+03  0.90788697397E+02 0.  0.
         23    2    4    4    0    0 -0.57329476437E+03 -0.47982862644E+03 -0.12030467201E+04  0.14193581654E+04  0.91399088783E+02 0.  0.
          4    1    3    3  502    0  0.42981407791E+02  0.13253205326E+03 -0.76400932461E+02  0.15890012283E+03  0.00000000000E+00 0. -1.
         -4    1    3    3    0  502  0.61773438147E+03  0.10188872870E+04 -0.62665032988E+03  0.13462606381E+04  0.00000000000E+00 0.  1.
         15    1    5    5    0    0 -0.23666281502E+02 -0.12944503820E+03 -0.19199179137E+03  0.23276622710E+03  0.17770000000E+01 0. -1.
        -15    1    5    5    0    0 -0.63754743391E+02 -0.54214567562E+03 -0.51514684603E+03  0.75057713234E+03  0.17770000000E+01 0.  1.
          3    1    6    6  503    0 -0.43136844180E+02 -0.10082679470E+02 -0.84205422375E+02  0.95147259070E+02  0.00000000000E+00 0. -1.
         -3    1    6    6    0  503 -0.53015792019E+03 -0.46974594697E+03 -0.11188412977E+04  0.13242109064E+04  0.00000000000E+00 0.  1.
<mgrwt>
<rscale>  0 0.13804826E+04</rscale>
<asrwt>0</asrwt>
<pdfrwt beam="1">  1        1 0.50162299E+00 0.13804826E+04</pdfrwt>
<pdfrwt beam="2">  1       -1 0.99586590E-01 0.13804826E+04</pdfrwt>
<totfact> 0.35911202E-01</totfact>
</mgrwt>
</event>
<event>
12    1  0.9321077E-008  0.1664512E+04  0.7818608E-02  0.8781867E-01
          1   -1    0    0  501    0  0.00000000000E+00  0.00000000000E+00  0.15610301747E+04  0.15610301747E+04  0.00000000000E+00 0. -1.
         -1   -1    0    0    0  501 -0.00000000000E+00 -0.00000000000E+00 -0.18280918026E+04  0.18280918026E+04  0.00000000000E+00 0.  1.
         23    2    1    2    0    0 -0.89023486136E+03  0.13705708377E+04 -0.16760932988E+03  0.16453748714E+04  0.90460215656E+02 0.  0.
    5000000    2    1    2    0    0  0.89023486136E+03 -0.13705708377E+04 -0.99452297992E+02  0.17437471059E+04  0.59981720581E+03 0.  0.
         23    2    4    4    0    0  0.21771213343E+03 -0.73934727606E+03 -0.22597052951E+03  0.80830251022E+03  0.90869687727E+02 0.  0.
         23    2    4    4    0    0  0.67252272793E+03 -0.63122356161E+03  0.12651823152E+03  0.93544459571E+03  0.91212523365E+02 0.  0.
          4    1    3    3  502    0 -0.33045015191E+03  0.48134423129E+03 -0.10084386999E+03  0.59250236962E+03  0.00000000000E+00 0. -1.
         -4    1    3    3    0  502 -0.55978470945E+03  0.88922660639E+03 -0.66765459894E+02  0.10528725018E+04  0.00000000000E+00 0.  1.
         15    1    5    5    0    0  0.86619789075E+02 -0.26008225610E+03 -0.12493707800E+03  0.30126101471E+03  0.17770000000E+01 0. -1.
        -15    1    5    5    0    0  0.13109234436E+03 -0.47926501997E+03 -0.10103345152E+03  0.50704149551E+03  0.17770000000E+01 0.  1.
          4    1    6    6  503    0  0.28728518898E+03 -0.29976071132E+03  0.97010502168E+02  0.42638046554E+03  0.00000000000E+00 0.  1.
         -4    1    6    6    0  503  0.38523753895E+03 -0.33146285029E+03  0.29507729354E+02  0.50906413017E+03  0.00000000000E+00 0. -1.
<mgrwt>
<rscale>  0 0.16645118E+04</rscale>
<asrwt>0</asrwt>
<pdfrwt beam="1">  1        1 0.24015849E+00 0.16645118E+04</pdfrwt>
<pdfrwt beam="2">  1       -1 0.28124489E+00 0.16645118E+04</pdfrwt>
<totfact> 0.24072694E-01</totfact>
</mgrwt>
</event>
<event>
12    1  0.9321077E-008  0.1255326E+04  0.7818608E-02  0.9065762E-01
         -1   -1    0    0    0  501 -0.00000000000E+00  0.00000000000E+00  0.10829240407E+04  0.10829240407E+04  0.00000000000E+00 0.  1.
          1   -1    0    0  501    0  0.00000000000E+00 -0.00000000000E+00 -0.27508396276E+04  0.27508396276E+04  0.00000000000E+00 0. -1.
         23    2    1    2    0    0 -0.10128480422E+04 -0.65415276111E+03  0.47808333382E+03  0.13002673619E+04  0.91403209688E+02 0.  0.
    5000000    2    1    2    0    0  0.10128480422E+04  0.65415276111E+03 -0.21459989208E+04  0.25334963064E+04  0.59959584293E+03 0.  0.
         23    2    4    4    0    0  0.92644003321E+03  0.71163531052E+03 -0.16855403706E+04  0.20530226201E+04  0.95601188864E+02 0.  0.
         23    2    4    4    0    0  0.86408009040E+02 -0.57482549401E+02 -0.46045855014E+03  0.48047368626E+03  0.89790307301E+02 0.  0.
          4    1    3    3  502    0 -0.59263026230E+03 -0.42844139952E+03  0.26468340936E+03  0.77770815079E+03  0.00000000000E+00 0. -1.
         -4    1    3    3    0  502 -0.42021777995E+03 -0.22571136160E+03  0.21339992446E+03  0.52255921109E+03  0.00000000000E+00 0.  1.
         15    1    5    5    0    0  0.60115251961E+03  0.43855362868E+03 -0.99803124235E+03  0.12449028699E+04  0.17770000000E+01 0. -1.
        -15    1    5    5    0    0  0.32528751360E+03  0.27308168183E+03 -0.68750912827E+03  0.80811975019E+03  0.17770000000E+01 0.  1.
          1    1    6    6  503    0 -0.59120601199E+01 -0.38910393749E+02 -0.19159645064E+03  0.19559696085E+03  0.00000000000E+00 0. -1.
         -1    1    6    6    0  503  0.92320069160E+02 -0.18572155652E+02 -0.26886209950E+03  0.28487672541E+03  0.00000000000E+00 0.  1.
<mgrwt>
<rscale>  0 0.12553256E+04</rscale>
<asrwt>0</asrwt>
<pdfrwt beam="1">  1        1 0.42320609E+00 0.12553256E+04</pdfrwt>
<pdfrwt beam="2">  1       -1 0.16660370E+00 0.12553256E+04</pdfrwt>
<totfact> 0.23093731E-01</totfact>
</mgrwt>
</event>
<event>
12    1  0.9321077E-008  0.8840219E+03  0.7818608E-02  0.9445778E-01
         -3   -1    0    0    0  501 -0.00000000000E+00  0.00000000000E+00  0.17327230783E+04  0.17327230783E+04  0.00000000000E+00 0.  1.
          3   -1    0    0  501    0  0.00000000000E+00 -0.00000000000E+00 -0.47951763309E+03  0.47951763309E+03  0.00000000000E+00 0. -1.
         23    2    1    2    0    0  0.43505755737E+03  0.67993493192E+03  0.48175240301E+03  0.94460953613E+03  0.92818145110E+02 0.  0.
    5000000    2    1    2    0    0 -0.43505755737E+03 -0.67993493192E+03  0.77145304222E+03  0.12676311753E+04  0.60013532669E+03 0.  0.
         23    2    4    4    0    0 -0.50043009663E+03 -0.71481229649E+03  0.74194370606E+03  0.11490536689E+04  0.91961786420E+02 0.  0.
         23    2    4    4    0    0  0.65372539257E+02  0.34877364569E+02  0.29509336164E+02  0.11857750642E+03  0.87748644774E+02 0.  0.
          4    1    3    3  502    0  0.16779119470E+03  0.33188386490E+03  0.25248425203E+03  0.44949870114E+03  0.00000000000E+00 0. -1.
         -4    1    3    3    0  502  0.26726636267E+03  0.34805106702E+03  0.22926815098E+03  0.49511083499E+03  0.00000000000E+00 0.  1.
         15    1    5    5    0    0 -0.19386290614E+03 -0.24148079257E+03  0.21287119943E+03  0.37578332166E+03  0.17770000000E+01 0. -1.
        -15    1    5    5    0    0 -0.30656719049E+03 -0.47333150392E+03  0.52907250663E+03  0.77327034722E+03  0.17770000000E+01 0.  1.
          4    1    6    6  503    0  0.36542963200E+02 -0.23575969034E+01 -0.26648112998E+02  0.45288722095E+02  0.00000000000E+00 0. -1.
         -4    1    6    6    0  503  0.28829576056E+02  0.37234961473E+02  0.56157449161E+02  0.73288784325E+02  0.00000000000E+00 0.  1.
<mgrwt>
<rscale>  0 0.88402187E+03</rscale>
<asrwt>0</asrwt>
<pdfrwt beam="1">  1        3 0.73771944E-01 0.88402187E+03</pdfrwt>
<pdfrwt beam="2">  1       -3 0.26657278E+00 0.88402187E+03</pdfrwt>
<totfact> 0.26569826E-01</totfact>
</mgrwt>
</event>
<event>
12    1  0.9321077E-008  0.3776595E+03  0.7818608E-02  0.1051802E+00
         -2   -1    0    0    0  501 -0.00000000000E+00  0.00000000000E+00  0.18191297784E+03  0.18191297784E+03  0.00000000000E+00 0.  1.
          2   -1    0    0  501    0  0.00000000000E+00 -0.00000000000E+00 -0.16974392016E+04  0.16974392016E+04  0.00000000000E+00 0. -1.
         23    2    1    2    0    0  0.46332665070E+02  0.34938657385E+03 -0.27137788728E+03  0.45382952137E+03  0.89986570794E+02 0.  0.
    5000000    2    1    2    0    0 -0.46332665070E+02 -0.34938657385E+03 -0.12441483365E+04  0.14255226581E+04  0.59999339300E+03 0.  0.
         23    2    4    4    0    0 -0.52458674288E+02 -0.10948720158E+03 -0.11329241674E+04  0.11430067114E+04  0.90596983686E+02 0.  0.
         23    2    4    4    0    0  0.61260092181E+01 -0.23989937227E+03 -0.11122416905E+03  0.28251594662E+03  0.99273397781E+02 0.  0.
          2    1    3    3  502    0  0.24109216529E+02  0.31753047658E+03 -0.21088981655E+03  0.38194420090E+03  0.00000000000E+00 0. -1.
         -2    1    3    3    0  502  0.22223448541E+02  0.31856097273E+02 -0.60488070727E+02  0.71885320468E+02  0.00000000000E+00 0.  1.
         15    1    5    5    0    0 -0.18300573118E+01  0.11941946769E+02 -0.25355843441E+03  0.25385231256E+03  0.17770000000E+01 0. -1.
        -15    1    5    5    0    0 -0.50628616976E+02 -0.12142914835E+03 -0.87936573301E+03  0.88915439887E+03  0.17770000000E+01 0.  1.
          1    1    6    6  503    0  0.44323406894E+02 -0.10326858264E+03 -0.20822520901E+02  0.11429147797E+03  0.00000000000E+00 0. -1.
         -1    1    6    6    0  503 -0.38197397676E+02 -0.13663078963E+03 -0.90401648149E+02  0.16822446865E+03  0.00000000000E+00 0.  1.
<mgrwt>
<rscale>  0 0.37765952E+03</rscale>
<asrwt>0</asrwt>
<pdfrwt beam="1">  1        2 0.26114450E+00 0.37765952E+03</pdfrwt>
<pdfrwt beam="2">  1       -2 0.27986611E-01 0.37765952E+03</pdfrwt>
<totfact> 0.12278475E+02</totfact>
</mgrwt>
</event>
<event>
12    1  0.9321077E-008  0.1729150E+04  0.7818608E-02  0.8744911E-01
         -2   -1    0    0    0  501 -0.00000000000E+00  0.00000000000E+00  0.11937102431E+04  0.11937102431E+04  0.00000000000E+00 0.  1.
          2   -1    0    0  501    0  0.00000000000E+00 -0.00000000000E+00 -0.34213326151E+04  0.34213326151E+04  0.00000000000E+00 0. -1.
         23    2    1    2    0    0  0.82859385098E+03 -0.15002416322E+04  0.31422537264E+02  0.17166516121E+04  0.92804400147E+02 0.  0.
    5000000    2    1    2    0    0 -0.82859385098E+03  0.15002416322E+04 -0.22590449093E+04  0.28983912461E+04  0.60007931839E+03 0.  0.
         23    2    4    4    0    0 -0.30866771923E+03  0.31592672926E+03 -0.97130792077E+03  0.10710148711E+04  0.92457114458E+02 0.  0.
         23    2    4    4    0    0 -0.51992613175E+03  0.11843149029E+04 -0.12877369885E+04  0.18273763750E+04  0.90071596289E+02 0.  0.
          3    1    3    3  502    0  0.50482072136E+03 -0.89074970063E+03  0.62873120120E+02  0.10257836122E+04  0.00000000000E+00 0. -1.
         -3    1    3    3    0  502  0.32377312962E+03 -0.60949193157E+03 -0.31450582855E+02  0.69086799989E+03  0.00000000000E+00 0.  1.
         15    1    5    5    0    0 -0.17981265951E+03  0.23579030714E+03 -0.69855579081E+03  0.75888932794E+03  0.17770000000E+01 0.  1.
        -15    1    5    5    0    0 -0.12885505972E+03  0.80136422113E+02 -0.27275212996E+03  0.31212554316E+03  0.17770000000E+01 0. -1.
          4    1    6    6  503    0 -0.23979327618E+03  0.44677990596E+03 -0.47817305970E+03  0.69696669554E+03  0.00000000000E+00 0. -1.
         -4    1    6    6    0  503 -0.28013285557E+03  0.73753499699E+03 -0.80956392882E+03  0.11304096795E+04  0.00000000000E+00 0.  1.
<mgrwt>
<rscale>  0 0.17291501E+04</rscale>
<asrwt>0</asrwt>
<pdfrwt beam="1">  1        2 0.52635886E+00 0.17291501E+04</pdfrwt>
<pdfrwt beam="2">  1       -2 0.18364773E+00 0.17291501E+04</pdfrwt>
<totfact> 0.14549428E-01</totfact>
</mgrwt>
</event>
<event>
12    1  0.1375355E-007  0.1574885E+04  0.7818608E-02  0.8836127E-01
          2   -1    0    0  501    0  0.00000000000E+00  0.00000000000E+00  0.14290908948E+04  0.14290908948E+04  0.00000000000E+00 0. -1.
         -2   -1    0    0    0  501 -0.00000000000E+00 -0.00000000000E+00 -0.19631655459E+04  0.19631655459E+04  0.00000000000E+00 0.  1.
         23    2    1    2    0    0  0.27949166515E+03 -0.15417728801E+04  0.15770040837E+03  0.15773922396E+04  0.90098024403E+02 0.  0.
    5000000    2    1    2    0    0 -0.27949166515E+03  0.15417728801E+04 -0.69177505953E+03  0.18148642012E+04  0.60000010925E+03 0.  0.
         23    2    4    4    0    0 -0.45469545888E+02  0.72767650849E+03 -0.61739193247E+03  0.95977453942E+03  0.91726700737E+02 0.  0.
         23    2    4    4    0    0 -0.23402211926E+03  0.81409637159E+03 -0.74383127062E+02  0.85508966176E+03  0.90145579599E+02 0.  0.
          3    1    3    3  502    0  0.14117461761E+03 -0.91400279578E+03  0.55640211419E+02  0.92651347345E+03  0.00000000000E+00 0. -1.
         -3    1    3    3    0  502  0.13831704754E+03 -0.62777008430E+03  0.10206019696E+03  0.65087876611E+03  0.00000000000E+00 0.  1.
         15    1    5    5    0    0 -0.69934175977E+02  0.45462158024E+03 -0.36618692344E+03  0.58793502261E+03  0.17770000000E+01 0. -1.
        -15    1    5    5    0    0  0.24464630089E+02  0.27305492825E+03 -0.25120500903E+03  0.37183951681E+03  0.17770000000E+01 0.  1.
          3    1    6    6  503    0 -0.12222438054E+03  0.49479330367E+03 -0.84530958916E+02  0.51662819858E+03  0.00000000000E+00 0. -1.
         -3    1    6    6    0  503 -0.11179773872E+03  0.31930306791E+03  0.10147831855E+02  0.33846146318E+03  0.00000000000E+00 0.  1.
<mgrwt>
<rscale>  0 0.15748853E+04</rscale>
<asrwt>0</asrwt>
<pdfrwt beam="1">  1        2 0.21986014E+00 0.15748853E+04</pdfrwt>
<pdfrwt beam="2">  1       -2 0.30202547E+00 0.15748853E+04</pdfrwt>
<totfact> 0.40198326E-01</totfact>
</mgrwt>
</event>
<event>
12    1  0.9321077E-008  0.1936973E+04  0.7818608E-02  0.8636668E-01
          1   -1    0    0  501    0  0.00000000000E+00  0.00000000000E+00  0.17878200906E+04  0.17878200906E+04  0.00000000000E+00 0. -1.
         -1   -1    0    0    0  501 -0.00000000000E+00 -0.00000000000E+00 -0.22626949681E+04  0.22626949681E+04  0.00000000000E+00 0.  1.
         23    2    1    2    0    0  0.13272831652E+04  0.13706486367E+04 -0.70772615331E+03  0.20369865888E+04  0.89887535184E+02 0.  0.
    5000000    2    1    2    0    0 -0.13272831652E+04 -0.13706486367E+04  0.23285127586E+03  0.20135284699E+04  0.59976570151E+03 0.  0.
         23    2    4    4    0    0  0.15632880481E+02 -0.61528578186E+02 -0.24387253931E+02  0.11803053064E+03  0.96469244437E+02 0.  0.
         23    2    4    4    0    0 -0.13429160456E+04 -0.13091200585E+04  0.25723852979E+03  0.18954979393E+04  0.97580445692E+02 0.  0.
          2    1    3    3  502    0  0.11465988438E+04  0.11477152187E+04 -0.62226439267E+03  0.17375707485E+04  0.00000000000E+00 0.  1.
         -2    1    3    3    0  502  0.18068432140E+03  0.22293341804E+03 -0.85461760642E+02  0.29941584028E+03  0.00000000000E+00 0. -1.
         15    1    5    5    0    0 -0.21470837052E+02 -0.11568564994E+02 -0.46027642058E+02  0.52120342499E+02  0.17770000000E+01 0.  1.
        -15    1    5    5    0    0  0.37103717533E+02 -0.49960013192E+02  0.21640388128E+02  0.65910188137E+02  0.17770000000E+01 0. -1.
          1    1    6    6  503    0 -0.44475490469E+03 -0.37078587811E+03  0.82364789854E+02  0.58487011487E+03  0.00000000000E+00 0. -1.
         -1    1    6    6    0  503 -0.89816114095E+03 -0.93833418043E+03  0.17487373994E+03  0.13106278244E+04  0.00000000000E+00 0.  1.
<mgrwt>
<rscale>  0 0.19369730E+04</rscale>
<asrwt>0</asrwt>
<pdfrwt beam="1">  1        1 0.27504924E+00 0.19369730E+04</pdfrwt>
<pdfrwt beam="2">  1       -1 0.34810692E+00 0.19369730E+04</pdfrwt>
<totfact> 0.59640407E-02</totfact>
</mgrwt>
</event>
<event>
12    1  0.9321077E-008  0.3265732E+03  0.7818608E-02  0.1072663E+00
          1   -1    0    0  501    0  0.00000000000E+00  0.00000000000E+00  0.18144351097E+03  0.18144351097E+03  0.00000000000E+00 0.  1.
         -1   -1    0    0    0  501 -0.00000000000E+00 -0.00000000000E+00 -0.12214296163E+04  0.12214296163E+04  0.00000000000E+00 0. -1.
         23    2    1    2    0    0  0.20555006856E+03 -0.31475026197E+02 -0.56746742000E+03  0.61137453727E+03  0.92293250590E+02 0.  0.
    5000000    2    1    2    0    0 -0.20555006856E+03  0.31475026197E+02 -0.47251868530E+03  0.79149858995E+03  0.59996216713E+03 0.  0.
         23    2    4    4    0    0 -0.28898672556E+03 -0.27518329088E+02 -0.86917742562E+01  0.30755399820E+03  0.10120933199E+03 0.  0.
         23    2    4    4    0    0  0.83436656994E+02  0.58993355285E+02 -0.46382691104E+03  0.48394459176E+03  0.92871269989E+02 0.  0.
          3    1    3    3  502    0  0.99917741501E+02  0.26381181153E+02 -0.31770623974E+03  0.33409097048E+03  0.00000000000E+00 0. -1.
         -3    1    3    3    0  502  0.10563232706E+03 -0.57856207350E+02 -0.24976118025E+03  0.27728356679E+03  0.00000000000E+00 0.  1.
         15    1    5    5    0    0 -0.20553212792E+03 -0.33832694722E+02  0.37936181115E+02  0.21173194942E+03  0.17770000000E+01 0. -1.
        -15    1    5    5    0    0 -0.83454597635E+02  0.63143656343E+01 -0.46627955371E+02  0.95822048772E+02  0.17770000000E+01 0.  1.
          2    1    6    6  503    0 -0.15321051252E+02 -0.86983734838E+01 -0.78113740971E+02  0.80075919234E+02  0.00000000000E+00 0.  1.
         -2    1    6    6    0  503  0.98757708246E+02  0.67691728769E+02 -0.38571317007E+03  0.40386867252E+03  0.00000000000E+00 0. -1.
<mgrwt>
<rscale>  0 0.32657318E+03</rscale>
<asrwt>0</asrwt>
<pdfrwt beam="1">  1        1 0.27914386E-01 0.32657318E+03</pdfrwt>
<pdfrwt beam="2">  1       -1 0.18791225E+00 0.32657318E+03</pdfrwt>
<totfact> 0.33352882E+01</totfact>
</mgrwt>
</event>
<event>
12    1  0.9321077E-008  0.5107521E+03  0.7818608E-02  0.1011010E+00
          2   -1    0    0  501    0  0.00000000000E+00  0.00000000000E+00  0.20232565271E+04  0.20232565271E+04  0.00000000000E+00 0. -1.
         -2   -1    0    0    0  501 -0.00000000000E+00 -0.00000000000E+00 -0.50591769149E+03  0.50591769149E+03  0.00000000000E+00 0.  1.
         23    2    1    2    0    0 -0.25905955841E+03  0.26685117728E+03 -0.35875679205E+03  0.52457083896E+03  0.90259202444E+02 0.  0.
    5000000    2    1    2    0    0  0.25905955841E+03 -0.26685117728E+03  0.18760956277E+04  0.20046033797E+04  0.60031533372E+03 0.  0.
         23    2    4    4    0    0  0.31429276067E+03 -0.38826491941E+03  0.10907264921E+04  0.12030341290E+04  0.89873510849E+02 0.  0.
         23    2    4    4    0    0 -0.55233202260E+02  0.12141374213E+03  0.78536913563E+03  0.80156925068E+03  0.88975170869E+02 0.  0.
          2    1    3    3  502    0 -0.11277779573E+03  0.56736776033E+02 -0.10671653466E+03  0.16530672017E+03  0.00000000000E+00 0.  1.
         -2    1    3    3    0  502 -0.14628176269E+03  0.21011440125E+03 -0.25204025738E+03  0.35926411879E+03  0.00000000000E+00 0. -1.
         15    1    5    5    0    0  0.17622297654E+03 -0.26977571944E+03  0.76153000488E+03  0.82690058793E+03  0.17770000000E+01 0.  1.
        -15    1    5    5    0    0  0.13806978414E+03 -0.11848919997E+03  0.32919648718E+03  0.37613354105E+03  0.17770000000E+01 0. -1.
          4    1    6    6  503    0 -0.28689981776E+02  0.38648480014E+02  0.10305790114E+03  0.11374423524E+03  0.00000000000E+00 0. -1.
         -4    1    6    6    0  503 -0.26543220484E+02  0.82765262117E+02  0.68231123448E+03  0.68782501544E+03  0.00000000000E+00 0.  1.
<mgrwt>
<rscale>  0 0.51075211E+03</rscale>
<asrwt>0</asrwt>
<pdfrwt beam="1">  1        2 0.31127023E+00 0.51075211E+03</pdfrwt>
<pdfrwt beam="2">  1       -2 0.77833492E-01 0.51075211E+03</pdfrwt>
<totfact> 0.10325019E+01</totfact>
</mgrwt>
</event>
<event>
12    1  0.9321077E-008  0.1563282E+04  0.7818608E-02  0.8843428E-01
         -2   -1    0    0    0  501 -0.00000000000E+00  0.00000000000E+00  0.11013257720E+04  0.11013257720E+04  0.00000000000E+00 0.  1.
          2   -1    0    0  501    0  0.00000000000E+00 -0.00000000000E+00 -0.26882664067E+04  0.26882664067E+04  0.00000000000E+00 0. -1.
         23    2    1    2    0    0  0.41440636503E+03 -0.15002187314E+04 -0.14274941787E+04  0.21139198282E+04  0.92350052494E+02 0.  0.
    5000000    2    1    2    0    0 -0.41440636503E+03  0.15002187314E+04 -0.15944645593E+03  0.16756723505E+04  0.60005481130E+03 0.  0.
         23    2    4    4    0    0 -0.10029471496E+03  0.61831722115E+03 -0.33791509679E+03  0.71834710869E+03  0.97266335967E+02 0.  0.
         23    2    4    4    0    0 -0.31411165007E+03  0.88190151028E+03  0.17846864087E+03  0.95732524185E+03  0.90576820232E+02 0.  0.
          4    1    3    3  502    0  0.23099330576E+03 -0.74771771331E+03 -0.77126470189E+03  0.10987670028E+04  0.00000000000E+00 0. -1.
         -4    1    3    3    0  502  0.18341305927E+03 -0.75250101812E+03 -0.65622947682E+03  0.10151528254E+04  0.00000000000E+00 0.  1.
         15    1    5    5    0    0 -0.97717445773E+01  0.27661793947E+03 -0.18667060681E+03  0.33385931858E+03  0.17770000000E+01 0.  1.
        -15    1    5    5    0    0 -0.90522970385E+02  0.34169928168E+03 -0.15124448999E+03  0.38448779012E+03  0.17770000000E+01 0. -1.
          2    1    6    6  503    0 -0.25277935471E+03  0.60757743373E+03  0.10117913849E+03  0.66579648407E+03  0.00000000000E+00 0. -1.
         -2    1    6    6    0  503 -0.61332295358E+02  0.27432407655E+03  0.77289502377E+02  0.29152875777E+03  0.00000000000E+00 0.  1.
<mgrwt>
<rscale>  0 0.15632819E+04</rscale>
<asrwt>0</asrwt>
<pdfrwt beam="1">  1        2 0.41357944E+00 0.15632819E+04</pdfrwt>
<pdfrwt beam="2">  1       -2 0.16943474E+00 0.15632819E+04</pdfrwt>
<totfact> 0.54384499E-01</totfact>
</mgrwt>
</event>
<event>
12    1  0.1044313E-007  0.1076727E+04  0.7818608E-02  0.9228177E-01
         -2   -1    0    0    0  501 -0.00000000000E+00  0.00000000000E+00  0.67336605705E+03  0.67336605705E+03  0.00000000000E+00 0.  1.
          2   -1    0    0  501    0  0.00000000000E+00 -0.00000000000E+00 -0.20684567006E+04  0.20684567006E+04  0.00000000000E+00 0. -1.
         23    2    1    2    0    0 -0.26316275260E+03  0.10306052019E+04 -0.98778362275E+03  0.14544449551E+04  0.91060009985E+02 0.  0.
    5000000    2    1    2    0    0  0.26316275260E+03 -0.10306052019E+04 -0.40730702081E+03  0.12873778026E+04  0.60003406647E+03 0.  0.
         23    2    4    4    0    0  0.10528984994E+02 -0.29879382516E+03 -0.40147455299E+03  0.50788353787E+03  0.85879344792E+02 0.  0.
         23    2    4    4    0    0  0.25263376761E+03 -0.73181137672E+03 -0.58324678190E+01  0.77949426473E+03  0.90584653403E+02 0.  0.
          1    1    3    3  502    0 -0.11045990772E+03  0.59237605613E+03 -0.52822669043E+03  0.80133277705E+03  0.00000000000E+00 0. -1.
         -1    1    3    3    0  502 -0.15270284488E+03  0.43822914575E+03 -0.45955693232E+03  0.65311217801E+03  0.00000000000E+00 0.  1.
         15    1    5    5    0    0 -0.32919528845E+02 -0.15546863900E+03 -0.17534459658E+03  0.23664969548E+03  0.17770000000E+01 0. -1.
        -15    1    5    5    0    0  0.43448513839E+02 -0.14332518616E+03 -0.22612995641E+03  0.27123384239E+03  0.17770000000E+01 0.  1.
          1    1    6    6  503    0  0.82725926571E+02 -0.14244947904E+03  0.17712760746E+02  0.16567792520E+03  0.00000000000E+00 0. -1.
         -1    1    6    6    0  503  0.16990784104E+03 -0.58936189768E+03 -0.23545228565E+02  0.61381633953E+03  0.00000000000E+00 0.  1.
<mgrwt>
<rscale>  0 0.10767270E+04</rscale>
<asrwt>0</asrwt>
<pdfrwt beam="1">  1        2 0.31822411E+00 0.10767270E+04</pdfrwt>
<pdfrwt beam="2">  1       -2 0.10359478E+00 0.10767270E+04</pdfrwt>
<totfact> 0.46088566E+00</totfact>
</mgrwt>
</event>
<event>
12    1  0.9321077E-008  0.6642597E+03  0.7818608E-02  0.9780384E-01
         -3   -1    0    0    0  501 -0.00000000000E+00  0.00000000000E+00  0.75590916131E+03  0.75590916131E+03  0.00000000000E+00 0.  1.
          3   -1    0    0  501    0  0.00000000000E+00 -0.00000000000E+00 -0.65614863782E+03  0.65614863782E+03  0.00000000000E+00 0. -1.
         23    2    1    2    0    0  0.33634724699E+03  0.41709119180E+03 -0.16002246625E+03  0.56679083301E+03  0.92466890566E+02 0.  0.
    5000000    2    1    2    0    0 -0.33634724699E+03 -0.41709119180E+03  0.25978298973E+03  0.84526696612E+03  0.59991208475E+03 0.  0.
         23    2    4    4    0    0 -0.24240992968E+03 -0.55183015615E+03  0.15880403496E+03  0.63005631031E+03  0.92049646385E+02 0.  0.
         23    2    4    4    0    0 -0.93937317305E+02  0.13473896435E+03  0.10097895477E+03  0.21521065581E+03  0.95603707939E+02 0.  0.
          1    1    3    3  502    0  0.28457896047E+03  0.34209112023E+03 -0.95465214977E+02  0.45511001588E+03  0.00000000000E+00 0. -1.
         -1    1    3    3    0  502  0.51768286518E+02  0.75000071573E+02 -0.64557251269E+02  0.11168081714E+03  0.00000000000E+00 0.  1.
         15    1    5    5    0    0 -0.37010650656E+02 -0.18262109255E+03  0.33169144884E+02  0.18927123819E+03  0.17770000000E+01 0.  1.
        -15    1    5    5    0    0 -0.20539927903E+03 -0.36920906360E+03  0.12563489008E+03  0.44078507212E+03  0.17770000000E+01 0. -1.
          4    1    6    6  503    0 -0.10172903862E+02  0.86097132246E+02  0.75721655434E+02  0.11510852816E+03  0.00000000000E+00 0. -1.
         -4    1    6    6    0  503 -0.83764413443E+02  0.48641832101E+02  0.25257299333E+02  0.10010212765E+03  0.00000000000E+00 0.  1.
<mgrwt>
<rscale>  0 0.66425965E+03</rscale>
<asrwt>0</asrwt>
<pdfrwt beam="1">  1        3 0.10094594E+00 0.66425965E+03</pdfrwt>
<pdfrwt beam="2">  1       -3 0.11629372E+00 0.66425965E+03</pdfrwt>
<totfact> 0.13598485E+00</totfact>
</mgrwt>
</event>
<event>
12    1  0.9321077E-008  0.1330876E+04  0.7818608E-02  0.9005432E-01
          1   -1    0    0  501    0  0.00000000000E+00  0.00000000000E+00  0.14880605457E+04  0.14880605457E+04  0.00000000000E+00 0. -1.
         -1   -1    0    0    0  501 -0.00000000000E+00 -0.00000000000E+00 -0.17362930782E+04  0.17362930782E+04  0.00000000000E+00 0.  1.
         23    2    1    2    0    0 -0.70509305270E+03 -0.11040497111E+04  0.71107116110E+03  0.14933248717E+04  0.91186614385E+02 0.  0.
    5000000    2    1    2    0    0  0.70509305270E+03  0.11040497111E+04 -0.95930369359E+03  0.17310287523E+04  0.60009581506E+03 0.  0.
         23    2    4    4    0    0  0.66815246874E+03  0.88813275187E+03 -0.98959025892E+03  0.14909546114E+04  0.91919890258E+02 0.  0.
         23    2    4    4    0    0  0.36940583954E+02  0.21591695923E+03  0.30286565328E+02  0.24007414093E+03  0.93453609225E+02 0.  0.
          1    1    3    3  502    0 -0.38818134920E+03 -0.67768248732E+03  0.39549486696E+03  0.87541675976E+03  0.00000000000E+00 0.  1.
         -1    1    3    3    0  502 -0.31691170350E+03 -0.42636722378E+03  0.31557629414E+03  0.61790811190E+03  0.00000000000E+00 0. -1.
         15    1    5    5    0    0  0.44990320709E+03  0.60260549838E+03 -0.61106978902E+03  0.96899727926E+03  0.17770000000E+01 0.  1.
        -15    1    5    5    0    0  0.21824926166E+03  0.28552725349E+03 -0.37852046990E+03  0.52195733212E+03  0.17770000000E+01 0. -1.
          2    1    6    6  503    0  0.56817515178E+02  0.66934289011E+02  0.13673152526E+02  0.88855974343E+02  0.00000000000E+00 0. -1.
         -2    1    6    6    0  503 -0.19876931224E+02  0.14898267022E+03  0.16613412802E+02  0.15121816659E+03  0.00000000000E+00 0.  1.
<mgrwt>
<rscale>  0 0.13308763E+04</rscale>
<asrwt>0</asrwt>
<pdfrwt beam="1">  1        1 0.22893239E+00 0.13308763E+04</pdfrwt>
<pdfrwt beam="2">  1       -1 0.26712201E+00 0.13308763E+04</pdfrwt>
<totfact> 0.34701830E-01</totfact>
</mgrwt>
</event>
<event>
12    1  0.9321077E-008  0.1277791E+04  0.7818608E-02  0.9047365E-01
          2   -1    0    0  501    0  0.00000000000E+00  0.00000000000E+00  0.86702835101E+03  0.86702835101E+03  0.00000000000E+00 0. -1.
         -2   -1    0    0    0  501 -0.00000000000E+00 -0.00000000000E+00 -0.21927331184E+04  0.21927331184E+04  0.00000000000E+00 0.  1.
         23    2    1    2    0    0 -0.12117502578E+04  0.38905658487E+03 -0.27762643716E+03  0.13058313231E+04  0.91734902007E+02 0.  0.
    5000000    2    1    2    0    0  0.12117502578E+04 -0.38905658487E+03 -0.10480783303E+04  0.17539301464E+04  0.59841378526E+03 0.  0.
         23    2    4    4    0    0  0.71023069888E+03 -0.26125498739E+03 -0.25750455761E+03  0.80455083043E+03  0.91168127527E+02 0.  0.
         23    2    4    4    0    0  0.50151955892E+03 -0.12780159749E+03 -0.79057377267E+03  0.94937931593E+03  0.91973252591E+02 0.  0.
          2    1    3    3  502    0 -0.48403723337E+03  0.12342863057E+03 -0.75311681948E+02  0.50517177234E+03  0.00000000000E+00 0. -1.
         -2    1    3    3    0  502 -0.72771302443E+03  0.26562795430E+03 -0.20231475521E+03  0.80065955075E+03  0.00000000000E+00 0.  1.
         15    1    5    5    0    0  0.49434095091E+03 -0.16947259362E+03 -0.21986135421E+03  0.56695335658E+03  0.17770000000E+01 0.  1.
        -15    1    5    5    0    0  0.21588974798E+03 -0.91782393761E+02 -0.37643203398E+02  0.23759747384E+03  0.17770000000E+01 0. -1.
          3    1    6    6  503    0  0.98846370936E+02 -0.60626898269E+02 -0.14671823450E+03  0.18700926762E+03  0.00000000000E+00 0. -1.
         -3    1    6    6    0  503  0.40267318798E+03 -0.67174699217E+02 -0.64385553816E+03  0.76237004831E+03  0.00000000000E+00 0.  1.
<mgrwt>
<rscale>  0 0.12777913E+04</rscale>
<asrwt>0</asrwt>
<pdfrwt beam="1">  1        2 0.13338898E+00 0.12777913E+04</pdfrwt>
<pdfrwt beam="2">  1       -2 0.33734355E+00 0.12777913E+04</pdfrwt>
<totfact> 0.56207641E-01</totfact>
</mgrwt>
</event>
<event>
12    1  0.9321077E-008  0.3631335E+03  0.7818608E-02  0.1057350E+00
         -2   -1    0    0    0  501 -0.00000000000E+00  0.00000000000E+00  0.99908245505E+03  0.99908245505E+03  0.00000000000E+00 0.  1.
          2   -1    0    0  501    0  0.00000000000E+00 -0.00000000000E+00 -0.66562330992E+03  0.66562330992E+03  0.00000000000E+00 0. -1.
         23    2    1    2    0    0 -0.19149858056E+03 -0.16331255047E+02  0.83349300001E+03  0.86038395580E+03  0.92798459555E+02 0.  0.
    5000000    2    1    2    0    0  0.19149858056E+03  0.16331255047E+02 -0.50003385488E+03  0.80432180917E+03  0.59996774950E+03 0.  0.
         23    2    4    4    0    0 -0.12230124936E+03 -0.10416474238E+03 -0.40308732287E+03  0.44281758417E+03  0.88318366355E+02 0.  0.
         23    2    4    4    0    0  0.31379982992E+03  0.12049599743E+03 -0.96946532004E+02  0.36150422501E+03  0.91088176947E+02 0.  0.
          3    1    3    3  502    0 -0.73482370426E+02 -0.40196707409E+02  0.47178058540E+03  0.47915796436E+03  0.00000000000E+00 0. -1.
         -3    1    3    3    0  502 -0.11801621013E+03  0.23865452362E+02  0.36171241461E+03  0.38122599144E+03  0.00000000000E+00 0.  1.
         15    1    5    5    0    0 -0.11567996745E+03 -0.62228346660E+02 -0.23278826201E+03  0.26729712803E+03  0.17770000000E+01 0.  1.
        -15    1    5    5    0    0 -0.66212819065E+01 -0.41936395721E+02 -0.17029906086E+03  0.17552045613E+03  0.17770000000E+01 0. -1.
          3    1    6    6  503    0  0.11243068217E+03  0.91169248340E+02 -0.38429277836E+02  0.14976414635E+03  0.00000000000E+00 0. -1.
         -3    1    6    6    0  503  0.20136914774E+03  0.29326749088E+02 -0.58517254168E+02  0.21174007866E+03  0.00000000000E+00 0.  1.
<mgrwt>
<rscale>  0 0.36313345E+03</rscale>
<asrwt>0</asrwt>
<pdfrwt beam="1">  1        2 0.10240359E+00 0.36313345E+03</pdfrwt>
<pdfrwt beam="2">  1       -2 0.15370499E+00 0.36313345E+03</pdfrwt>
<totfact> 0.13167045E+01</totfact>
</mgrwt>
</event>
<event>
12    1  0.9321077E-008  0.7998123E+03  0.7818608E-02  0.9560289E-01
         -1   -1    0    0    0  501 -0.00000000000E+00  0.00000000000E+00  0.13293789019E+04  0.13293789019E+04  0.00000000000E+00 0.  1.
          1   -1    0    0  501    0  0.00000000000E+00 -0.00000000000E+00 -0.56484502078E+03  0.56484502078E+03  0.00000000000E+00 0. -1.
         23    2    1    2    0    0 -0.10332548566E+03 -0.69149565269E+03  0.12804947037E+02  0.70511957857E+03  0.90483477708E+02 0.  0.
    5000000    2    1    2    0    0  0.10332548566E+03  0.69149565269E+03  0.75172893405E+03  0.11891043441E+04  0.60002529709E+03 0.  0.
         23    2    4    4    0    0  0.30306529631E+03  0.23124704418E+03  0.45006635496E+03  0.59660243015E+03  0.89727178279E+02 0.  0.
         23    2    4    4    0    0 -0.19973981066E+03  0.46024860851E+03  0.30166257909E+03  0.59250191393E+03  0.91287637670E+02 0.  0.
          4    1    3    3  502    0 -0.29180609982E+01 -0.28035061358E+03 -0.16713149403E+02  0.28086350952E+03  0.00000000000E+00 0. -1.
         -4    1    3    3    0  502 -0.10040742466E+03 -0.41114503910E+03  0.29518096440E+02  0.42425606905E+03  0.00000000000E+00 0.  1.
         15    1    5    5    0    0  0.26180869605E+03  0.15388128352E+03  0.34024512016E+03  0.45606265169E+03  0.17770000000E+01 0.  1.
        -15    1    5    5    0    0  0.41256600265E+02  0.77365760655E+02  0.10982123480E+03  0.14053977846E+03  0.17770000000E+01 0. -1.
          4    1    6    6  503    0 -0.74314228084E+02  0.23936871830E+03  0.19249688373E+03  0.31603012205E+03  0.00000000000E+00 0. -1.
         -4    1    6    6    0  503 -0.12542558257E+03  0.22087989021E+03  0.10916569536E+03  0.27647179189E+03  0.00000000000E+00 0.  1.
<mgrwt>
<rscale>  0 0.79981229E+03</rscale>
<asrwt>0</asrwt>
<pdfrwt beam="1">  1        1 0.86899235E-01 0.79981229E+03</pdfrwt>
<pdfrwt beam="2">  1       -1 0.20451983E+00 0.79981229E+03</pdfrwt>
<totfact> 0.53836478E+00</totfact>
</mgrwt>
</event>
<event>
12    1  0.9321077E-008  0.1260636E+04  0.7818608E-02  0.9061377E-01
          2   -1    0    0  501    0  0.00000000000E+00  0.00000000000E+00  0.21843390438E+04  0.21843390438E+04  0.00000000000E+00 0. -1.
         -2   -1    0    0    0  501 -0.00000000000E+00 -0.00000000000E+00 -0.87219871766E+03  0.87219871766E+03  0.00000000000E+00 0.  1.
         23    2    1    2    0    0  0.54706736468E+03  0.11016324544E+04  0.11360701099E+04  0.16767768023E+04  0.89712784788E+02 0.  0.
    5000000    2    1    2    0    0 -0.54706736468E+03 -0.11016324544E+04  0.17607021622E+03  0.13797609592E+04  0.59988567022E+03 0.  0.
         23    2    4    4    0    0 -0.51465889936E+03 -0.62453796642E+03 -0.99080632206E+02  0.82034533129E+03  0.90708526061E+02 0.  0.
         23    2    4    4    0    0 -0.32408465318E+02 -0.47709448802E+03  0.27515084842E+03  0.55941562792E+03  0.92565632089E+02 0.  0.
          3    1    3    3  502    0  0.40360005310E+03  0.77911173782E+03  0.75773036279E+03  0.11593374856E+04  0.00000000000E+00 0. -1.
         -3    1    3    3    0  502  0.14346731159E+03  0.32252071662E+03  0.37833974714E+03  0.51743931664E+03  0.00000000000E+00 0.  1.
         15    1    5    5    0    0 -0.16365319461E+03 -0.22478852451E+03 -0.74164970848E+02  0.28777743047E+03  0.17770000000E+01 0. -1.
        -15    1    5    5    0    0 -0.35100570476E+03 -0.39974944190E+03 -0.24915661358E+02  0.53256790082E+03  0.17770000000E+01 0.  1.
          1    1    6    6  503    0  0.12387746387E+02 -0.57580954815E+02  0.65279007225E+01  0.59259059272E+02  0.00000000000E+00 0. -1.
         -1    1    6    6    0  503 -0.44796211705E+02 -0.41951353321E+03  0.26862294770E+03  0.50015656865E+03  0.00000000000E+00 0.  1.
<mgrwt>
<rscale>  0 0.12606365E+04</rscale>
<asrwt>0</asrwt>
<pdfrwt beam="1">  1        2 0.33605216E+00 0.12606365E+04</pdfrwt>
<pdfrwt beam="2">  1       -2 0.13418442E+00 0.12606365E+04</pdfrwt>
<totfact> 0.20468238E+00</totfact>
</mgrwt>
</event>
<event>
12    1  0.9321077E-008  0.1941299E+04  0.7818608E-02  0.8634568E-01
          1   -1    0    0  501    0  0.00000000000E+00  0.00000000000E+00  0.24266025952E+04  0.24266025952E+04  0.00000000000E+00 0. -1.
         -1   -1    0    0    0  501 -0.00000000000E+00 -0.00000000000E+00 -0.15658028116E+04  0.15658028116E+04  0.00000000000E+00 0.  1.
         23    2    1    2    0    0 -0.11501918895E+04 -0.15115079106E+04  0.31669802053E+03  0.19275613474E+04  0.87164014118E+02 0.  0.
    5000000    2    1    2    0    0  0.11501918895E+04  0.15115079106E+04  0.54410176302E+03  0.20648440594E+04  0.59994726001E+03 0.  0.
         23    2    4    4    0    0  0.38565618197E+03  0.14251948833E+03  0.11195825894E+03  0.43579184586E+03  0.91309287165E+02 0.  0.
         23    2    4    4    0    0  0.76453570750E+03  0.13689884223E+04  0.43214350408E+03  0.16290522136E+04  0.91754880288E+02 0.  0.
          1    1    3    3  502    0 -0.50787184623E+03 -0.65262230962E+03  0.95058584720E+02  0.83239763679E+03  0.00000000000E+00 0. -1.
         -1    1    3    3    0  502 -0.64232004324E+03 -0.85888560096E+03  0.22163943581E+03  0.10951637106E+04  0.00000000000E+00 0.  1.
         15    1    5    5    0    0  0.21952292510E+03  0.99957160525E+02  0.10786703779E+03  0.26423513043E+03  0.17770000000E+01 0. -1.
        -15    1    5    5    0    0  0.16613325688E+03  0.42562327806E+02  0.40912211524E+01  0.17155671543E+03  0.17770000000E+01 0.  1.
          4    1    6    6  503    0  0.45547064002E+03  0.72668460595E+03  0.25096534400E+03  0.89359253820E+03  0.00000000000E+00 0. -1.
         -4    1    6    6    0  503  0.30906506748E+03  0.64230381630E+03  0.18117816008E+03  0.73545967535E+03  0.00000000000E+00 0.  1.
<mgrwt>
<rscale>  0 0.19412990E+04</rscale>
<asrwt>0</asrwt>
<pdfrwt beam="1">  1        1 0.37332348E+00 0.19412990E+04</pdfrwt>
<pdfrwt beam="2">  1       -1 0.24089274E+00 0.19412990E+04</pdfrwt>
<totfact> 0.10939474E-01</totfact>
</mgrwt>
</event>
