<event>
12    7  0.1729738E-007  0.2471660E+04  0.7818608E-02  0.8413152E-01
         -1   -1    0    0    0  501 -0.00000000000E+00  0.00000000000E+00  0.75624844391E+03  0.75624844391E+03  0.00000000000E+00 0.  1.
          2   -1    0    0  501    0  0.00000000000E+00 -0.00000000000E+00 -0.20195417433E+04  0.20195417433E+04  0.00000000000E+00 0. -1.
         24    2    1    2    0    0 -0.10284814049E+04 -0.21159539490E+03 -0.79436969669E+03  0.13190983780E+04  0.80316276611E+02 0.  0.
        254    2    1    2    0    0  0.10284814049E+04  0.21159539490E+03 -0.46892360269E+03  0.14566918092E+04  0.89415606608E+03 0.  0.
         23    2    4    4    0    0  0.68143104790E+03  0.24022851618E+03 -0.71419169266E+03  0.10199052200E+04  0.89882539702E+02 0.  0.
         23    2    4    4    0    0  0.34705035704E+03 -0.28633121289E+02  0.24526808996E+03  0.43678658922E+03  0.96758889069E+02 0.  0.
          4    1    3    3  502    0 -0.37616586984E+03 -0.40827563261E+02 -0.30342603893E+03  0.48501032221E+03  0.00000000000E+00 0. -1.
         -3    1    3    3    0  502 -0.65231553510E+03 -0.17076783163E+03 -0.49094365776E+03  0.83408805575E+03  0.00000000000E+00 0.  1.
         13    1    5    5    0    0  0.42149049322E+03  0.13219865911E+03 -0.49262000471E+03  0.66166848980E+03  0.00000000000E+00 0.  1.
        -13    1    5    5    0    0  0.25994055468E+03  0.10802985707E+03 -0.22157168794E+03  0.35823673023E+03  0.00000000000E+00 0. -1.
          1    1    6    6  503    0  0.26055488624E+03 -0.54445362724E+02  0.21304781481E+03  0.34094356961E+03  0.00000000000E+00 0. -1.
         -1    1    6    6    0  503  0.86495470796E+02  0.25812241435E+02  0.32220275154E+02  0.95843019606E+02  0.00000000000E+00 0.  1.
<mgrwt>
<rscale>  0 0.24716596E+04</rscale>
<asrwt>0</asrwt>
<pdfrwt beam="1">  1        2 0.31069873E+00 0.24716596E+04</pdfrwt>
<pdfrwt beam="2">  1       -1 0.11634591E+00 0.24716596E+04</pdfrwt>
<totfact> 0.44235929E+00</totfact>
</mgrwt>
</event>
<event>
12    7  0.1729738E-007  0.1418557E+04  0.7818608E-02  0.8940495E-01
          2   -1    0    0  501    0  0.00000000000E+00  0.00000000000E+00  0.39062963249E+04  0.39062963249E+04  0.00000000000E+00 0. -1.
         -1   -1    0    0    0  501 -0.00000000000E+00 -0.00000000000E+00 -0.12878588901E+03  0.12878588901E+03  0.00000000000E+00 0.  1.
         24    2    1    2    0    0 -0.16463163857E+03 -0.34151545002E+03  0.40582328560E+03  0.56072593786E+03  0.77360579270E+02 0.  0.
        254    2    1    2    0    0  0.16463163857E+03  0.34151545002E+03  0.33716871503E+04  0.34743562761E+04  0.74775725638E+03 0.  0.
         23    2    4    4    0    0  0.37303095856E+03  0.13756591840E+03  0.27667948906E+04  0.27964778742E+04  0.84012238520E+02 0.  0.
         23    2    4    4    0    0 -0.20839931998E+03  0.20394953162E+03  0.60489225974E+03  0.67787840192E+03  0.92729681710E+02 0.  0.
          2    1    3    3  502    0 -0.10812061423E+02 -0.39181541798E+01  0.32245943308E+02  0.34235266382E+02  0.00000000000E+00 0. -1.
         -1    1    3    3    0  502 -0.15381957715E+03 -0.33759729584E+03  0.37357734230E+03  0.52649067147E+03  0.00000000000E+00 0.  1.
         13    1    5    5    0    0  0.22296787605E+03  0.90118727117E+02  0.19387292485E+04  0.19535882774E+04  0.00000000000E+00 0. -1.
        -13    1    5    5    0    0  0.15006308251E+03  0.47447191286E+02  0.82806564207E+03  0.84288959672E+03  0.00000000000E+00 0.  1.
          3    1    6    6  503    0 -0.18370804327E+03  0.20911481328E+03  0.52683527529E+03  0.59584650505E+03  0.00000000000E+00 0. -1.
         -3    1    6    6    0  503 -0.24691276709E+02 -0.51652816682E+01  0.78056984457E+02  0.82031896862E+02  0.00000000000E+00 0.  1.
<mgrwt>
<rscale>  0 0.14185568E+04</rscale>
<asrwt>0</asrwt>
<pdfrwt beam="1">  1        2 0.60096857E+00 0.14185568E+04</pdfrwt>
<pdfrwt beam="2">  1       -1 0.19813217E-01 0.14185568E+04</pdfrwt>
<totfact> 0.95853393E+00</totfact>
</mgrwt>
</event>
<event>
12    7  0.1729738E-007  0.1643466E+04  0.7818608E-02  0.8794281E-01
          2   -1    0    0  501    0  0.00000000000E+00  0.00000000000E+00  0.23838797432E+04  0.23838797432E+04  0.00000000000E+00 0. -1.
         -1   -1    0    0    0  501 -0.00000000000E+00 -0.00000000000E+00 -0.28325474984E+03  0.28325474984E+03  0.00000000000E+00 0.  1.
         24    2    1    2    0    0  0.38586429116E+03  0.23401655345E+03  0.21613872928E+03  0.50597235557E+03  0.75080462296E+02 0.  0.
        254    2    1    2    0    0 -0.38586429116E+03 -0.23401655345E+03  0.18844862640E+04  0.21611621374E+04  0.95691081426E+03 0.  0.
         23    2    4    4    0    0  0.22202146639E+03 -0.36414206770E+02  0.11840485274E+04  0.12087136593E+04  0.91642069587E+02 0.  0.
         23    2    4    4    0    0 -0.60788575755E+03 -0.19760234668E+03  0.70043773662E+03  0.95244847813E+03  0.89293331036E+02 0.  0.
          4    1    3    3  502    0  0.63166045380E+02  0.27235796515E+02  0.64353668485E+01  0.69088000747E+02  0.00000000000E+00 0. -1.
         -3    1    3    3    0  502  0.32269824578E+03  0.20678075693E+03  0.20970336244E+03  0.43688435482E+03  0.00000000000E+00 0.  1.
         13    1    5    5    0    0  0.17702529133E+03 -0.62087949062E+02  0.83298052360E+03  0.85384390839E+03  0.00000000000E+00 0.  1.
        -13    1    5    5    0    0  0.44996175053E+02  0.25673742292E+02  0.35106800382E+03  0.35486975092E+03  0.00000000000E+00 0. -1.
          4    1    6    6  503    0 -0.12606915735E+03 -0.80081763273E+02  0.15484689630E+03  0.21513735738E+03  0.00000000000E+00 0. -1.
         -4    1    6    6    0  503 -0.48181660019E+03 -0.11752058340E+03  0.54559084032E+03  0.73731112075E+03  0.00000000000E+00 0.  1.
<mgrwt>
<rscale>  0 0.16434662E+04</rscale>
<asrwt>0</asrwt>
<pdfrwt beam="1">  1        2 0.36675072E+00 0.16434662E+04</pdfrwt>
<pdfrwt beam="2">  1       -1 0.43577655E-01 0.16434662E+04</pdfrwt>
<totfact> 0.23013669E+01</totfact>
</mgrwt>
</event>
<event>
12    7  0.1729738E-007  0.1565758E+04  0.7818608E-02  0.8841865E-01
         -3   -1    0    0    0  501 -0.00000000000E+00  0.00000000000E+00  0.84038646804E+03  0.84038646804E+03  0.00000000000E+00 0.  1.
          2   -1    0    0  501    0  0.00000000000E+00 -0.00000000000E+00 -0.72930702248E+03  0.72930702248E+03  0.00000000000E+00 0. -1.
         24    2    1    2    0    0  0.47879039322E+03 -0.12648156708E+03 -0.10981411891E+03  0.51352980952E+03  0.80099295277E+02 0.  0.
        254    2    1    2    0    0 -0.47879039322E+03  0.12648156708E+03  0.22089356447E+03  0.10561636810E+04  0.90633874837E+03 0.  0.
         23    2    4    4    0    0 -0.54185343308E+02 -0.19277573447E+03 -0.25534249292E+03  0.33658330076E+03  0.89386768748E+02 0.  0.
         23    2    4    4    0    0 -0.42460504991E+03  0.31925730155E+03  0.47623605739E+03  0.71958038025E+03  0.93704152898E+02 0.  0.
          2    1    3    3  502    0  0.26856935664E+03 -0.58189662549E+02 -0.21967469332E+02  0.27567753964E+03  0.00000000000E+00 0. -1.
         -1    1    3    3    0  502  0.21022103658E+03 -0.68291904531E+02 -0.87846649576E+02  0.23785226988E+03  0.00000000000E+00 0.  1.
         13    1    5    5    0    0 -0.75740223870E+02 -0.11942336285E+03 -0.18351652582E+03  0.23168261988E+03  0.00000000000E+00 0. -1.
        -13    1    5    5    0    0  0.21554880562E+02 -0.73352371614E+02 -0.71825967106E+02  0.10490068088E+03  0.00000000000E+00 0.  1.
          1    1    6    6  503    0 -0.42366938545E+03  0.31735025181E+03  0.45436454848E+03  0.69760595856E+03  0.00000000000E+00 0. -1.
         -1    1    6    6    0  503 -0.93566446273E+00  0.19070497371E+01  0.21871508910E+02  0.21974421691E+02  0.00000000000E+00 0.  1.
<mgrwt>
<rscale>  0 0.15657583E+04</rscale>
<asrwt>0</asrwt>
<pdfrwt beam="1">  1        2 0.11220108E+00 0.15657583E+04</pdfrwt>
<pdfrwt beam="2">  1       -3 0.12929023E+00 0.15657583E+04</pdfrwt>
<totfact> 0.11088152E+01</totfact>
</mgrwt>
</event>
<event>
12    7  0.1729738E-007  0.1679540E+04  0.7818608E-02  0.8773120E-01
          2   -1    0    0  501    0  0.00000000000E+00  0.00000000000E+00  0.28682135707E+04  0.28682135707E+04  0.00000000000E+00 0. -1.
         -1   -1    0    0    0  501 -0.00000000000E+00 -0.00000000000E+00 -0.24587205673E+03  0.24587205673E+03  0.00000000000E+00 0.  1.
         24    2    1    2    0    0  0.12843815410E+03 -0.49454682687E+03  0.14927510619E+04  0.15797957070E+04  0.79848729725E+02 0.  0.
        254    2    1    2    0    0 -0.12843815410E+03  0.49454682687E+03  0.11295904520E+04  0.15342899204E+04  0.90387944281E+03 0.  0.
         23    2    4    4    0    0 -0.24722981080E+03  0.35612562665E+03  0.62059788892E+02  0.44749603406E+03  0.91941512891E+02 0.  0.
         23    2    4    4    0    0  0.11879165670E+03  0.13842120021E+03  0.10675306631E+04  0.10867938863E+04  0.90704731313E+02 0.  0.
          2    1    3    3  502    0  0.11498215516E+03 -0.44182484338E+03  0.12431006012E+04  0.13242844079E+04  0.00000000000E+00 0. -1.
         -1    1    3    3    0  502  0.13455998940E+02 -0.52721983490E+02  0.24965046072E+03  0.25551129914E+03  0.00000000000E+00 0.  1.
         13    1    5    5    0    0 -0.56744122975E+02  0.15945155306E+03  0.28899143871E+02  0.17169698245E+03  0.00000000000E+00 0. -1.
        -13    1    5    5    0    0 -0.19048568783E+03  0.19667407359E+03  0.33160645021E+02  0.27579905161E+03  0.00000000000E+00 0.  1.
          3    1    6    6  503    0  0.11116904489E+02  0.20453936485E+02  0.38990947229E+03  0.39060382188E+03  0.00000000000E+00 0. -1.
         -3    1    6    6    0  503  0.10767475221E+03  0.11796726373E+03  0.67762119084E+03  0.69619006446E+03  0.00000000000E+00 0.  1.
<mgrwt>
<rscale>  0 0.16795399E+04</rscale>
<asrwt>0</asrwt>
<pdfrwt beam="1">  1        2 0.44126360E+00 0.16795399E+04</pdfrwt>
<pdfrwt beam="2">  1       -1 0.37826472E-01 0.16795399E+04</pdfrwt>
<totfact> 0.15442673E+01</totfact>
</mgrwt>
</event>
<event>
12    7  0.1729738E-007  0.1471528E+04  0.7818608E-02  0.8903610E-01
          2   -1    0    0  501    0  0.00000000000E+00  0.00000000000E+00  0.55378237407E+03  0.55378237407E+03  0.00000000000E+00 0. -1.
         -1   -1    0    0    0  501 -0.00000000000E+00 -0.00000000000E+00 -0.97754744383E+03  0.97754744383E+03  0.00000000000E+00 0.  1.
         24    2    1    2    0    0  0.56096654922E+02  0.43827273284E+03 -0.29658558993E+03  0.53792545380E+03  0.78555449512E+02 0.  0.
        254    2    1    2    0    0 -0.56096654922E+02 -0.43827273284E+03 -0.12717947983E+03  0.99340436410E+03  0.88059513255E+03 0.  0.
         23    2    4    4    0    0 -0.17037358177E+02 -0.17292084622E+03 -0.49321088920E+03  0.53041233286E+03  0.88816501792E+02 0.  0.
         23    2    4    4    0    0 -0.39059296745E+02 -0.26535188662E+03  0.36603140937E+03  0.46299203124E+03  0.91898726610E+02 0.  0.
          2    1    3    3  502    0  0.32301074136E+02  0.18200563519E+03 -0.16988950844E+03  0.25106145803E+03  0.00000000000E+00 0. -1.
         -3    1    3    3    0  502  0.23795580786E+02  0.25626709765E+03 -0.12669608149E+03  0.28686399577E+03  0.00000000000E+00 0.  1.
         13    1    5    5    0    0 -0.36383001420E+02 -0.16360429447E+03 -0.46902215866E+03  0.49806814120E+03  0.00000000000E+00 0. -1.
        -13    1    5    5    0    0  0.19345643243E+02 -0.93165517549E+01 -0.24188730536E+02  0.32344191658E+02  0.00000000000E+00 0.  1.
          1    1    6    6  503    0  0.82799927985E+01 -0.19195439240E+03  0.21348695605E+03  0.28721373129E+03  0.00000000000E+00 0. -1.
         -1    1    6    6    0  503 -0.47339289544E+02 -0.73397494220E+02  0.15254445332E+03  0.17577829995E+03  0.00000000000E+00 0.  1.
<mgrwt>
<rscale>  0 0.14715278E+04</rscale>
<asrwt>0</asrwt>
<pdfrwt beam="1">  1        2 0.85197290E-01 0.14715278E+04</pdfrwt>
<pdfrwt beam="2">  1       -1 0.15039191E+00 0.14715278E+04</pdfrwt>
<totfact> 0.20937557E+01</totfact>
</mgrwt>
</event>
<event>
12    7  0.1729738E-007  0.2297610E+04  0.7818608E-02  0.8478864E-01
          2   -1    0    0  501    0  0.00000000000E+00  0.00000000000E+00  0.73206070040E+03  0.73206070040E+03  0.00000000000E+00 0. -1.
         -1   -1    0    0    0  501 -0.00000000000E+00 -0.00000000000E+00 -0.18027922753E+04  0.18027922753E+04  0.00000000000E+00 0.  1.
         24    2    1    2    0    0 -0.39752764589E+02 -0.51956417366E+03  0.44917258464E+03  0.69267386921E+03  0.80708521590E+02 0.  0.
        254    2    1    2    0    0  0.39752764589E+02  0.51956417366E+03 -0.15199041596E+04  0.18421791065E+04  0.90110376391E+03 0.  0.
         23    2    4    4    0    0  0.36309349392E+03  0.58819180145E+03 -0.99476893096E+03  0.12148951611E+04  0.92728344537E+02 0.  0.
         23    2    4    4    0    0 -0.32334072933E+03 -0.68627627784E+02 -0.52513522860E+03  0.62728394538E+03  0.91973698843E+02 0.  0.
          4    1    3    3  502    0 -0.27813192654E+02 -0.31946457377E+03  0.32661577097E+03  0.45772158506E+03  0.00000000000E+00 0. -1.
         -3    1    3    3    0  502 -0.11939571936E+02 -0.20009959989E+03  0.12255681366E+03  0.23495228416E+03  0.00000000000E+00 0.  1.
         13    1    5    5    0    0  0.23963400081E+03  0.45966290090E+03 -0.76557987016E+03  0.92456853419E+03  0.00000000000E+00 0. -1.
        -13    1    5    5    0    0  0.12345949311E+03  0.12852890054E+03 -0.22918906080E+03  0.29032662693E+03  0.00000000000E+00 0.  1.
          3    1    6    6  503    0 -0.13109309861E+03 -0.36183152207E+02 -0.13757305435E+03  0.19344499552E+03  0.00000000000E+00 0. -1.
         -3    1    6    6    0  503 -0.19224763072E+03 -0.32444475577E+02 -0.38756217425E+03  0.43383894987E+03  0.00000000000E+00 0.  1.
<mgrwt>
<rscale>  0 0.22976104E+04</rscale>
<asrwt>0</asrwt>
<pdfrwt beam="1">  1        2 0.11262472E+00 0.22976104E+04</pdfrwt>
<pdfrwt beam="2">  1       -1 0.27735265E+00 0.22976104E+04</pdfrwt>
<totfact> 0.18536984E+00</totfact>
</mgrwt>
</event>
<event>
12    7  0.1729738E-007  0.1060717E+04  0.7818608E-02  0.9244349E-01
         -1   -1    0    0    0  501 -0.00000000000E+00  0.00000000000E+00  0.92802653421E+03  0.92802653421E+03  0.00000000000E+00 0.  1.
          2   -1    0    0  501    0  0.00000000000E+00 -0.00000000000E+00 -0.30309489222E+03  0.30309489222E+03  0.00000000000E+00 0. -1.
         24    2    1    2    0    0  0.85399925306E+01  0.10411431029E+03  0.15244501396E+03  0.20154128335E+03  0.80415704522E+02 0.  0.
        254    2    1    2    0    0 -0.85399925306E+01 -0.10411431029E+03  0.47248662804E+03  0.10295801431E+04  0.90877881592E+03 0.  0.
         23    2    4    4    0    0  0.17414744431E+03  0.19989155015E+03 -0.14156801851E+03  0.31383329509E+03  0.90365198274E+02 0.  0.
         23    2    4    4    0    0 -0.18268743684E+03 -0.30400586044E+03  0.61405464655E+03  0.71574684799E+03  0.97139995358E+02 0.  0.
          2    1    3    3  502    0 -0.22798720005E+02  0.31274358989E+02  0.12461808101E+02  0.40659117368E+02  0.00000000000E+00 0. -1.
         -1    1    3    3    0  502  0.31338712535E+02  0.72839951304E+02  0.13998320585E+03  0.16088216598E+03  0.00000000000E+00 0.  1.
         13    1    5    5    0    0  0.81323107948E+02  0.15583700258E+03 -0.73166922509E+02  0.19039962660E+03  0.00000000000E+00 0. -1.
        -13    1    5    5    0    0  0.92824336366E+02  0.44054547574E+02 -0.68401095998E+02  0.12343366849E+03  0.00000000000E+00 0.  1.
          3    1    6    6  503    0 -0.43865955577E+01 -0.78440059659E+02  0.10549211849E+03  0.13153201984E+03  0.00000000000E+00 0. -1.
         -3    1    6    6    0  503 -0.17830084129E+03 -0.22556580078E+03  0.50856252805E+03  0.58421482814E+03  0.00000000000E+00 0.  1.
<mgrwt>
<rscale>  0 0.10607169E+04</rscale>
<asrwt>0</asrwt>
<pdfrwt beam="1">  1        2 0.46629984E-01 0.10607169E+04</pdfrwt>
<pdfrwt beam="2">  1       -1 0.14277331E+00 0.10607169E+04</pdfrwt>
<totfact> 0.49282519E+01</totfact>
</mgrwt>
</event>
<event>
12    7  0.1729738E-007  0.1484250E+04  0.7818608E-02  0.8894994E-01
          2   -1    0    0  501    0  0.00000000000E+00  0.00000000000E+00  0.14548480067E+04  0.14548480067E+04  0.00000000000E+00 0. -1.
         -1   -1    0    0    0  501 -0.00000000000E+00 -0.00000000000E+00 -0.37856174259E+03  0.37856174259E+03  0.00000000000E+00 0.  1.
         24    2    1    2    0    0  0.37311330140E+03  0.11635131670E+03  0.49341820818E+02  0.40185771395E+03  0.79396740523E+02 0.  0.
        254    2    1    2    0    0 -0.37311330140E+03 -0.11635131670E+03  0.10269444433E+04  0.14315520353E+04  0.91759205297E+03 0.  0.
         23    2    4    4    0    0 -0.35118414094E+03 -0.34601089960E+03  0.15361551520E+03  0.52386182481E+03  0.88202276024E+02 0.  0.
         23    2    4    4    0    0 -0.21929160454E+02  0.22965958290E+03  0.87332892808E+03  0.90769021051E+03  0.89295518036E+02 0.  0.
          4    1    3    3  502    0  0.30528276155E+03  0.12064342646E+03  0.58003279102E+02  0.33334183841E+03  0.00000000000E+00 0. -1.
         -3    1    3    3    0  502  0.67830539843E+02 -0.42921097603E+01 -0.86614582842E+01  0.68515875541E+02  0.00000000000E+00 0.  1.
         13    1    5    5    0    0 -0.36935447156E+02 -0.27802130642E+02  0.43057067887E+02  0.63175128175E+02  0.00000000000E+00 0.  1.
        -13    1    5    5    0    0 -0.31424869378E+03 -0.31820876896E+03  0.11055844731E+03  0.46068669664E+03  0.00000000000E+00 0. -1.
          1    1    6    6  503    0 -0.53473468300E+02  0.15939057788E+03  0.53939633169E+03  0.56498953156E+03  0.00000000000E+00 0. -1.
         -1    1    6    6    0  503  0.31544307846E+02  0.70269005022E+02  0.33393259638E+03  0.34270067895E+03  0.00000000000E+00 0.  1.
<mgrwt>
<rscale>  0 0.14842504E+04</rscale>
<asrwt>0</asrwt>
<pdfrwt beam="1">  1        2 0.22382277E+00 0.14842504E+04</pdfrwt>
<pdfrwt beam="2">  1       -1 0.58240269E-01 0.14842504E+04</pdfrwt>
<totfact> 0.44334361E+01</totfact>
</mgrwt>
</event>
<event>
12    7  0.1729738E-007  0.2364617E+04  0.7818608E-02  0.8452871E-01
         -1   -1    0    0    0  501 -0.00000000000E+00  0.00000000000E+00  0.22082184484E+04  0.22082184484E+04  0.00000000000E+00 0.  1.
          2   -1    0    0  501    0  0.00000000000E+00 -0.00000000000E+00 -0.63302306927E+03  0.63302306927E+03  0.00000000000E+00 0. -1.
         24    2    1    2    0    0  0.69917536882E+03 -0.72150782747E+03  0.79653685068E+03  0.12844446173E+04  0.76858824371E+02 0.  0.
        254    2    1    2    0    0 -0.69917536882E+03  0.72150782747E+03  0.77865852844E+03  0.15567969004E+04  0.89882575823E+03 0.  0.
         23    2    4    4    0    0 -0.87388769495E+03  0.48988272581E+03  0.43024299866E+03  0.10943947159E+04  0.94477340051E+02 0.  0.
         23    2    4    4    0    0  0.17471232613E+03  0.23162510166E+03  0.34841552978E+03  0.46240218452E+03  0.90817477590E+02 0.  0.
          4    1    3    3  502    0  0.65305406228E+03 -0.69185550215E+03  0.76765530021E+03  0.12224722099E+04  0.00000000000E+00 0. -1.
         -3    1    3    3    0  502  0.46121306542E+02 -0.29652325322E+02  0.28881550464E+02  0.61972407338E+02  0.00000000000E+00 0.  1.
         13    1    5    5    0    0 -0.84319253971E+03  0.45980859142E+03  0.42770745289E+03  0.10513473570E+04  0.00000000000E+00 0.  1.
        -13    1    5    5    0    0 -0.30695155233E+02  0.30074134390E+02  0.25355457644E+01  0.43047358878E+02  0.00000000000E+00 0. -1.
          3    1    6    6  503    0  0.30360345738E+02  0.10591246731E+03  0.10000514996E+03  0.14879593860E+03  0.00000000000E+00 0. -1.
         -3    1    6    6    0  503  0.14435198039E+03  0.12571263435E+03  0.24841037983E+03  0.31360624592E+03  0.00000000000E+00 0.  1.
<mgrwt>
<rscale>  0 0.23646169E+04</rscale>
<asrwt>0</asrwt>
<pdfrwt beam="1">  1        2 0.97388165E-01 0.23646169E+04</pdfrwt>
<pdfrwt beam="2">  1       -1 0.33972591E+00 0.23646169E+04</pdfrwt>
<totfact> 0.86910643E-01</totfact>
</mgrwt>
</event>
<event>
12    7  0.1729738E-007  0.2032561E+04  0.7818608E-02  0.8591547E-01
         -1   -1    0    0    0  501 -0.00000000000E+00  0.00000000000E+00  0.97002705735E+03  0.97002705735E+03  0.00000000000E+00 0.  1.
          2   -1    0    0  501    0  0.00000000000E+00 -0.00000000000E+00 -0.10647396265E+04  0.10647396265E+04  0.00000000000E+00 0. -1.
         24    2    1    2    0    0 -0.46716811699E+03 -0.51048078885E+03 -0.46163595221E+03  0.83544061761E+03  0.77566667186E+02 0.  0.
        254    2    1    2    0    0  0.46716811699E+03  0.51048078885E+03  0.36692338310E+03  0.11993260662E+04  0.90824752060E+03 0.  0.
         23    2    4    4    0    0  0.26069463933E+03  0.31306159532E+03 -0.26799010847E+03  0.49746592159E+03  0.98409285467E+02 0.  0.
         23    2    4    4    0    0  0.20647347766E+03  0.19741919353E+03  0.63491349157E+03  0.70186014460E+03  0.88808140673E+02 0.  0.
          2    1    3    3  502    0 -0.33741673739E+03 -0.40595746094E+03 -0.37609106516E+03  0.64814813435E+03  0.00000000000E+00 0. -1.
         -1    1    3    3    0  502 -0.12975137960E+03 -0.10452332791E+03 -0.85544887052E+02  0.18729248326E+03  0.00000000000E+00 0.  1.
         13    1    5    5    0    0 -0.26384631750E+01  0.35369899967E+02 -0.13881554241E+02  0.38087909627E+02  0.00000000000E+00 0.  1.
        -13    1    5    5    0    0  0.26333310251E+03  0.27769169535E+03 -0.25410855423E+03  0.45937801197E+03  0.00000000000E+00 0. -1.
          4    1    6    6  503    0  0.19837139964E+03  0.15386987324E+03  0.57439203135E+03  0.62685991718E+03  0.00000000000E+00 0. -1.
         -4    1    6    6    0  503  0.81020780176E+01  0.43549320294E+02  0.60521460220E+02  0.75000227423E+02  0.00000000000E+00 0.  1.
<mgrwt>
<rscale>  0 0.20325612E+04</rscale>
<asrwt>0</asrwt>
<pdfrwt beam="1">  1        2 0.16380610E+00 0.20325612E+04</pdfrwt>
<pdfrwt beam="2">  1       -1 0.14923493E+00 0.20325612E+04</pdfrwt>
<totfact> 0.85669293E+00</totfact>
</mgrwt>
</event>
<event>
12    7  0.1729738E-007  0.2006263E+04  0.7818608E-02  0.8603698E-01
         -1   -1    0    0    0  501 -0.00000000000E+00  0.00000000000E+00  0.77191300365E+03  0.77191300365E+03  0.00000000000E+00 0.  1.
          2   -1    0    0  501    0  0.00000000000E+00 -0.00000000000E+00 -0.13036085438E+04  0.13036085438E+04  0.00000000000E+00 0. -1.
         24    2    1    2    0    0 -0.78459342506E+03 -0.11014361522E+03 -0.13204989053E+03  0.80719971424E+03  0.80098354929E+02 0.  0.
        254    2    1    2    0    0  0.78459342506E+03  0.11014361522E+03 -0.39964564966E+03  0.12683218333E+04  0.90620371265E+03 0.  0.
         23    2    4    4    0    0  0.84452113416E+03 -0.46446453880E+01 -0.57891605666E+03  0.10277293535E+04  0.88579369525E+02 0.  0.
         23    2    4    4    0    0 -0.59927709102E+02  0.11478826061E+03  0.17927040699E+03  0.24059247972E+03  0.94758574189E+02 0.  0.
          2    1    3    3  502    0 -0.50397841988E+02 -0.14881666263E+02 -0.28092164727E+02  0.59586711496E+02  0.00000000000E+00 0. -1.
         -1    1    3    3    0  502 -0.73419558307E+03 -0.95261948957E+02 -0.10395772580E+03  0.74761300274E+03  0.00000000000E+00 0.  1.
         13    1    5    5    0    0  0.66339023057E+03 -0.32907827533E+02 -0.47935472184E+03  0.81911566489E+03  0.00000000000E+00 0. -1.
        -13    1    5    5    0    0  0.18113090359E+03  0.28263182145E+02 -0.99561334820E+02  0.20861368865E+03  0.00000000000E+00 0.  1.
          4    1    6    6  503    0 -0.58562064213E+02  0.11728348800E+03  0.18924834893E+03  0.23021700523E+03  0.00000000000E+00 0. -1.
         -4    1    6    6    0  503 -0.13656448889E+01 -0.24952273962E+01 -0.99779419342E+01  0.10375474493E+02  0.00000000000E+00 0.  1.
<mgrwt>
<rscale>  0 0.20062626E+04</rscale>
<asrwt>0</asrwt>
<pdfrwt beam="1">  1        2 0.20055516E+00 0.20062626E+04</pdfrwt>
<pdfrwt beam="2">  1       -1 0.11875585E+00 0.20062626E+04</pdfrwt>
<totfact> 0.11059888E+01</totfact>
</mgrwt>
</event>
<event>
12    7  0.1772587E-007  0.1845177E+04  0.7818608E-02  0.8682637E-01
         -1   -1    0    0    0  501 -0.00000000000E+00  0.00000000000E+00  0.91104974489E+03  0.91104974489E+03  0.00000000000E+00 0.  1.
          2   -1    0    0  501    0  0.00000000000E+00 -0.00000000000E+00 -0.93427329629E+03  0.93427329629E+03  0.00000000000E+00 0. -1.
         24    2    1    2    0    0  0.13600178293E+03  0.11832143905E+03  0.66785328154E+03  0.69664853993E+03  0.82430180278E+02 0.  0.
        254    2    1    2    0    0 -0.13600178293E+03 -0.11832143905E+03 -0.69107683293E+03  0.11486745012E+04  0.89964963897E+03 0.  0.
         23    2    4    4    0    0  0.34700172678E+03 -0.13641209232E+03 -0.13676163358E+03  0.40789621498E+03  0.93043648103E+02 0.  0.
         23    2    4    4    0    0 -0.48300350971E+03  0.18090653268E+02 -0.55431519935E+03  0.74077828627E+03  0.88698743208E+02 0.  0.
          2    1    3    3  502    0 -0.87370087050E+01  0.19957545145E+02  0.10422743037E+03  0.10648002709E+03  0.00000000000E+00 0. -1.
         -1    1    3    3    0  502  0.14473879164E+03  0.98363893908E+02  0.56362585118E+03  0.59016851284E+03  0.00000000000E+00 0.  1.
         13    1    5    5    0    0 -0.50619577461E+01 -0.23196182951E+01  0.26843115451E+01  0.61813893041E+01  0.00000000000E+00 0. -1.
        -13    1    5    5    0    0  0.35206368453E+03 -0.13409247403E+03 -0.13944594513E+03  0.40171482567E+03  0.00000000000E+00 0.  1.
          4    1    6    6  503    0  0.25589542950E+01  0.13909498654E+01 -0.13355961501E+02  0.13669846240E+02  0.00000000000E+00 0. -1.
         -4    1    6    6    0  503 -0.48556246401E+03  0.16699703403E+02 -0.54095923785E+03  0.72710844003E+03  0.00000000000E+00 0.  1.
<mgrwt>
<rscale>  0 0.18451769E+04</rscale>
<asrwt>0</asrwt>
<pdfrwt beam="1">  1        2 0.14373435E+00 0.18451769E+04</pdfrwt>
<pdfrwt beam="2">  1       -1 0.14016150E+00 0.18451769E+04</pdfrwt>
<totfact> 0.12474458E+01</totfact>
</mgrwt>
</event>
<event>
12    7  0.1729738E-007  0.1063985E+04  0.7818608E-02  0.9241023E-01
          2   -1    0    0  501    0  0.00000000000E+00  0.00000000000E+00  0.12048053559E+04  0.12048053559E+04  0.00000000000E+00 0. -1.
         -1   -1    0    0    0  501 -0.00000000000E+00 -0.00000000000E+00 -0.23490599368E+03  0.23490599368E+03  0.00000000000E+00 0.  1.
         24    2    1    2    0    0 -0.67628742155E+02 -0.29503365738E+02  0.90208405378E+01  0.10762945782E+03  0.77837197221E+02 0.  0.
        254    2    1    2    0    0  0.67628742155E+02  0.29503365738E+02  0.96087852167E+03  0.13320818918E+04  0.91962521582E+03 0.  0.
         23    2    4    4    0    0  0.16102751653E+03  0.43861349463E+03  0.63073341490E+03  0.78999360176E+03  0.89182909709E+02 0.  0.
         23    2    4    4    0    0 -0.93398774378E+02 -0.40911012889E+03  0.33014510676E+03  0.54208828999E+03  0.93645576572E+02 0.  0.
          4    1    3    3  502    0 -0.24186009995E+02 -0.30909614777E+02  0.38604450453E+02  0.55051530042E+02  0.00000000000E+00 0. -1.
         -3    1    3    3    0  502 -0.43442732160E+02  0.14062490389E+01 -0.29583609915E+02  0.52577927779E+02  0.00000000000E+00 0.  1.
         13    1    5    5    0    0  0.13412966933E+03  0.41745727283E+03  0.55845646111E+03  0.71002462056E+03  0.00000000000E+00 0.  1.
        -13    1    5    5    0    0  0.26897847205E+02  0.21156221800E+02  0.72276953790E+02  0.79968981200E+02  0.00000000000E+00 0. -1.
          4    1    6    6  503    0 -0.10196211366E+03 -0.24368628659E+03  0.20996484942E+03  0.33743816750E+03  0.00000000000E+00 0. -1.
         -4    1    6    6    0  503  0.85633392800E+01 -0.16542384231E+03  0.12018025734E+03  0.20465012250E+03  0.00000000000E+00 0.  1.
<mgrwt>
<rscale>  0 0.10639850E+04</rscale>
<asrwt>0</asrwt>
<pdfrwt beam="1">  1        2 0.18535467E+00 0.10639850E+04</pdfrwt>
<pdfrwt beam="2">  1       -1 0.36139384E-01 0.10639850E+04</pdfrwt>
<totfact> 0.15613652E+02</totfact>
</mgrwt>
</event>
<event>
12    7  0.1729738E-007  0.1607227E+04  0.7818608E-02  0.8816121E-01
         -1   -1    0    0    0  501 -0.00000000000E+00  0.00000000000E+00  0.26442835270E+03  0.26442835270E+03  0.00000000000E+00 0.  1.
          2   -1    0    0  501    0  0.00000000000E+00 -0.00000000000E+00 -0.24422284516E+04  0.24422284516E+04  0.00000000000E+00 0. -1.
         24    2    1    2    0    0  0.41385647132E+03 -0.64662141762E+02 -0.12853692447E+04  0.13541787954E+04  0.78534981001E+02 0.  0.
        254    2    1    2    0    0 -0.41385647132E+03  0.64662141762E+02 -0.89243085420E+03  0.13524780089E+04  0.92590796714E+03 0.  0.
         23    2    4    4    0    0  0.69733948666E+02  0.32235698595E+03 -0.67374656818E+03  0.75592810810E+03  0.93359608423E+02 0.  0.
         23    2    4    4    0    0 -0.48359041998E+03 -0.25769484419E+03 -0.21868428602E+03  0.59654990081E+03  0.88219273281E+02 0.  0.
          2    1    3    3  502    0  0.33162400220E+03 -0.73908202903E+02 -0.95624223977E+03  0.10148084166E+04  0.00000000000E+00 0. -1.
         -1    1    3    3    0  502  0.82232469111E+02  0.92460611411E+01 -0.32912700494E+03  0.33937037879E+03  0.00000000000E+00 0.  1.
         13    1    5    5    0    0  0.20245862910E+02  0.19069612097E+03 -0.29444197581E+03  0.35138438019E+03  0.00000000000E+00 0.  1.
        -13    1    5    5    0    0  0.49488085757E+02  0.13166086498E+03 -0.37930459237E+03  0.40454372791E+03  0.00000000000E+00 0. -1.
          2    1    6    6  503    0 -0.13554476350E+03 -0.30843075139E+02 -0.43286518413E+02  0.14559327207E+03  0.00000000000E+00 0. -1.
         -2    1    6    6    0  503 -0.34804565649E+03 -0.22685176905E+03 -0.17539776761E+03  0.45095662874E+03  0.00000000000E+00 0.  1.
<mgrwt>
<rscale>  0 0.16072267E+04</rscale>
<asrwt>0</asrwt>
<pdfrwt beam="1">  1        2 0.37572745E+00 0.16072267E+04</pdfrwt>
<pdfrwt beam="2">  1       -1 0.40681286E-01 0.16072267E+04</pdfrwt>
<totfact> 0.24272416E+01</totfact>
</mgrwt>
</event>
<event>
12    7  0.1729738E-007  0.1000571E+04  0.7818608E-02  0.9307919E-01
          2   -1    0    0  501    0  0.00000000000E+00  0.00000000000E+00  0.78531917016E+03  0.78531917016E+03  0.00000000000E+00 0. -1.
         -3   -1    0    0    0  501 -0.00000000000E+00 -0.00000000000E+00 -0.31870569244E+03  0.31870569244E+03  0.00000000000E+00 0.  1.
         24    2    1    2    0    0 -0.38357445685E+02  0.82270990052E+02  0.43704081105E+01  0.12217788903E+03  0.81661047368E+02 0.  0.
        254    2    1    2    0    0  0.38357445685E+02 -0.82270990052E+02  0.46224306960E+03  0.98184697357E+03  0.86146097687E+03 0.  0.
         23    2    4    4    0    0 -0.31158934708E+03 -0.27921727110E+02 -0.72840272221E+02  0.33318989297E+03  0.88556509989E+02 0.  0.
         23    2    4    4    0    0  0.34994679276E+03 -0.54349262942E+02  0.53508334182E+03  0.64865708060E+03  0.95001186149E+02 0.  0.
          4    1    3    3  502    0  0.24809808809E+02  0.26355507449E+02  0.10232076017E+02  0.37614289381E+02  0.00000000000E+00 0. -1.
         -3    1    3    3    0  502 -0.63167254493E+02  0.55915482604E+02 -0.58616679068E+01  0.84563599649E+02  0.00000000000E+00 0.  1.
         13    1    5    5    0    0 -0.22613516998E+03 -0.34874851639E+02 -0.89786500710E+02  0.24579460142E+03  0.00000000000E+00 0. -1.
        -13    1    5    5    0    0 -0.85454177103E+02  0.69531245292E+01  0.16946228489E+02  0.87395291550E+02  0.00000000000E+00 0.  1.
          2    1    6    6  503    0  0.17259979774E+03 -0.95064210067E+01  0.18204607812E+03  0.25104150409E+03  0.00000000000E+00 0.  1.
         -2    1    6    6    0  503  0.17734699503E+03 -0.44842841936E+02  0.35303726370E+03  0.39761557651E+03  0.00000000000E+00 0. -1.
<mgrwt>
<rscale>  0 0.10005712E+04</rscale>
<asrwt>0</asrwt>
<pdfrwt beam="1">  1        2 0.12081833E+00 0.10005712E+04</pdfrwt>
<pdfrwt beam="2">  1       -3 0.49031645E-01 0.10005712E+04</pdfrwt>
<totfact> 0.92526421E+01</totfact>
</mgrwt>
</event>
<event>
12    7  0.1729738E-007  0.1313155E+04  0.7818608E-02  0.9019198E-01
          2   -1    0    0  501    0  0.00000000000E+00  0.00000000000E+00  0.93982358631E+03  0.93982358631E+03  0.00000000000E+00 0. -1.
         -1   -1    0    0    0  501 -0.00000000000E+00 -0.00000000000E+00 -0.45869674065E+03  0.45869674065E+03  0.00000000000E+00 0.  1.
         24    2    1    2    0    0 -0.12600525821E+03 -0.23414486868E+03  0.35746335096E+03  0.45231736718E+03  0.78165265581E+02 0.  0.
        254    2    1    2    0    0  0.12600525821E+03  0.23414486868E+03  0.12366349470E+03  0.94620295978E+03  0.89961449329E+03 0.  0.
         23    2    4    4    0    0 -0.27858271557E+03 -0.14488734715E+03  0.19512172719E+03  0.38022650079E+03  0.88876491257E+02 0.  0.
         23    2    4    4    0    0  0.40458797378E+03  0.37903221583E+03 -0.71458232495E+02  0.56597645899E+03  0.88691735626E+02 0.  0.
          2    1    3    3  502    0 -0.11259659189E+03 -0.21110172115E+03  0.26938179813E+03  0.36028944245E+03  0.00000000000E+00 0. -1.
         -1    1    3    3    0  502 -0.13408666325E+02 -0.23043147533E+02  0.88081552829E+02  0.92027924727E+02  0.00000000000E+00 0.  1.
         13    1    5    5    0    0 -0.27796721584E+03 -0.15105134683E+03  0.18022352020E+03  0.36409174626E+03  0.00000000000E+00 0. -1.
        -13    1    5    5    0    0 -0.61549972934E+00  0.61639996822E+01  0.14898206990E+02  0.16134754523E+02  0.00000000000E+00 0.  1.
          4    1    6    6  503    0  0.31017559841E+03  0.27514035476E+03 -0.15677806961E+02  0.41491795611E+03  0.00000000000E+00 0. -1.
         -4    1    6    6    0  503  0.94412375372E+02  0.10389186107E+03 -0.55780425534E+02  0.15105850288E+03  0.00000000000E+00 0.  1.
<mgrwt>
<rscale>  0 0.13131550E+04</rscale>
<asrwt>0</asrwt>
<pdfrwt beam="1">  1        2 0.14458824E+00 0.13131550E+04</pdfrwt>
<pdfrwt beam="2">  1       -1 0.70568729E-01 0.13131550E+04</pdfrwt>
<totfact> 0.62535510E+01</totfact>
</mgrwt>
</event>
<event>
12    7  0.1729738E-007  0.1729733E+04  0.7818608E-02  0.8744586E-01
          2   -1    0    0  501    0  0.00000000000E+00  0.00000000000E+00  0.66871117834E+03  0.66871117834E+03  0.00000000000E+00 0. -1.
         -1   -1    0    0    0  501 -0.00000000000E+00 -0.00000000000E+00 -0.11185602950E+04  0.11185602950E+04  0.00000000000E+00 0.  1.
         24    2    1    2    0    0 -0.16519292047E+03 -0.56628621245E+03 -0.37903263339E+03  0.70581386811E+03  0.80862252293E+02 0.  0.
        254    2    1    2    0    0  0.16519292047E+03  0.56628621245E+03 -0.70816483220E+02  0.10814576052E+04  0.90364085905E+03 0.  0.
         23    2    4    4    0    0  0.93740405202E+01 -0.19829593381E+03 -0.18933858698E+03  0.28762271761E+03  0.86420930153E+02 0.  0.
         23    2    4    4    0    0  0.15581887995E+03  0.76458214626E+03  0.11852210376E+03  0.79383488758E+03  0.85211254682E+02 0.  0.
          4    1    3    3  502    0 -0.51007494474E+02 -0.19978343903E+03 -0.88477624765E+02  0.22437352136E+03  0.00000000000E+00 0. -1.
         -3    1    3    3    0  502 -0.11418542600E+03 -0.36650277342E+03 -0.29055500863E+03  0.48144034675E+03  0.00000000000E+00 0.  1.
         13    1    5    5    0    0 -0.53958655784E+01 -0.13012781598E+01  0.71128485414E+01  0.90222671520E+01  0.00000000000E+00 0.  1.
        -13    1    5    5    0    0  0.14769906099E+02 -0.19699465565E+03 -0.19645143552E+03  0.27860045046E+03  0.00000000000E+00 0. -1.
          1    1    6    6  503    0  0.14637813950E+03  0.76034518333E+03  0.11447351244E+03  0.78272315833E+03  0.00000000000E+00 0. -1.
         -1    1    6    6    0  503  0.94407404540E+01  0.42369629313E+01  0.40485913179E+01  0.11111729247E+02  0.00000000000E+00 0.  1.
<mgrwt>
<rscale>  0 0.17297327E+04</rscale>
<asrwt>0</asrwt>
<pdfrwt beam="1">  1        2 0.10287864E+00 0.17297327E+04</pdfrwt>
<pdfrwt beam="2">  1       -1 0.17208620E+00 0.17297327E+04</pdfrwt>
<totfact> 0.11177013E+01</totfact>
</mgrwt>
</event>
<event>
12    7  0.1729738E-007  0.1552476E+04  0.7818608E-02  0.8850288E-01
         -1   -1    0    0    0  501 -0.00000000000E+00  0.00000000000E+00  0.49422830740E+03  0.49422830740E+03  0.00000000000E+00 0.  1.
          2   -1    0    0  501    0  0.00000000000E+00 -0.00000000000E+00 -0.12191647455E+04  0.12191647455E+04  0.00000000000E+00 0. -1.
         24    2    1    2    0    0 -0.20303918594E+03  0.20259752477E+03 -0.71418099184E+03  0.77375767235E+03  0.79848471112E+02 0.  0.
        254    2    1    2    0    0  0.20303918594E+03 -0.20259752477E+03 -0.10755446234E+02  0.93963538053E+03  0.89472247129E+03 0.  0.
         23    2    4    4    0    0 -0.67754987477E+01 -0.50973087329E+03 -0.13884166259E+03  0.53615480909E+03  0.91178404613E+02 0.  0.
         23    2    4    4    0    0  0.20981468469E+03  0.30713334852E+03  0.12808621636E+03  0.40348057144E+03  0.89651531052E+02 0.  0.
          2    1    3    3  502    0 -0.94527617922E+02  0.55051359190E+02 -0.33987135721E+03  0.35704154121E+03  0.00000000000E+00 0. -1.
         -1    1    3    3    0  502 -0.10851156802E+03  0.14754616558E+03 -0.37430963463E+03  0.41671613114E+03  0.00000000000E+00 0.  1.
         13    1    5    5    0    0  0.35807393500E+02 -0.15345403617E+03 -0.23880504734E+02  0.15937562283E+03  0.00000000000E+00 0.  1.
        -13    1    5    5    0    0 -0.42582892248E+02 -0.35627683712E+03 -0.11496115786E+03  0.37677918626E+03  0.00000000000E+00 0. -1.
          2    1    6    6  503    0  0.45379877691E+02  0.14244139681E+03  0.41273047551E+02  0.15508819838E+03  0.00000000000E+00 0.  1.
         -2    1    6    6    0  503  0.16443480700E+03  0.16469195171E+03  0.86813168809E+02  0.24839237305E+03  0.00000000000E+00 0. -1.
<mgrwt>
<rscale>  0 0.15524764E+04</rscale>
<asrwt>0</asrwt>
<pdfrwt beam="1">  1        2 0.18756381E+00 0.15524764E+04</pdfrwt>
<pdfrwt beam="2">  1       -1 0.76035124E-01 0.15524764E+04</pdfrwt>
<totfact> 0.35170973E+01</totfact>
</mgrwt>
</event>
<event>
12    7  0.1729738E-007  0.1527369E+04  0.7818608E-02  0.8866454E-01
         -1   -1    0    0    0  501 -0.00000000000E+00  0.00000000000E+00  0.35006919874E+03  0.35006919874E+03  0.00000000000E+00 0.  1.
          2   -1    0    0  501    0  0.00000000000E+00 -0.00000000000E+00 -0.16659959230E+04  0.16659959230E+04  0.00000000000E+00 0. -1.
         24    2    1    2    0    0  0.30672222615E+03  0.17706082425E+02 -0.94539896220E+03  0.99664923919E+03  0.71683184016E+02 0.  0.
        254    2    1    2    0    0 -0.30672222615E+03 -0.17706082425E+02 -0.37052776205E+03  0.10194158825E+04  0.89862444311E+03 0.  0.
         23    2    4    4    0    0 -0.37199489065E+03  0.23709383098E+03 -0.53124386593E+03  0.69639179462E+03  0.90265182504E+02 0.  0.
         23    2    4    4    0    0  0.65272664492E+02 -0.25479991340E+03  0.16071610388E+03  0.32302408792E+03  0.96599061770E+02 0.  0.
          2    1    3    3  502    0  0.19950883050E+03  0.35537907183E+02 -0.53473771181E+03  0.57184887578E+03  0.00000000000E+00 0. -1.
         -1    1    3    3    0  502  0.10721339565E+03 -0.17831824759E+02 -0.41066125039E+03  0.42480036341E+03  0.00000000000E+00 0.  1.
         13    1    5    5    0    0 -0.24651980303E+03  0.13285037086E+03 -0.39298995471E+03  0.48255811964E+03  0.00000000000E+00 0.  1.
        -13    1    5    5    0    0 -0.12547508762E+03  0.10424346012E+03 -0.13825391121E+03  0.21383367498E+03  0.00000000000E+00 0. -1.
          1    1    6    6  503    0  0.10096326328E+02 -0.45233282907E+02 -0.96815802273E+01  0.47346791692E+02  0.00000000000E+00 0. -1.
         -1    1    6    6    0  503  0.55176338164E+02 -0.20956663049E+03  0.17039768410E+03  0.27567729623E+03  0.00000000000E+00 0.  1.
<mgrwt>
<rscale>  0 0.15273688E+04</rscale>
<asrwt>0</asrwt>
<pdfrwt beam="1">  1        2 0.25630706E+00 0.15273688E+04</pdfrwt>
<pdfrwt beam="2">  1       -1 0.53856801E-01 0.15273688E+04</pdfrwt>
<totfact> 0.39158786E+01</totfact>
</mgrwt>
</event>
<event>
12    7  0.1729738E-007  0.1839415E+04  0.7818608E-02  0.8685615E-01
         -1   -1    0    0    0  501 -0.00000000000E+00  0.00000000000E+00  0.84542393345E+03  0.84542393345E+03  0.00000000000E+00 0.  1.
          2   -1    0    0  501    0  0.00000000000E+00 -0.00000000000E+00 -0.10005184767E+04  0.10005184767E+04  0.00000000000E+00 0. -1.
         24    2    1    2    0    0  0.52586365847E+03 -0.39541990656E+03 -0.29204599942E+03  0.72428510442E+03  0.80053462757E+02 0.  0.
        254    2    1    2    0    0 -0.52586365847E+03  0.39541990656E+03  0.13695145615E+03  0.11216573058E+04  0.89803670326E+03 0.  0.
         23    2    4    4    0    0 -0.29263343621E+03  0.65079983512E+03  0.22430821534E+03  0.75342890977E+03  0.90366991874E+02 0.  0.
         23    2    4    4    0    0 -0.23323022227E+03 -0.25537992856E+03 -0.87356759189E+02  0.36822839598E+03  0.91354823318E+02 0.  0.
          2    1    3    3  502    0  0.35938695400E+03 -0.23957839276E+03 -0.22259186637E+03  0.48590526644E+03  0.00000000000E+00 0. -1.
         -1    1    3    3    0  502  0.16647670447E+03 -0.15584151381E+03 -0.69454133054E+02  0.23837983798E+03  0.00000000000E+00 0.  1.
         13    1    5    5    0    0 -0.28152553252E+03  0.64815724271E+03  0.22593219833E+03  0.74189608099E+03  0.00000000000E+00 0. -1.
        -13    1    5    5    0    0 -0.11107903682E+02  0.26425924127E+01 -0.16239829937E+01  0.11532828779E+02  0.00000000000E+00 0.  1.
          4    1    6    6  503    0 -0.18894389350E+03 -0.19149466607E+03 -0.28092729174E+02  0.27047958048E+03  0.00000000000E+00 0. -1.
         -4    1    6    6    0  503 -0.44286328767E+02 -0.63885262493E+02 -0.59264030015E+02  0.97748815507E+02  0.00000000000E+00 0.  1.
<mgrwt>
<rscale>  0 0.18394154E+04</rscale>
<asrwt>0</asrwt>
<pdfrwt beam="1">  1        2 0.15392592E+00 0.18394154E+04</pdfrwt>
<pdfrwt beam="2">  1       -1 0.13006522E+00 0.18394154E+04</pdfrwt>
<totfact> 0.13688461E+01</totfact>
</mgrwt>
</event>
<event>
12    7  0.1729738E-007  0.2300090E+04  0.7818608E-02  0.8477886E-01
         -1   -1    0    0    0  501 -0.00000000000E+00  0.00000000000E+00  0.76121171096E+03  0.76121171096E+03  0.00000000000E+00 0.  1.
          2   -1    0    0  501    0  0.00000000000E+00 -0.00000000000E+00 -0.17374975876E+04  0.17374975876E+04  0.00000000000E+00 0. -1.
         24    2    1    2    0    0  0.33805953378E+03 -0.38427254833E+03 -0.13064223805E+04  0.14053718139E+04  0.79880280771E+02 0.  0.
        254    2    1    2    0    0 -0.33805953378E+03  0.38427254833E+03  0.33013650381E+03  0.10933374847E+04  0.90799069629E+03 0.  0.
         23    2    4    4    0    0 -0.27780976830E+03  0.62670437184E+03  0.29473742128E+02  0.69247518299E+03  0.93362414983E+02 0.  0.
         23    2    4    4    0    0 -0.60249765475E+02 -0.24243182351E+03  0.30066276168E+03  0.40086230173E+03  0.88821536772E+02 0.  0.
          2    1    3    3  502    0  0.32635578786E+03 -0.35567454500E+03 -0.12627849576E+04  0.13519017462E+04  0.00000000000E+00 0. -1.
         -1    1    3    3    0  502  0.11703745918E+02 -0.28598003331E+02 -0.43637422915E+02  0.53470067717E+02  0.00000000000E+00 0.  1.
         13    1    5    5    0    0 -0.25788991048E+03  0.59921889655E+03  0.81889106252E+01  0.65240903593E+03  0.00000000000E+00 0.  1.
        -13    1    5    5    0    0 -0.19919857828E+02  0.27485475286E+02  0.21284831503E+02  0.40066147053E+02  0.00000000000E+00 0. -1.
          4    1    6    6  503    0 -0.10482415326E+01 -0.53538422195E+02  0.19466318708E+02  0.56977179866E+02  0.00000000000E+00 0. -1.
         -4    1    6    6    0  503 -0.59201523942E+02 -0.18889340132E+03  0.28119644297E+03  0.34388512186E+03  0.00000000000E+00 0.  1.
<mgrwt>
<rscale>  0 0.23000900E+04</rscale>
<asrwt>0</asrwt>
<pdfrwt beam="1">  1        2 0.26730732E+00 0.23000900E+04</pdfrwt>
<pdfrwt beam="2">  1       -1 0.11710950E+00 0.23000900E+04</pdfrwt>
<totfact> 0.63387811E+00</totfact>
</mgrwt>
</event>
<event>
12    7  0.1729738E-007  0.1783737E+04  0.7818608E-02  0.8714996E-01
         -1   -1    0    0    0  501 -0.00000000000E+00  0.00000000000E+00  0.93173661030E+03  0.93173661030E+03  0.00000000000E+00 0.  1.
          2   -1    0    0  501    0  0.00000000000E+00 -0.00000000000E+00 -0.85370675841E+03  0.85370675841E+03  0.00000000000E+00 0. -1.
         24    2    1    2    0    0 -0.30927476061E+03 -0.58212169494E+03 -0.25790848403E+02  0.66444927707E+03  0.79442612399E+02 0.  0.
        254    2    1    2    0    0  0.30927476061E+03  0.58212169494E+03  0.10382070029E+03  0.11209940916E+04  0.90073995716E+03 0.  0.
         23    2    4    4    0    0  0.77289333710E+02  0.78383894091E+03  0.10563653141E+03  0.79996589691E+03  0.91701870513E+02 0.  0.
         23    2    4    4    0    0  0.23198542690E+03 -0.20171724597E+03 -0.18158311256E+01  0.32102819474E+03  0.92459282695E+02 0.  0.
          2    1    3    3  502    0 -0.56169076352E+02 -0.11013462105E+03 -0.36057478745E+02  0.12878175983E+03  0.00000000000E+00 0. -1.
         -1    1    3    3    0  502 -0.25310568426E+03 -0.47198707389E+03  0.10266630342E+02  0.53566751723E+03  0.00000000000E+00 0.  1.
         13    1    5    5    0    0  0.96354603841E+02  0.70994449417E+03  0.90241023501E+02  0.72211414389E+03  0.00000000000E+00 0. -1.
        -13    1    5    5    0    0 -0.19065270131E+02  0.73894446741E+02  0.15395507913E+02  0.77851753019E+02  0.00000000000E+00 0.  1.
          3    1    6    6  503    0  0.19527601549E+03 -0.20172775843E+03  0.13880008915E+02  0.28110401170E+03  0.00000000000E+00 0. -1.
         -3    1    6    6    0  503  0.36709411414E+02  0.10512455153E-01 -0.15695840041E+02  0.39924183041E+02  0.00000000000E+00 0.  1.
<mgrwt>
<rscale>  0 0.17837375E+04</rscale>
<asrwt>0</asrwt>
<pdfrwt beam="1">  1        2 0.13133950E+00 0.17837375E+04</pdfrwt>
<pdfrwt beam="2">  1       -1 0.14334409E+00 0.17837375E+04</pdfrwt>
<totfact> 0.13409396E+01</totfact>
</mgrwt>
</event>
<event>
12    7  0.1729738E-007  0.1137376E+04  0.7818608E-02  0.9169510E-01
          2   -1    0    0  501    0  0.00000000000E+00  0.00000000000E+00  0.10841192398E+04  0.10841192398E+04  0.00000000000E+00 0. -1.
         -1   -1    0    0    0  501 -0.00000000000E+00 -0.00000000000E+00 -0.29831203574E+03  0.29831203574E+03  0.00000000000E+00 0.  1.
         24    2    1    2    0    0  0.52849213886E+02 -0.68535399542E+02  0.32502621152E+03  0.34552466414E+03  0.79089284719E+02 0.  0.
        254    2    1    2    0    0 -0.52849213886E+02  0.68535399542E+02  0.46078099258E+03  0.10369066114E+04  0.92486002040E+03 0.  0.
         23    2    4    4    0    0 -0.20616457295E+03 -0.38073194399E+03  0.26953072037E+03  0.51715647395E+03  0.85693436256E+02 0.  0.
         23    2    4    4    0    0  0.15331535907E+03  0.44926734353E+03  0.19125027221E+03  0.51975013749E+03  0.90646530610E+02 0.  0.
          4    1    3    3  502    0  0.41755040652E+02 -0.13630711107E+02  0.23807518831E+03  0.24209311224E+03  0.00000000000E+00 0. -1.
         -3    1    3    3    0  502  0.11094173234E+02 -0.54904688434E+02  0.86951023209E+02  0.10343155190E+03  0.00000000000E+00 0.  1.
         13    1    5    5    0    0 -0.20284659929E+03 -0.30957047122E+03  0.22428215244E+03  0.43276217879E+03  0.00000000000E+00 0. -1.
        -13    1    5    5    0    0 -0.33179736667E+01 -0.71161472767E+02  0.45248567930E+02  0.84394295159E+02  0.00000000000E+00 0.  1.
          3    1    6    6  503    0  0.15467317885E+03  0.34966926079E+03  0.13581716081E+03  0.40575692892E+03  0.00000000000E+00 0. -1.
         -3    1    6    6    0  503 -0.13578197840E+01  0.99598082740E+02  0.55433111404E+02  0.11399320857E+03  0.00000000000E+00 0.  1.
<mgrwt>
<rscale>  0 0.11373756E+04</rscale>
<asrwt>0</asrwt>
<pdfrwt beam="1">  1        2 0.16678757E+00 0.11373756E+04</pdfrwt>
<pdfrwt beam="2">  1       -1 0.45894160E-01 0.11373756E+04</pdfrwt>
<totfact> 0.11876346E+02</totfact>
</mgrwt>
</event>
<event>
12    7  0.1729738E-007  0.2055797E+04  0.7818608E-02  0.8580969E-01
         -1   -1    0    0    0  501 -0.00000000000E+00  0.00000000000E+00  0.36829670108E+03  0.36829670108E+03  0.00000000000E+00 0.  1.
          2   -1    0    0  501    0  0.00000000000E+00 -0.00000000000E+00 -0.28688165514E+04  0.28688165514E+04  0.00000000000E+00 0. -1.
         24    2    1    2    0    0  0.58929594531E+03 -0.57843549434E+03 -0.90897177515E+03  0.12306506136E+04  0.80086906092E+02 0.  0.
        254    2    1    2    0    0 -0.58929594531E+03  0.57843549434E+03 -0.15915480752E+04  0.20064626389E+04  0.90056077711E+03 0.  0.
         23    2    4    4    0    0  0.13315688694E+03  0.39322974068E+03 -0.85236255723E+03  0.95247763714E+03  0.91276145767E+02 0.  0.
         23    2    4    4    0    0 -0.72245283226E+03  0.18520575366E+03 -0.73918551797E+03  0.10539850017E+04  0.90828893485E+02 0.  0.
          4    1    3    3  502    0  0.49987116852E+02 -0.84559610079E+02 -0.11431875479E+03  0.15072430861E+03  0.00000000000E+00 0. -1.
         -3    1    3    3    0  502  0.53930882846E+03 -0.49387588426E+03 -0.79465302036E+03  0.10799263050E+04  0.00000000000E+00 0.  1.
         13    1    5    5    0    0  0.28105169603E+02  0.27043931076E+02 -0.43700395724E+02  0.58574733059E+02  0.00000000000E+00 0. -1.
        -13    1    5    5    0    0  0.10505171734E+03  0.36618580960E+03 -0.80866216150E+03  0.89390290408E+03  0.00000000000E+00 0.  1.
          3    1    6    6  503    0 -0.22347355778E+03  0.85432724697E+02 -0.28303570926E+03  0.37060544275E+03  0.00000000000E+00 0. -1.
         -3    1    6    6    0  503 -0.49897927447E+03  0.99773028960E+02 -0.45614980870E+03  0.68337955899E+03  0.00000000000E+00 0.  1.
<mgrwt>
<rscale>  0 0.20557973E+04</rscale>
<asrwt>0</asrwt>
<pdfrwt beam="1">  1        2 0.44135639E+00 0.20557973E+04</pdfrwt>
<pdfrwt beam="2">  1       -1 0.56661032E-01 0.20557973E+04</pdfrwt>
<totfact> 0.69787010E+00</totfact>
</mgrwt>
</event>
<event>
12    7  0.1729738E-007  0.2484809E+04  0.7818608E-02  0.8408417E-01
         -1   -1    0    0    0  501 -0.00000000000E+00  0.00000000000E+00  0.78921054896E+03  0.78921054896E+03  0.00000000000E+00 0.  1.
          2   -1    0    0  501    0  0.00000000000E+00 -0.00000000000E+00 -0.19558397689E+04  0.19558397689E+04  0.00000000000E+00 0. -1.
         24    2    1    2    0    0 -0.48964694015E+03 -0.82392055143E+03  0.30092609200E+02  0.96155087251E+03  0.71241239668E+02 0.  0.
        254    2    1    2    0    0  0.48964694015E+03  0.82392055143E+03 -0.11967218291E+04  0.17834994453E+04  0.91111356821E+03 0.  0.
         23    2    4    4    0    0  0.19179193956E+02  0.63101113060E+03 -0.10794519101E+04  0.12537848080E+04  0.90647834533E+02 0.  0.
         23    2    4    4    0    0  0.47046774619E+03  0.19290942082E+03 -0.11726991898E+03  0.52971463739E+03  0.91057225513E+02 0.  0.
          4    1    3    3  502    0 -0.78913775995E+02 -0.15552370876E+03  0.30469669990E+02  0.17704069820E+03  0.00000000000E+00 0. -1.
         -3    1    3    3    0  502 -0.41073316415E+03 -0.66839684266E+03 -0.37706079021E+00  0.78451017431E+03  0.00000000000E+00 0.  1.
         13    1    5    5    0    0  0.31486186614E+01  0.39203505524E+03 -0.75233206308E+03  0.84835424881E+03  0.00000000000E+00 0.  1.
        -13    1    5    5    0    0  0.16030575294E+02  0.23897607537E+03 -0.32711984707E+03  0.40543055914E+03  0.00000000000E+00 0. -1.
          3    1    6    6  503    0  0.16496252143E+03  0.62315883272E+02  0.30095739941E+01  0.17636598402E+03  0.00000000000E+00 0. -1.
         -3    1    6    6    0  503  0.30550522477E+03  0.13059353755E+03 -0.12027949297E+03  0.35334865337E+03  0.00000000000E+00 0.  1.
<mgrwt>
<rscale>  0 0.24848094E+04</rscale>
<asrwt>0</asrwt>
<pdfrwt beam="1">  1        2 0.30089842E+00 0.24848094E+04</pdfrwt>
<pdfrwt beam="2">  1       -1 0.12141701E+00 0.24848094E+04</pdfrwt>
<totfact> 0.43210764E+00</totfact>
</mgrwt>
</event>
<event>
12    7  0.1729738E-007  0.1155501E+04  0.7818608E-02  0.9152723E-01
          2   -1    0    0  501    0  0.00000000000E+00  0.00000000000E+00  0.54619508732E+03  0.54619508732E+03  0.00000000000E+00 0. -1.
         -1   -1    0    0    0  501 -0.00000000000E+00 -0.00000000000E+00 -0.61112929733E+03  0.61112929733E+03  0.00000000000E+00 0.  1.
         24    2    1    2    0    0 -0.11623887488E+03 -0.39632816242E+02  0.16169198774E+03  0.21858772651E+03  0.80957143771E+02 0.  0.
        254    2    1    2    0    0  0.11623887488E+03  0.39632816242E+02 -0.22662619775E+03  0.93873665814E+03  0.90265433233E+03 0.  0.
         23    2    4    4    0    0  0.65689684135E+02  0.32585582613E+03 -0.44576661912E+03  0.56343145237E+03  0.90829338700E+02 0.  0.
         23    2    4    4    0    0  0.50549190745E+02 -0.28622300989E+03  0.21914042137E+03  0.37530520577E+03  0.91392784869E+02 0.  0.
          4    1    3    3  502    0 -0.75237823021E+02  0.15313653000E+02  0.68508059180E+02  0.10290088510E+03  0.00000000000E+00 0. -1.
         -3    1    3    3    0  502 -0.41001051860E+02 -0.54946469242E+02  0.93183928557E+02  0.11568684142E+03  0.00000000000E+00 0.  1.
         13    1    5    5    0    0  0.83907476705E+02  0.22719685279E+03 -0.34221756214E+03  0.41925139761E+03  0.00000000000E+00 0. -1.
        -13    1    5    5    0    0 -0.18217792570E+02  0.98658973342E+02 -0.10354905698E+03  0.14418005475E+03  0.00000000000E+00 0.  1.
          1    1    6    6  503    0  0.65487153266E+02 -0.26119337818E+03  0.21743892100E+03  0.34610725565E+03  0.00000000000E+00 0. -1.
         -1    1    6    6    0  503 -0.14937962521E+02 -0.25029631708E+02  0.17015003695E+01  0.29197950121E+02  0.00000000000E+00 0.  1.
<mgrwt>
<rscale>  0 0.11555013E+04</rscale>
<asrwt>0</asrwt>
<pdfrwt beam="1">  1        2 0.84030013E-01 0.11555013E+04</pdfrwt>
<pdfrwt beam="2">  1       -1 0.94019892E-01 0.11555013E+04</pdfrwt>
<totfact> 0.68860552E+01</totfact>
</mgrwt>
</event>
<event>
12    7  0.1729738E-007  0.1794662E+04  0.7818608E-02  0.8709143E-01
         -1   -1    0    0    0  501 -0.00000000000E+00  0.00000000000E+00  0.24512070092E+03  0.24512070092E+03  0.00000000000E+00 0.  1.
          2   -1    0    0  501    0  0.00000000000E+00 -0.00000000000E+00 -0.32849231989E+04  0.32849231989E+04  0.00000000000E+00 0. -1.
         24    2    1    2    0    0  0.35565217015E+03 -0.49108261360E+02 -0.26837284990E+02  0.36889770985E+03  0.80406423872E+02 0.  0.
        254    2    1    2    0    0 -0.35565217015E+03  0.49108261360E+02 -0.30129652130E+04  0.31611461899E+04  0.88655838619E+03 0.  0.
         23    2    4    4    0    0 -0.89031017682E+02 -0.13884477418E+03 -0.73967108579E+02  0.20264030361E+03  0.91583656118E+02 0.  0.
         23    2    4    4    0    0 -0.26662115247E+03  0.18795303554E+03 -0.29389981044E+04  0.29585058863E+04  0.92919531496E+02 0.  0.
          2    1    3    3  502    0  0.58658806927E+02 -0.34724333312E+02 -0.21612308847E+02  0.71510326861E+02  0.00000000000E+00 0. -1.
         -1    1    3    3    0  502  0.29699336323E+03 -0.14383928048E+02 -0.52249761429E+01  0.29738738299E+03  0.00000000000E+00 0.  1.
         13    1    5    5    0    0 -0.71036770549E+02 -0.10990925515E+03 -0.11357816060E+02  0.13135930543E+03  0.00000000000E+00 0. -1.
        -13    1    5    5    0    0 -0.17994247133E+02 -0.28935519032E+02 -0.62609292519E+02  0.71280998178E+02  0.00000000000E+00 0.  1.
          4    1    6    6  503    0 -0.50207290517E+02  0.86550045131E+02 -0.90588414149E+03  0.91139330705E+03  0.00000000000E+00 0.  1.
         -4    1    6    6    0  503 -0.21641386195E+03  0.10140299041E+03 -0.20331139629E+04  0.20471125793E+04  0.00000000000E+00 0. -1.
<mgrwt>
<rscale>  0 0.17946617E+04</rscale>
<asrwt>0</asrwt>
<pdfrwt beam="1">  1        2 0.50537278E+00 0.17946617E+04</pdfrwt>
<pdfrwt beam="2">  1       -1 0.37710879E-01 0.17946617E+04</pdfrwt>
<totfact> 0.83645829E+00</totfact>
</mgrwt>
</event>
<event>
12    7  0.1729738E-007  0.1685035E+04  0.7818608E-02  0.8769946E-01
          2   -1    0    0  501    0  0.00000000000E+00  0.00000000000E+00  0.19847715603E+04  0.19847715603E+04  0.00000000000E+00 0. -1.
         -1   -1    0    0    0  501 -0.00000000000E+00 -0.00000000000E+00 -0.35764091571E+03  0.35764091571E+03  0.00000000000E+00 0.  1.
         24    2    1    2    0    0 -0.37305366336E+03  0.10144645945E+03  0.12231256839E+04  0.12854406941E+04  0.82830668119E+02 0.  0.
        254    2    1    2    0    0  0.37305366336E+03 -0.10144645945E+03  0.40400496070E+03  0.10569717819E+04  0.89694421208E+03 0.  0.
         23    2    4    4    0    0 -0.27446318704E+03  0.69977621236E+02  0.15348388525E+03  0.33596568619E+03  0.95334834930E+02 0.  0.
         23    2    4    4    0    0  0.64751685040E+03 -0.17142408069E+03  0.25052107545E+03  0.72100609571E+03  0.91786130892E+02 0.  0.
          2    1    3    3  502    0 -0.33977713030E+03  0.70652215260E+02  0.10237111445E+04  0.10809369738E+04  0.00000000000E+00 0. -1.
         -1    1    3    3    0  502 -0.33276533060E+02  0.30794244193E+02  0.19941453934E+03  0.20450372033E+03  0.00000000000E+00 0.  1.
         13    1    5    5    0    0 -0.11762835395E+03  0.71968776196E+02  0.99655364511E+02  0.17013854964E+03  0.00000000000E+00 0. -1.
        -13    1    5    5    0    0 -0.15683483309E+03 -0.19911549605E+01  0.53828520739E+02  0.16582713654E+03  0.00000000000E+00 0.  1.
          2    1    6    6  503    0  0.21576521384E+03 -0.89202177421E+02  0.54444925714E+02  0.23974133122E+03  0.00000000000E+00 0. -1.
         -2    1    6    6    0  503  0.43175163656E+03 -0.82221903268E+02  0.19607614973E+03  0.48126476449E+03  0.00000000000E+00 0.  1.
<mgrwt>
<rscale>  0 0.16850347E+04</rscale>
<asrwt>0</asrwt>
<pdfrwt beam="1">  1        2 0.30534946E+00 0.16850347E+04</pdfrwt>
<pdfrwt beam="2">  1       -1 0.55021681E-01 0.16850347E+04</pdfrwt>
<totfact> 0.24682159E+01</totfact>
</mgrwt>
</event>
<event>
12    7  0.1729738E-007  0.1422762E+04  0.7818608E-02  0.8937505E-01
          2   -1    0    0  501    0  0.00000000000E+00  0.00000000000E+00  0.38085577673E+04  0.38085577673E+04  0.00000000000E+00 0. -1.
         -1   -1    0    0    0  501 -0.00000000000E+00 -0.00000000000E+00 -0.13287519413E+03  0.13287519413E+03  0.00000000000E+00 0.  1.
         24    2    1    2    0    0 -0.26123500616E+03 -0.22540869991E+03  0.45634064379E+03  0.57745594555E+03  0.78458749970E+02 0.  0.
        254    2    1    2    0    0  0.26123500616E+03  0.22540869991E+03  0.32193419294E+04  0.33639770159E+04  0.91275741283E+03 0.  0.
         23    2    4    4    0    0  0.27963761279E+03  0.19133260487E+03  0.32407991630E+04  0.32597687495E+04  0.92237329274E+02 0.  0.
         23    2    4    4    0    0 -0.18402606632E+02  0.34076095034E+02 -0.21457233562E+02  0.10420826647E+03  0.94335114063E+02 0.  0.
          4    1    3    3  502    0 -0.24000265244E+02  0.33054806754E+01  0.34657764030E+02  0.42285926050E+02  0.00000000000E+00 0. -1.
         -3    1    3    3    0  502 -0.23723474092E+03 -0.22871418058E+03  0.42168287976E+03  0.53517001950E+03  0.00000000000E+00 0.  1.
         13    1    5    5    0    0  0.17985312572E+03  0.70612635620E+02  0.16482186704E+04  0.16595053710E+04  0.00000000000E+00 0. -1.
        -13    1    5    5    0    0  0.99784487076E+02  0.12071996925E+03  0.15925804926E+04  0.16002633784E+04  0.00000000000E+00 0.  1.
          2    1    6    6  503    0  0.35694378999E+02  0.16775857520E+02 -0.25987246512E+02  0.47231928491E+02  0.00000000000E+00 0.  1.
         -2    1    6    6    0  503 -0.54096985631E+02  0.17300237513E+02  0.45300129494E+01  0.56976337981E+02  0.00000000000E+00 0. -1.
<mgrwt>
<rscale>  0 0.14227619E+04</rscale>
<asrwt>0</asrwt>
<pdfrwt beam="1">  1        2 0.58593188E+00 0.14227619E+04</pdfrwt>
<pdfrwt beam="2">  1       -1 0.20442340E-01 0.14227619E+04</pdfrwt>
<totfact> 0.10798279E+01</totfact>
</mgrwt>
</event>
<event>
12    7  0.1729738E-007  0.2717896E+04  0.7818608E-02  0.8329222E-01
         -1   -1    0    0    0  501 -0.00000000000E+00  0.00000000000E+00  0.67383663937E+03  0.67383663937E+03  0.00000000000E+00 0.  1.
          2   -1    0    0  501    0  0.00000000000E+00 -0.00000000000E+00 -0.27406341982E+04  0.27406341982E+04  0.00000000000E+00 0. -1.
         24    2    1    2    0    0 -0.21688410588E+03  0.11766751279E+04 -0.72974697138E+03  0.14037072772E+04  0.79122726363E+02 0.  0.
        254    2    1    2    0    0  0.21688410588E+03 -0.11766751279E+04 -0.13370505875E+04  0.20107635604E+04  0.90766885501E+03 0.  0.
         23    2    4    4    0    0 -0.66127822294E+02 -0.65762848204E+03 -0.15388258051E+03  0.68494218260E+03  0.92832298529E+02 0.  0.
         23    2    4    4    0    0  0.28301192818E+03 -0.51904664585E+03 -0.11831680070E+04  0.13258213778E+04  0.91709438178E+02 0.  0.
          2    1    3    3  502    0 -0.89190777005E+02  0.35182369058E+03 -0.18946669488E+03  0.40942952071E+03  0.00000000000E+00 0. -1.
         -1    1    3    3    0  502 -0.12769332888E+03  0.82485143731E+03 -0.54028027650E+03  0.99427775648E+03  0.00000000000E+00 0.  1.
         13    1    5    5    0    0 -0.32306625758E+02 -0.37321258472E+03 -0.40095972647E+02  0.37674797741E+03  0.00000000000E+00 0. -1.
        -13    1    5    5    0    0 -0.33821196536E+02 -0.28441589732E+03 -0.11378660786E+03  0.30819420519E+03  0.00000000000E+00 0.  1.
          1    1    6    6  503    0  0.64562532305E+02 -0.20888771799E+03 -0.45142678833E+03  0.50158602904E+03  0.00000000000E+00 0. -1.
         -1    1    6    6    0  503  0.21844939587E+03 -0.31015892786E+03 -0.73174121862E+03  0.82423534874E+03  0.00000000000E+00 0.  1.
<mgrwt>
<rscale>  0 0.27178961E+04</rscale>
<asrwt>0</asrwt>
<pdfrwt beam="1">  1        2 0.42163603E+00 0.27178961E+04</pdfrwt>
<pdfrwt beam="2">  1       -1 0.10366718E+00 0.27178961E+04</pdfrwt>
<totfact> 0.21924984E+00</totfact>
</mgrwt>
</event>
<event>
12    7  0.1729738E-007  0.2762354E+04  0.7818608E-02  0.8315052E-01
          2   -1    0    0  501    0  0.00000000000E+00  0.00000000000E+00  0.20242245455E+04  0.20242245455E+04  0.00000000000E+00 0. -1.
         -1   -1    0    0    0  501 -0.00000000000E+00 -0.00000000000E+00 -0.94240996612E+03  0.94240996612E+03  0.00000000000E+00 0.  1.
         24    2    1    2    0    0  0.53136241828E+02  0.75440489880E+02 -0.83787529235E+03  0.84730099383E+03  0.85844282805E+02 0.  0.
        254    2    1    2    0    0 -0.53136241828E+02 -0.75440489880E+02  0.19196898717E+04  0.21193335178E+04  0.89322484757E+03 0.  0.
         23    2    4    4    0    0  0.40732133640E+03  0.22724914362E+02  0.91883786053E+03  0.10097170273E+04  0.94012597503E+02 0.  0.
         23    2    4    4    0    0 -0.46045757823E+03 -0.98165404243E+02  0.10008520112E+04  0.11096164904E+04  0.88805290830E+02 0.  0.
          4    1    3    3  502    0  0.61939441338E+01 -0.10230352461E+02 -0.32412234058E+03  0.32434289991E+03  0.00000000000E+00 0. -1.
         -3    1    3    3    0  502  0.46942297694E+02  0.85670842341E+02 -0.51375295177E+03  0.52295809392E+03  0.00000000000E+00 0.  1.
         13    1    5    5    0    0  0.16362418823E+03  0.47547737602E+02  0.44045507242E+03  0.47226510896E+03  0.00000000000E+00 0.  1.
        -13    1    5    5    0    0  0.24369714817E+03 -0.24822823239E+02  0.47838278811E+03  0.53745191836E+03  0.00000000000E+00 0. -1.
          3    1    6    6  503    0 -0.68332683895E+02  0.61337506245E+01  0.20707570088E+03  0.21814519128E+03  0.00000000000E+00 0. -1.
         -3    1    6    6    0  503 -0.39212489433E+03 -0.10429915487E+03  0.79377631028E+03  0.89147129916E+03  0.00000000000E+00 0.  1.
<mgrwt>
<rscale>  0 0.27623536E+04</rscale>
<asrwt>0</asrwt>
<pdfrwt beam="1">  1        2 0.31141916E+00 0.27623536E+04</pdfrwt>
<pdfrwt beam="2">  1       -1 0.14498615E+00 0.27623536E+04</pdfrwt>
<totfact> 0.24577883E+00</totfact>
</mgrwt>
</event>
<event>
12    7  0.1729738E-007  0.1784130E+04  0.7818608E-02  0.8714785E-01
         -1   -1    0    0    0  501 -0.00000000000E+00  0.00000000000E+00  0.73638961659E+03  0.73638961659E+03  0.00000000000E+00 0.  1.
          2   -1    0    0  501    0  0.00000000000E+00 -0.00000000000E+00 -0.10806505680E+04  0.10806505680E+04  0.00000000000E+00 0. -1.
         24    2    1    2    0    0 -0.13036865668E+03 -0.45778577215E+02 -0.78876237641E+03  0.80473618315E+03  0.79765739860E+02 0.  0.
        254    2    1    2    0    0  0.13036865668E+03  0.45778577215E+02  0.44450142496E+03  0.10123040015E+04  0.89893615449E+03 0.  0.
         23    2    4    4    0    0 -0.22904139587E+02 -0.37889681820E+03  0.28665790220E+02  0.39169221199E+03  0.92269512597E+02 0.  0.
         23    2    4    4    0    0  0.15327279626E+03  0.42467539542E+03  0.41583563474E+03  0.62061178948E+03  0.91640474590E+02 0.  0.
          2    1    3    3  502    0 -0.33747012152E+02 -0.12464688953E+02 -0.43558518619E+03  0.43706828268E+03  0.00000000000E+00 0. -1.
         -1    1    3    3    0  502 -0.96621644524E+02 -0.33313888262E+02 -0.35317719023E+03  0.36766790047E+03  0.00000000000E+00 0.  1.
         13    1    5    5    0    0  0.13379537159E+02 -0.32699110374E+03  0.26255034079E+02  0.32831619021E+03  0.00000000000E+00 0. -1.
        -13    1    5    5    0    0 -0.36283676746E+02 -0.51905714459E+02  0.24107561413E+01  0.63376021782E+02  0.00000000000E+00 0.  1.
          4    1    6    6  503    0  0.13794107186E+03  0.36233515450E+03  0.39409148870E+03  0.55283144353E+03  0.00000000000E+00 0. -1.
         -4    1    6    6    0  503  0.15331724401E+02  0.62340240914E+02  0.21744146040E+02  0.67780345951E+02  0.00000000000E+00 0.  1.
<mgrwt>
<rscale>  0 0.17841299E+04</rscale>
<asrwt>0</asrwt>
<pdfrwt beam="1">  1        2 0.16625393E+00 0.17841299E+04</pdfrwt>
<pdfrwt beam="2">  1       -1 0.11329071E+00 0.17841299E+04</pdfrwt>
<totfact> 0.17183074E+01</totfact>
</mgrwt>
</event>
<event>
12    7  0.1729738E-007  0.1043983E+04  0.7818608E-02  0.9261578E-01
         -1   -1    0    0    0  501 -0.00000000000E+00  0.00000000000E+00  0.11223546266E+03  0.11223546266E+03  0.00000000000E+00 0.  1.
          2   -1    0    0  501    0  0.00000000000E+00 -0.00000000000E+00 -0.24277099452E+04  0.24277099452E+04  0.00000000000E+00 0. -1.
         24    2    1    2    0    0 -0.18939644303E+02  0.55915996970E+02 -0.76185424772E+02  0.12665057643E+03  0.82163499911E+02 0.  0.
        254    2    1    2    0    0  0.18939644303E+02 -0.55915996970E+02 -0.22392890577E+04  0.24132948314E+04  0.89782579063E+03 0.  0.
         23    2    4    4    0    0  0.16854275983E+03 -0.21631940478E+03 -0.21338211535E+04  0.21532642717E+04  0.90297074919E+02 0.  0.
         23    2    4    4    0    0 -0.14960311552E+03  0.16040340781E+03 -0.10546790425E+03  0.26003055974E+03  0.91553633254E+02 0.  0.
          2    1    3    3  502    0 -0.63839515636E+01 -0.16538568468E+02 -0.41940283304E+02  0.45533135716E+02  0.00000000000E+00 0. -1.
         -1    1    3    3    0  502 -0.12555692739E+02  0.72454565439E+02 -0.34245141469E+02  0.81117440710E+02  0.00000000000E+00 0.  1.
         13    1    5    5    0    0  0.94076863835E+01 -0.64752744114E+02 -0.36199241147E+03  0.36785857119E+03  0.00000000000E+00 0.  1.
        -13    1    5    5    0    0  0.15913507344E+03 -0.15156666067E+03 -0.17718287420E+04  0.17854057005E+04  0.00000000000E+00 0. -1.
          3    1    6    6  503    0 -0.14898478434E+03  0.10912542792E+03 -0.95054868081E+02  0.20770231806E+03  0.00000000000E+00 0. -1.
         -3    1    6    6    0  503 -0.61833118719E+00  0.51277979892E+02 -0.10413036167E+02  0.52328241682E+02  0.00000000000E+00 0.  1.
<mgrwt>
<rscale>  0 0.10439830E+04</rscale>
<asrwt>0</asrwt>
<pdfrwt beam="1">  1        2 0.37349383E+00 0.10439830E+04</pdfrwt>
<pdfrwt beam="2">  1       -1 0.17266995E-01 0.10439830E+04</pdfrwt>
<totfact> 0.11462834E+02</totfact>
</mgrwt>
</event>
<event>
12    7  0.1729738E-007  0.1664596E+04  0.7818608E-02  0.8781818E-01
          2   -1    0    0  501    0  0.00000000000E+00  0.00000000000E+00  0.55014810201E+03  0.55014810201E+03  0.00000000000E+00 0. -1.
         -1   -1    0    0    0  501 -0.00000000000E+00 -0.00000000000E+00 -0.12591522468E+04  0.12591522468E+04  0.00000000000E+00 0.  1.
         24    2    1    2    0    0 -0.30070409290E+03  0.45691853828E+03 -0.48992504372E+03  0.73862096718E+03  0.79604538727E+02 0.  0.
        254    2    1    2    0    0  0.30070409290E+03 -0.45691853828E+03 -0.21907910103E+03  0.10706793816E+04  0.89395815538E+03 0.  0.
         23    2    4    4    0    0 -0.20057095049E+03 -0.36631975587E+03 -0.33155447735E+03  0.54131780677E+03  0.93154316889E+02 0.  0.
         23    2    4    4    0    0  0.50127504339E+03 -0.90598782412E+02  0.11247537632E+03  0.52936157483E+03  0.89934187787E+02 0.  0.
          4    1    3    3  502    0 -0.15742039391E+03  0.20458983958E+03 -0.18426864758E+03  0.31716418045E+03  0.00000000000E+00 0. -1.
         -3    1    3    3    0  502 -0.14328369899E+03  0.25232869870E+03 -0.30565639614E+03  0.42145678673E+03  0.00000000000E+00 0.  1.
         13    1    5    5    0    0 -0.49929901931E+01 -0.47053147337E+02 -0.70413373959E+02  0.84834968366E+02  0.00000000000E+00 0. -1.
        -13    1    5    5    0    0 -0.19557796029E+03 -0.31926660853E+03 -0.26114110339E+03  0.45648283840E+03  0.00000000000E+00 0.  1.
          3    1    6    6  503    0  0.15177946240E+03  0.10788073346E+02  0.16778620558E+02  0.15308464927E+03  0.00000000000E+00 0. -1.
         -3    1    6    6    0  503  0.34949558098E+03 -0.10138685576E+03  0.95696755765E+02  0.37627692556E+03  0.00000000000E+00 0.  1.
<mgrwt>
<rscale>  0 0.16645963E+04</rscale>
<asrwt>0</asrwt>
<pdfrwt beam="1">  1        2 0.84638170E-01 0.16645963E+04</pdfrwt>
<pdfrwt beam="2">  1       -1 0.19371573E+00 0.16645963E+04</pdfrwt>
<totfact> 0.99844773E+00</totfact>
</mgrwt>
</event>
<event>
12    7  0.1729738E-007  0.1674508E+04  0.7818608E-02  0.8776039E-01
          2   -1    0    0  501    0  0.00000000000E+00  0.00000000000E+00  0.15060198327E+04  0.15060198327E+04  0.00000000000E+00 0. -1.
         -1   -1    0    0    0  501 -0.00000000000E+00 -0.00000000000E+00 -0.46546127763E+03  0.46546127763E+03  0.00000000000E+00 0.  1.
         24    2    1    2    0    0  0.47270134875E+03 -0.29631929260E+02  0.80282714245E+03  0.93587079814E+03  0.83654729778E+02 0.  0.
        254    2    1    2    0    0 -0.47270134875E+03  0.29631929260E+02  0.23773141265E+03  0.10356103122E+04  0.88974596256E+03 0.  0.
         23    2    4    4    0    0 -0.32254093722E+03 -0.23012224836E+03 -0.23416181731E+03  0.46899364565E+03  0.90190784446E+02 0.  0.
         23    2    4    4    0    0 -0.15016041153E+03  0.25975417762E+03  0.47189322997E+03  0.56661666658E+03  0.91382954542E+02 0.  0.
          4    1    3    3  502    0  0.38081817718E+03 -0.65526347415E+01  0.69350497907E+03  0.79121082973E+03  0.00000000000E+00 0. -1.
         -3    1    3    3    0  502  0.91883171568E+02 -0.23079294518E+02  0.10932216338E+03  0.14465996840E+03  0.00000000000E+00 0.  1.
         13    1    5    5    0    0 -0.22056716787E+02  0.40807314311E+01 -0.27792996967E+02  0.35715568102E+02  0.00000000000E+00 0. -1.
        -13    1    5    5    0    0 -0.30048422044E+03 -0.23420297979E+03 -0.20636882035E+03  0.43327807755E+03  0.00000000000E+00 0.  1.
          2    1    6    6  503    0 -0.16117423960E+02 -0.22005419393E+01  0.10449076356E+02  0.19333828814E+02  0.00000000000E+00 0. -1.
         -2    1    6    6    0  503 -0.13404298757E+03  0.26195471955E+03  0.46144415361E+03  0.54728283777E+03  0.00000000000E+00 0.  1.
<mgrwt>
<rscale>  0 0.16745076E+04</rscale>
<asrwt>0</asrwt>
<pdfrwt beam="1">  1        2 0.23169536E+00 0.16745076E+04</pdfrwt>
<pdfrwt beam="2">  1       -1 0.71609428E-01 0.16745076E+04</pdfrwt>
<totfact> 0.26938190E+01</totfact>
</mgrwt>
</event>
<event>
12    7  0.1729738E-007  0.2227481E+04  0.7818608E-02  0.8507076E-01
          2   -1    0    0  501    0  0.00000000000E+00  0.00000000000E+00  0.14170943915E+04  0.14170943915E+04  0.00000000000E+00 0. -1.
         -1   -1    0    0    0  501 -0.00000000000E+00 -0.00000000000E+00 -0.87532487423E+03  0.87532487423E+03  0.00000000000E+00 0.  1.
         24    2    1    2    0    0 -0.50584223638E+02  0.14668360264E+03  0.11723487016E+04  0.11847334535E+04  0.71533450479E+02 0.  0.
        254    2    1    2    0    0  0.50584223638E+02 -0.14668360264E+03 -0.63057918436E+03  0.11076858123E+04  0.89736442319E+03 0.  0.
         23    2    4    4    0    0  0.53416680472E+02  0.34764666488E+03 -0.43866720477E+03  0.56967271895E+03  0.91578080435E+02 0.  0.
         23    2    4    4    0    0 -0.28324568339E+01 -0.49433026752E+03 -0.19191197958E+03  0.53801309333E+03  0.90870481960E+02 0.  0.
          2    1    3    3  502    0 -0.44898787169E+02  0.11968562505E+03  0.10982605386E+04  0.11056747988E+04  0.00000000000E+00 0. -1.
         -1    1    3    3    0  502 -0.56854364690E+01  0.26997977595E+02  0.74088163011E+02  0.79058654684E+02  0.00000000000E+00 0.  1.
         13    1    5    5    0    0 -0.83896079714E+01  0.23187353459E+03 -0.27128418209E+03  0.35697454953E+03  0.00000000000E+00 0.  1.
        -13    1    5    5    0    0  0.61806288443E+02  0.11577313029E+03 -0.16738302269E+03  0.21269816941E+03  0.00000000000E+00 0. -1.
          2    1    6    6  503    0  0.32241072996E+02 -0.37540456089E+03 -0.12413890598E+03  0.39670964080E+03  0.00000000000E+00 0.  1.
         -2    1    6    6    0  503 -0.35073529830E+02 -0.11892570662E+03 -0.67773073601E+02  0.14130345253E+03  0.00000000000E+00 0. -1.
<mgrwt>
<rscale>  0 0.22274811E+04</rscale>
<asrwt>0</asrwt>
<pdfrwt beam="1">  1        2 0.21801452E+00 0.22274811E+04</pdfrwt>
<pdfrwt beam="2">  1       -1 0.13466537E+00 0.22274811E+04</pdfrwt>
<totfact> 0.68158856E+00</totfact>
</mgrwt>
</event>
<event>
12    7  0.1729738E-007  0.1483850E+04  0.7818608E-02  0.8895264E-01
         -1   -1    0    0    0  501 -0.00000000000E+00  0.00000000000E+00  0.14242437556E+04  0.14242437556E+04  0.00000000000E+00 0.  1.
          2   -1    0    0  501    0  0.00000000000E+00 -0.00000000000E+00 -0.38648790519E+03  0.38648790519E+03  0.00000000000E+00 0. -1.
         24    2    1    2    0    0 -0.34565344040E+03  0.30130392258E+03  0.40171322539E+03  0.61474584706E+03  0.79237531562E+02 0.  0.
        254    2    1    2    0    0  0.34565344040E+03 -0.30130392258E+03  0.63604262503E+03  0.11959858137E+04  0.90308996847E+03 0.  0.
         23    2    4    4    0    0 -0.20746411770E+03  0.14506367196E+03  0.60144355712E+02  0.27626706332E+03  0.92851051124E+02 0.  0.
         23    2    4    4    0    0  0.55311755810E+03 -0.44636759454E+03  0.57589826931E+03  0.91971875040E+03  0.95082599365E+02 0.  0.
          2    1    3    3  502    0 -0.12169686243E+03  0.13383110731E+03  0.20169503229E+03  0.27092762439E+03  0.00000000000E+00 0. -1.
         -1    1    3    3    0  502 -0.22395657797E+03  0.16747281527E+03  0.20001819310E+03  0.34381822267E+03  0.00000000000E+00 0.  1.
         13    1    5    5    0    0 -0.92578496014E+02  0.35216777292E+02  0.62825401355E+02  0.11729463066E+03  0.00000000000E+00 0.  1.
        -13    1    5    5    0    0 -0.11488562169E+03  0.10984689467E+03 -0.26810456439E+01  0.15897243266E+03  0.00000000000E+00 0. -1.
          4    1    6    6  503    0  0.85156904368E+02 -0.43707607272E+02  0.46279529808E+02  0.10631955688E+03  0.00000000000E+00 0.  1.
         -4    1    6    6    0  503  0.46796065373E+03 -0.40265998727E+03  0.52961873951E+03  0.81339919353E+03  0.00000000000E+00 0. -1.
<mgrwt>
<rscale>  0 0.14838504E+04</rscale>
<asrwt>0</asrwt>
<pdfrwt beam="1">  1        2 0.59459678E-01 0.14838504E+04</pdfrwt>
<pdfrwt beam="2">  1       -1 0.21911442E+00 0.14838504E+04</pdfrwt>
<totfact> 0.10208180E+01</totfact>
</mgrwt>
</event>
<event>
12    7  0.1729738E-007  0.2723516E+04  0.7818608E-02  0.8327415E-01
          2   -1    0    0  501    0  0.00000000000E+00  0.00000000000E+00  0.34533132151E+04  0.34533132151E+04  0.00000000000E+00 0. -1.
         -1   -1    0    0    0  501 -0.00000000000E+00 -0.00000000000E+00 -0.53698702050E+03  0.53698702050E+03  0.00000000000E+00 0.  1.
         24    2    1    2    0    0 -0.10795414046E+04 -0.55525508218E+03  0.13280396455E+04  0.18009759425E+04  0.78148544248E+02 0.  0.
        254    2    1    2    0    0  0.10795414046E+04  0.55525508218E+03  0.15882865491E+04  0.21893242930E+04  0.89261909427E+03 0.  0.
         23    2    4    4    0    0  0.49203527934E+03 -0.16746874255E+03  0.83349402177E+03  0.98687703541E+03  0.95233937400E+02 0.  0.
         23    2    4    4    0    0  0.58750612530E+03  0.72272382473E+03  0.75479252733E+03  0.12024472576E+04  0.93136856328E+02 0.  0.
          2    1    3    3  502    0 -0.70417276049E+03 -0.36330707813E+03  0.81091255074E+03  0.11337682632E+04  0.00000000000E+00 0. -1.
         -1    1    3    3    0  502 -0.37536864415E+03 -0.19194800405E+03  0.51712709472E+03  0.66720767934E+03  0.00000000000E+00 0.  1.
         13    1    5    5    0    0  0.32872902884E+03 -0.84201049004E+02  0.46907193708E+03  0.57894824744E+03  0.00000000000E+00 0. -1.
        -13    1    5    5    0    0  0.16330625050E+03 -0.83267693543E+02  0.36442208470E+03  0.40792878797E+03  0.00000000000E+00 0.  1.
          2    1    6    6  503    0  0.28649683803E+03  0.36661846990E+03  0.43570460533E+03  0.63743865883E+03  0.00000000000E+00 0. -1.
         -2    1    6    6    0  503  0.30100928727E+03  0.35610535483E+03  0.31908792200E+03  0.56500859881E+03  0.00000000000E+00 0.  1.
<mgrwt>
<rscale>  0 0.27235157E+04</rscale>
<asrwt>0</asrwt>
<pdfrwt beam="1">  1        2 0.53127894E+00 0.27235157E+04</pdfrwt>
<pdfrwt beam="2">  1       -1 0.82613390E-01 0.27235157E+04</pdfrwt>
<totfact> 0.12698505E+00</totfact>
</mgrwt>
</event>
<event>
12    7  0.1729738E-007  0.2594374E+04  0.7818608E-02  0.8370115E-01
         -1   -1    0    0    0  501 -0.00000000000E+00  0.00000000000E+00  0.75480088089E+03  0.75480088089E+03  0.00000000000E+00 0.  1.
          2   -1    0    0  501    0  0.00000000000E+00 -0.00000000000E+00 -0.22293221731E+04  0.22293221731E+04  0.00000000000E+00 0. -1.
         24    2    1    2    0    0  0.81184070473E+02  0.20821067726E+03 -0.19375020948E+04  0.19519415146E+04  0.78859174191E+02 0.  0.
        254    2    1    2    0    0 -0.81184070473E+02 -0.20821067726E+03  0.46298080261E+03  0.10321815394E+04  0.89504467338E+03 0.  0.
         23    2    4    4    0    0 -0.33722606667E+03  0.11685988792E+03  0.48347818127E+03  0.60803951811E+03  0.92645833000E+02 0.  0.
         23    2    4    4    0    0  0.25604199620E+03 -0.32507056519E+03 -0.20497378657E+02  0.42414202133E+03  0.90818145544E+02 0.  0.
          4    1    3    3  502    0  0.94141313641E+02  0.18744014611E+03 -0.18097640736E+04  0.18218788098E+04  0.00000000000E+00 0. -1.
         -3    1    3    3    0  502 -0.12957243168E+02  0.20770531152E+02 -0.12773802121E+03  0.13006270479E+03  0.00000000000E+00 0.  1.
         13    1    5    5    0    0 -0.25314151052E+03  0.45195816134E+02  0.35917047373E+03  0.44173149689E+03  0.00000000000E+00 0.  1.
        -13    1    5    5    0    0 -0.84084556146E+02  0.71664071790E+02  0.12430770753E+03  0.16630802121E+03  0.00000000000E+00 0. -1.
          1    1    6    6  503    0  0.15591426197E+03 -0.22003707164E+03  0.28032345204E+02  0.27112982565E+03  0.00000000000E+00 0. -1.
         -1    1    6    6    0  503  0.10012773423E+03 -0.10503349355E+03 -0.48529723861E+02  0.15301219568E+03  0.00000000000E+00 0.  1.
<mgrwt>
<rscale>  0 0.25943742E+04</rscale>
<asrwt>0</asrwt>
<pdfrwt beam="1">  1        2 0.34297264E+00 0.25943742E+04</pdfrwt>
<pdfrwt beam="2">  1       -1 0.11612321E+00 0.25943742E+04</pdfrwt>
<totfact> 0.33547504E+00</totfact>
</mgrwt>
</event>
<event>
12    7  0.1729738E-007  0.1283695E+04  0.7818608E-02  0.9042596E-01
         -1   -1    0    0    0  501 -0.00000000000E+00  0.00000000000E+00  0.35105131614E+03  0.35105131614E+03  0.00000000000E+00 0.  1.
          2   -1    0    0  501    0  0.00000000000E+00 -0.00000000000E+00 -0.11735264615E+04  0.11735264615E+04  0.00000000000E+00 0. -1.
         24    2    1    2    0    0 -0.22645883353E+03 -0.21946383363E+03 -0.25370676984E+03  0.41246903198E+03  0.79470747605E+02 0.  0.
        254    2    1    2    0    0  0.22645883353E+03  0.21946383363E+03 -0.56876837550E+03  0.11121087456E+04  0.90213104347E+03 0.  0.
         23    2    4    4    0    0  0.15318804272E+03 -0.59653988121E+02 -0.74057413200E+03  0.76401127967E+03  0.90763515457E+02 0.  0.
         23    2    4    4    0    0  0.73270790801E+02  0.27911782175E+03  0.17180575651E+03  0.34809746596E+03  0.91538301474E+02 0.  0.
          2    1    3    3  502    0 -0.30932985894E+02 -0.77239901477E+02 -0.71791003679E+02  0.10989449579E+03  0.00000000000E+00 0. -1.
         -1    1    3    3    0  502 -0.19552584763E+03 -0.14222393215E+03 -0.18191576616E+03  0.30257453618E+03  0.00000000000E+00 0.  1.
         13    1    5    5    0    0  0.70709701684E+02  0.17091056699E+02 -0.35179501974E+03  0.35923766791E+03  0.00000000000E+00 0. -1.
        -13    1    5    5    0    0  0.82478341040E+02 -0.76745044820E+02 -0.38877911226E+03  0.40477361176E+03  0.00000000000E+00 0.  1.
          1    1    6    6  503    0  0.84234014531E+02  0.14144825688E+03  0.94833161983E+02  0.18999028183E+03  0.00000000000E+00 0. -1.
         -1    1    6    6    0  503 -0.10963223730E+02  0.13766956487E+03  0.76972594523E+02  0.15810718413E+03  0.00000000000E+00 0.  1.
<mgrwt>
<rscale>  0 0.12836947E+04</rscale>
<asrwt>0</asrwt>
<pdfrwt beam="1">  1        2 0.18054253E+00 0.12836947E+04</pdfrwt>
<pdfrwt beam="2">  1       -1 0.54007895E-01 0.12836947E+04</pdfrwt>
<totfact> 0.76071405E+01</totfact>
</mgrwt>
</event>
<event>
12    7  0.1729738E-007  0.1440140E+04  0.7818608E-02  0.8925265E-01
          2   -1    0    0  501    0  0.00000000000E+00  0.00000000000E+00  0.14796107683E+04  0.14796107683E+04  0.00000000000E+00 0. -1.
         -1   -1    0    0    0  501 -0.00000000000E+00 -0.00000000000E+00 -0.35043045458E+03  0.35043045458E+03  0.00000000000E+00 0.  1.
         24    2    1    2    0    0  0.16884346454E+03  0.33464133922E+03  0.93888414430E+02  0.39510629098E+03  0.82468208299E+02 0.  0.
        254    2    1    2    0    0 -0.16884346454E+03 -0.33464133922E+03  0.10352918993E+04  0.14349349319E+04  0.92017172345E+03 0.  0.
         23    2    4    4    0    0 -0.47350618172E+03 -0.23542982978E+03  0.95005181519E+03  0.10909817942E+04  0.89484718471E+02 0.  0.
         23    2    4    4    0    0  0.30466271718E+03 -0.99211509436E+02  0.85240084148E+02  0.34395313774E+03  0.91518272343E+02 0.  0.
          2    1    3    3  502    0  0.69890548796E+01  0.11173533055E+01  0.14272577368E+02  0.15931159131E+02  0.00000000000E+00 0. -1.
         -1    1    3    3    0  502  0.16185440966E+03  0.33352398591E+03  0.79615837061E+02  0.37917513185E+03  0.00000000000E+00 0.  1.
         13    1    5    5    0    0 -0.19797747423E+03 -0.11482909388E+03  0.49724286376E+03  0.54738584807E+03  0.00000000000E+00 0. -1.
        -13    1    5    5    0    0 -0.27552870749E+03 -0.12060073590E+03  0.45280895143E+03  0.54359594612E+03  0.00000000000E+00 0.  1.
          2    1    6    6  503    0  0.19480284482E+03 -0.74858109196E+02  0.10675674245E+02  0.20896376453E+03  0.00000000000E+00 0. -1.
         -2    1    6    6    0  503  0.10985987236E+03 -0.24353400240E+02  0.74564409902E+02  0.13498937322E+03  0.00000000000E+00 0.  1.
<mgrwt>
<rscale>  0 0.14401398E+04</rscale>
<asrwt>0</asrwt>
<pdfrwt beam="1">  1        2 0.22763242E+00 0.14401398E+04</pdfrwt>
<pdfrwt beam="2">  1       -1 0.53912379E-01 0.14401398E+04</pdfrwt>
<totfact> 0.50062704E+01</totfact>
</mgrwt>
</event>
<event>
12    7  0.1729738E-007  0.1587585E+04  0.7818608E-02  0.8828211E-01
         -1   -1    0    0    0  501 -0.00000000000E+00  0.00000000000E+00  0.28359305101E+03  0.28359305101E+03  0.00000000000E+00 0.  1.
          2   -1    0    0  501    0  0.00000000000E+00 -0.00000000000E+00 -0.22218690987E+04  0.22218690987E+04  0.00000000000E+00 0. -1.
         24    2    1    2    0    0  0.17848101129E+03  0.44489693947E+03 -0.10354754758E+04  0.11440272903E+04  0.82463457187E+02 0.  0.
        254    2    1    2    0    0 -0.17848101129E+03 -0.44489693947E+03 -0.90280057183E+03  0.13614348594E+04  0.89925927613E+03 0.  0.
         23    2    4    4    0    0 -0.11299854440E+03 -0.80161513222E+02 -0.96121981077E+03  0.97541114194E+03  0.91043022565E+02 0.  0.
         23    2    4    4    0    0 -0.65482466893E+02 -0.36473542625E+03  0.58419238939E+02  0.38602371745E+03  0.91003397318E+02 0.  0.
          2    1    3    3  502    0  0.17706640498E+03  0.41429389540E+03 -0.10020898591E+04  0.10987156271E+04  0.00000000000E+00 0. -1.
         -1    1    3    3    0  502  0.14146063118E+01  0.30603044068E+02 -0.33385616741E+02  0.45311663205E+02  0.00000000000E+00 0.  1.
         13    1    5    5    0    0 -0.38167312097E+02  0.12755089906E+01 -0.48571376905E+03  0.48721272159E+03  0.00000000000E+00 0. -1.
        -13    1    5    5    0    0 -0.74831232300E+02 -0.81437022212E+02 -0.47550604172E+03  0.48819842035E+03  0.00000000000E+00 0.  1.
          2    1    6    6  503    0 -0.54167240826E+02 -0.32272065035E+03  0.80843858519E+02  0.33707334157E+03  0.00000000000E+00 0. -1.
         -2    1    6    6    0  503 -0.11315226067E+02 -0.42014775899E+02 -0.22424619580E+02  0.48950375873E+02  0.00000000000E+00 0.  1.
<mgrwt>
<rscale>  0 0.15875851E+04</rscale>
<asrwt>0</asrwt>
<pdfrwt beam="1">  1        2 0.34182601E+00 0.15875851E+04</pdfrwt>
<pdfrwt beam="2">  1       -1 0.43629701E-01 0.15875851E+04</pdfrwt>
<totfact> 0.28493234E+01</totfact>
</mgrwt>
</event>
<event>
12    7  0.1729738E-007  0.1857799E+04  0.7818608E-02  0.8676152E-01
         -1   -1    0    0    0  501 -0.00000000000E+00  0.00000000000E+00  0.67715314112E+03  0.67715314112E+03  0.00000000000E+00 0.  1.
          2   -1    0    0  501    0  0.00000000000E+00 -0.00000000000E+00 -0.12742386737E+04  0.12742386737E+04  0.00000000000E+00 0. -1.
         24    2    1    2    0    0 -0.34825180024E+03 -0.25111746942E+03  0.36457539425E+03  0.56899111989E+03  0.80600103043E+02 0.  0.
        254    2    1    2    0    0  0.34825180024E+03  0.25111746942E+03 -0.96166092680E+03  0.13824006949E+04  0.89548905259E+03 0.  0.
         23    2    4    4    0    0 -0.14902377820E+03  0.25576342730E+03 -0.15988756818E+02  0.30944010690E+03  0.88738504609E+02 0.  0.
         23    2    4    4    0    0  0.49727557844E+03 -0.46459578797E+01 -0.94567216998E+03  0.10729605880E+04  0.98203790566E+02 0.  0.
          4    1    3    3  502    0 -0.16527706004E+02 -0.39799619003E+02  0.43909723527E+02  0.61524292428E+02  0.00000000000E+00 0. -1.
         -3    1    3    3    0  502 -0.33172409423E+03 -0.21131785042E+03  0.32066567072E+03  0.50746682747E+03  0.00000000000E+00 0.  1.
         13    1    5    5    0    0 -0.60623172005E+02  0.17647903242E+03  0.13494012029E+02  0.18708849839E+03  0.00000000000E+00 0.  1.
        -13    1    5    5    0    0 -0.88400606195E+02  0.79284394884E+02 -0.29482768847E+02  0.12235160852E+03  0.00000000000E+00 0. -1.
          3    1    6    6  503    0  0.46003974585E+03  0.14773683507E+02 -0.81858643673E+03  0.93911585221E+03  0.00000000000E+00 0. -1.
         -3    1    6    6    0  503  0.37235832590E+02 -0.19419641387E+02 -0.12708573325E+03  0.13384473578E+03  0.00000000000E+00 0.  1.
<mgrwt>
<rscale>  0 0.18577995E+04</rscale>
<asrwt>0</asrwt>
<pdfrwt beam="1">  1        2 0.19603672E+00 0.18577995E+04</pdfrwt>
<pdfrwt beam="2">  1       -1 0.10417741E+00 0.18577995E+04</pdfrwt>
<totfact> 0.15900679E+01</totfact>
</mgrwt>
</event>
<event>
12    7  0.1729738E-007  0.1071877E+04  0.7818608E-02  0.9233044E-01
          2   -1    0    0  501    0  0.00000000000E+00  0.00000000000E+00  0.22134668594E+03  0.22134668594E+03  0.00000000000E+00 0. -1.
         -1   -1    0    0    0  501 -0.00000000000E+00 -0.00000000000E+00 -0.12976478489E+04  0.12976478489E+04  0.00000000000E+00 0.  1.
         24    2    1    2    0    0 -0.24934168611E+02  0.11439472679E+03 -0.51375311446E+02  0.15058299785E+03  0.79548415027E+02 0.  0.
        254    2    1    2    0    0  0.24934168611E+02 -0.11439472679E+03 -0.10249258515E+04  0.13684115370E+04  0.89909358088E+03 0.  0.
         23    2    4    4    0    0  0.42976421442E+02 -0.47558657315E+03 -0.35876647565E+03  0.60466435341E+03  0.94212710778E+02 0.  0.
         23    2    4    4    0    0 -0.18042252831E+02  0.36119184636E+03 -0.66615937590E+03  0.76374718361E+03  0.93575496829E+02 0.  0.
          4    1    3    3  502    0 -0.37031037223E+02  0.89200198641E+02 -0.67949944194E+02  0.11808966115E+03  0.00000000000E+00 0. -1.
         -3    1    3    3    0  502  0.12096868612E+02  0.25194528153E+02  0.16574632748E+02  0.32493336698E+02  0.00000000000E+00 0.  1.
         13    1    5    5    0    0  0.50583706539E+02 -0.15647880526E+03 -0.90519130859E+02  0.18771798239E+03  0.00000000000E+00 0.  1.
        -13    1    5    5    0    0 -0.76072850967E+01 -0.31910776789E+03 -0.26824734479E+03  0.41694637102E+03  0.00000000000E+00 0. -1.
          2    1    6    6  503    0  0.38303491803E+02  0.14943260235E+03 -0.26421279438E+03  0.30595042220E+03  0.00000000000E+00 0. -1.
         -2    1    6    6    0  503 -0.56345744634E+02  0.21175924400E+03 -0.40194658152E+03  0.45779676140E+03  0.00000000000E+00 0.  1.
<mgrwt>
<rscale>  0 0.10718770E+04</rscale>
<asrwt>0</asrwt>
<pdfrwt beam="1">  1        2 0.34053337E-01 0.10718770E+04</pdfrwt>
<pdfrwt beam="2">  1       -1 0.19963813E+00 0.10718770E+04</pdfrwt>
<totfact> 0.26681855E+01</totfact>
</mgrwt>
</event>
<event>
12    7  0.1729738E-007  0.1949438E+04  0.7818608E-02  0.8630632E-01
         -1   -1    0    0    0  501 -0.00000000000E+00  0.00000000000E+00  0.61286256859E+03  0.61286256859E+03  0.00000000000E+00 0.  1.
          2   -1    0    0  501    0  0.00000000000E+00 -0.00000000000E+00 -0.15502291185E+04  0.15502291185E+04  0.00000000000E+00 0. -1.
         24    2    1    2    0    0 -0.10099671346E+03  0.62760066257E+03 -0.85820327368E+03  0.10707999223E+04  0.77567304569E+02 0.  0.
        254    2    1    2    0    0  0.10099671346E+03 -0.62760066257E+03 -0.79163276266E+02  0.10922917649E+04  0.88473247228E+03 0.  0.
         23    2    4    4    0    0  0.23852983547E+02 -0.24077715134E+02 -0.39099721565E+03  0.40235051498E+03  0.88647690724E+02 0.  0.
         23    2    4    4    0    0  0.77143729916E+02 -0.60352294744E+03  0.31183393938E+03  0.68994124989E+03  0.92668330056E+02 0.  0.
          2    1    3    3  502    0 -0.59318113235E+02  0.46179647386E+03 -0.67729956934E+03  0.82189374523E+03  0.00000000000E+00 0. -1.
         -1    1    3    3    0  502 -0.41678600228E+02  0.16580418871E+03 -0.18090370435E+03  0.24890617702E+03  0.00000000000E+00 0.  1.
         13    1    5    5    0    0 -0.28158617187E+02 -0.31622576705E+02 -0.17199077492E+03  0.17712628754E+03  0.00000000000E+00 0.  1.
        -13    1    5    5    0    0  0.52011600733E+02  0.75448615715E+01 -0.21900644073E+03  0.22522422745E+03  0.00000000000E+00 0. -1.
          3    1    6    6  503    0  0.10069626602E+02 -0.32824057058E+03  0.12949911281E+03  0.35300607612E+03  0.00000000000E+00 0. -1.
         -3    1    6    6    0  503  0.67074103314E+02 -0.27528237685E+03  0.18233482658E+03  0.33693517377E+03  0.00000000000E+00 0.  1.
<mgrwt>
<rscale>  0 0.19494383E+04</rscale>
<asrwt>0</asrwt>
<pdfrwt beam="1">  1        2 0.23849679E+00 0.19494383E+04</pdfrwt>
<pdfrwt beam="2">  1       -1 0.94286550E-01 0.19494383E+04</pdfrwt>
<totfact> 0.13764824E+01</totfact>
</mgrwt>
</event>
<event>
12    7  0.1729738E-007  0.1319447E+04  0.7818608E-02  0.9014284E-01
         -1   -1    0    0    0  501 -0.00000000000E+00  0.00000000000E+00  0.38192980917E+03  0.38192980917E+03  0.00000000000E+00 0.  1.
          2   -1    0    0  501    0  0.00000000000E+00 -0.00000000000E+00 -0.11395676720E+04  0.11395676720E+04  0.00000000000E+00 0. -1.
         24    2    1    2    0    0 -0.41712265730E+02 -0.42117854886E+02  0.18889906831E+03  0.21352175628E+03  0.79967840932E+02 0.  0.
        254    2    1    2    0    0  0.41712265730E+02  0.42117854886E+02 -0.94653693113E+03  0.13079757249E+04  0.90075219018E+03 0.  0.
         23    2    4    4    0    0  0.12023697041E+03 -0.27467389972E+03 -0.91343474697E+03  0.96570514482E+03  0.91217923185E+02 0.  0.
         23    2    4    4    0    0 -0.78524704685E+02  0.31679175461E+03 -0.33102184163E+02  0.34227058008E+03  0.97623001174E+02 0.  0.
          4    1    3    3  502    0 -0.47770006777E+02  0.74463618704E+01  0.10991060337E+03  0.12007398796E+03  0.00000000000E+00 0. -1.
         -3    1    3    3    0  502  0.60577410476E+01 -0.49564216756E+02  0.78988464942E+02  0.93447768315E+02  0.00000000000E+00 0.  1.
         13    1    5    5    0    0  0.87755577343E+02 -0.18050503682E+03 -0.72857681883E+03  0.75571640885E+03  0.00000000000E+00 0. -1.
        -13    1    5    5    0    0  0.32481393072E+02 -0.94168862899E+02 -0.18485792815E+03  0.20998873597E+03  0.00000000000E+00 0.  1.
          4    1    6    6  503    0 -0.35202832231E+02  0.23117307174E+03  0.16185298111E+02  0.23439750930E+03  0.00000000000E+00 0. -1.
         -4    1    6    6    0  503 -0.43321872454E+02  0.85618682872E+02 -0.49287482274E+02  0.10787307078E+03  0.00000000000E+00 0.  1.
<mgrwt>
<rscale>  0 0.13194466E+04</rscale>
<asrwt>0</asrwt>
<pdfrwt beam="1">  1        2 0.17531810E+00 0.13194466E+04</pdfrwt>
<pdfrwt beam="2">  1       -1 0.58758433E-01 0.13194466E+04</pdfrwt>
<totfact> 0.67500161E+01</totfact>
</mgrwt>
</event>
<event>
12    7  0.1729738E-007  0.1214991E+04  0.7818608E-02  0.9099835E-01
         -1   -1    0    0    0  501 -0.00000000000E+00  0.00000000000E+00  0.34016004867E+03  0.34016004867E+03  0.00000000000E+00 0.  1.
          2   -1    0    0  501    0  0.00000000000E+00 -0.00000000000E+00 -0.10849332554E+04  0.10849332554E+04  0.00000000000E+00 0. -1.
         24    2    1    2    0    0 -0.66755379375E+02  0.10534644582E+03  0.11491084099E+03  0.18741824285E+03  0.79793120336E+02 0.  0.
        254    2    1    2    0    0  0.66755379375E+02 -0.10534644582E+03 -0.85968404771E+03  0.12376750612E+04  0.88160577412E+03 0.  0.
         23    2    4    4    0    0  0.46054402066E+03  0.46657067743E+01 -0.41509370155E+03  0.62672168957E+03  0.91404219415E+02 0.  0.
         23    2    4    4    0    0 -0.39378864129E+03 -0.11001215260E+03 -0.44459034616E+03  0.61095337165E+03  0.91821994678E+02 0.  0.
          4    1    3    3  502    0 -0.26410945284E+02  0.18718710103E+02 -0.63906075816E+01  0.32996484721E+02  0.00000000000E+00 0. -1.
         -3    1    3    3    0  502 -0.40344434091E+02  0.86627735719E+02  0.12130144857E+03  0.15442175813E+03  0.00000000000E+00 0.  1.
         13    1    5    5    0    0  0.25403481155E+03  0.47164145797E+02 -0.24035891960E+03  0.35288886687E+03  0.00000000000E+00 0. -1.
        -13    1    5    5    0    0  0.20650920911E+03 -0.42498439023E+02 -0.17473478196E+03  0.27383282270E+03  0.00000000000E+00 0.  1.
          2    1    6    6  503    0 -0.20763056436E+03 -0.98673524989E+02 -0.27936082308E+03  0.36178638070E+03  0.00000000000E+00 0. -1.
         -2    1    6    6    0  503 -0.18615807692E+03 -0.11338627606E+02 -0.16522952309E+03  0.24916699095E+03  0.00000000000E+00 0.  1.
<mgrwt>
<rscale>  0 0.12149913E+04</rscale>
<asrwt>0</asrwt>
<pdfrwt beam="1">  1        2 0.16691281E+00 0.12149913E+04</pdfrwt>
<pdfrwt beam="2">  1       -1 0.52332316E-01 0.12149913E+04</pdfrwt>
<totfact> 0.92022877E+01</totfact>
</mgrwt>
</event>
<event>
12    7  0.1729738E-007  0.1895228E+04  0.7818608E-02  0.8657235E-01
          2   -1    0    0  501    0  0.00000000000E+00  0.00000000000E+00  0.12136869680E+04  0.12136869680E+04  0.00000000000E+00 0. -1.
         -1   -1    0    0    0  501 -0.00000000000E+00 -0.00000000000E+00 -0.73987156269E+03  0.73987156269E+03  0.00000000000E+00 0.  1.
         24    2    1    2    0    0 -0.49780368737E+03 -0.37536526943E+03  0.57902191590E+03  0.85484694214E+03  0.82397322444E+02 0.  0.
        254    2    1    2    0    0  0.49780368737E+03  0.37536526943E+03 -0.10520651061E+03  0.10987115885E+04  0.89854946900E+03 0.  0.
         23    2    4    4    0    0 -0.80471453246E+02  0.32096359473E+03 -0.32341965457E+03  0.47157370324E+03  0.91039555662E+02 0.  0.
         23    2    4    4    0    0  0.57827514061E+03  0.54401674697E+02  0.21821314396E+03  0.62713788529E+03  0.91231959888E+02 0.  0.
          2    1    3    3  502    0 -0.49761008466E+03 -0.37872178758E+03  0.57729497166E+03  0.85106725531E+03  0.00000000000E+00 0. -1.
         -1    1    3    3    0  502 -0.19360270269E+00  0.33565181576E+01  0.17269442368E+01  0.37796868317E+01  0.00000000000E+00 0.  1.
         13    1    5    5    0    0  0.16557786148E+01  0.17416608073E+03 -0.14832842660E+03  0.22877475258E+03  0.00000000000E+00 0.  1.
        -13    1    5    5    0    0 -0.82127231861E+02  0.14679751400E+03 -0.17509122797E+03  0.24279895066E+03  0.00000000000E+00 0. -1.
          3    1    6    6  503    0  0.19765855577E+03  0.46919428132E+02  0.41112515170E+02  0.20726933277E+03  0.00000000000E+00 0. -1.
         -3    1    6    6    0  503  0.38061658485E+03  0.74822465652E+01  0.17710062879E+03  0.41986855252E+03  0.00000000000E+00 0.  1.
<mgrwt>
<rscale>  0 0.18952282E+04</rscale>
<asrwt>0</asrwt>
<pdfrwt beam="1">  1        2 0.18672107E+00 0.18952282E+04</pdfrwt>
<pdfrwt beam="2">  1       -1 0.11382639E+00 0.18952282E+04</pdfrwt>
<totfact> 0.13970282E+01</totfact>
</mgrwt>
</event>
<event>
12    7  0.1729738E-007  0.1524224E+04  0.7818608E-02  0.8868502E-01
         -1   -1    0    0    0  501 -0.00000000000E+00  0.00000000000E+00  0.27342614255E+03  0.27342614255E+03  0.00000000000E+00 0.  1.
          2   -1    0    0  501    0  0.00000000000E+00 -0.00000000000E+00 -0.21242112533E+04  0.21242112533E+04  0.00000000000E+00 0. -1.
         24    2    1    2    0    0 -0.41736782559E+02 -0.45748837712E+03 -0.34550633669E+03  0.58088401334E+03  0.83749830069E+02 0.  0.
        254    2    1    2    0    0  0.41736782559E+02  0.45748837712E+03 -0.15052787740E+04  0.18167533825E+04  0.90757428952E+03 0.  0.
         23    2    4    4    0    0  0.38388643648E+03  0.25284325564E+03 -0.12494110922E+04  0.13344688801E+04  0.92090208703E+02 0.  0.
         23    2    4    4    0    0 -0.34214965392E+03  0.20464512148E+03 -0.25586768184E+03  0.48228450242E+03  0.90465790441E+02 0.  0.
          4    1    3    3  502    0 -0.22094518710E+02 -0.29487376671E+03 -0.27038403613E+03  0.40068220954E+03  0.00000000000E+00 0. -1.
         -3    1    3    3    0  502 -0.19642263850E+02 -0.16261461042E+03 -0.75122300561E+02  0.18020180380E+03  0.00000000000E+00 0.  1.
         13    1    5    5    0    0  0.38851792864E+03  0.25380926509E+03 -0.12369228502E+04  0.13211144770E+04  0.00000000000E+00 0.  1.
        -13    1    5    5    0    0 -0.46314921660E+01 -0.96600944492E+00 -0.12488241994E+02  0.13354403096E+02  0.00000000000E+00 0. -1.
          2    1    6    6  503    0 -0.21830639996E+02  0.20674410360E+02  0.44346936431E+01  0.30392015301E+02  0.00000000000E+00 0. -1.
         -2    1    6    6    0  503 -0.32031901392E+03  0.18397071112E+03 -0.26030237548E+03  0.45189248711E+03  0.00000000000E+00 0.  1.
<mgrwt>
<rscale>  0 0.15242242E+04</rscale>
<asrwt>0</asrwt>
<pdfrwt beam="1">  1        2 0.32680174E+00 0.15242242E+04</pdfrwt>
<pdfrwt beam="2">  1       -1 0.42065560E-01 0.15242242E+04</pdfrwt>
<totfact> 0.34757587E+01</totfact>
</mgrwt>
</event>
<event>
12    7  0.1729738E-007  0.1988409E+04  0.7818608E-02  0.8612059E-01
         -1   -1    0    0    0  501 -0.00000000000E+00  0.00000000000E+00  0.83589665098E+03  0.83589665098E+03  0.00000000000E+00 0.  1.
          2   -1    0    0  501    0  0.00000000000E+00 -0.00000000000E+00 -0.11824934378E+04  0.11824934378E+04  0.00000000000E+00 0. -1.
         24    2    1    2    0    0  0.44719667482E+03 -0.21375872869E+03  0.48453751123E+03  0.69788052659E+03  0.81135501056E+02 0.  0.
        254    2    1    2    0    0 -0.44719667482E+03  0.21375872869E+03 -0.83113429801E+03  0.13205095622E+04  0.89848963398E+03 0.  0.
         23    2    4    4    0    0 -0.23448982921E+03 -0.24976058455E+03 -0.15665866695E+02  0.35448052613E+03  0.89695007814E+02 0.  0.
         23    2    4    4    0    0 -0.21270684562E+03  0.46351931325E+03 -0.81546843131E+03  0.96602903603E+03  0.90160856593E+02 0.  0.
          4    1    3    3  502    0  0.26163712261E+03 -0.81745723695E+02  0.27879594466E+03  0.39097765413E+03  0.00000000000E+00 0. -1.
         -3    1    3    3    0  502  0.18555955221E+03 -0.13201300500E+03  0.20574156657E+03  0.30690287246E+03  0.00000000000E+00 0.  1.
         13    1    5    5    0    0 -0.31744596331E+02 -0.73901098750E+02 -0.29666585792E+02  0.85727464124E+02  0.00000000000E+00 0.  1.
        -13    1    5    5    0    0 -0.20274523288E+03 -0.17585948580E+03  0.14000719097E+02  0.26875306200E+03  0.00000000000E+00 0. -1.
          1    1    6    6  503    0 -0.18496411756E+03  0.42975700635E+03 -0.69438150126E+03  0.83729832114E+03  0.00000000000E+00 0. -1.
         -1    1    6    6    0  503 -0.27742728060E+02  0.33762306902E+02 -0.12108693005E+03  0.12873071489E+03  0.00000000000E+00 0.  1.
<mgrwt>
<rscale>  0 0.19884087E+04</rscale>
<asrwt>0</asrwt>
<pdfrwt beam="1">  1        2 0.18192207E+00 0.19884087E+04</pdfrwt>
<pdfrwt beam="2">  1       -1 0.12859948E+00 0.19884087E+04</pdfrwt>
<totfact> 0.10724724E+01</totfact>
</mgrwt>
</event>
<event>
12    7  0.1729738E-007  0.2293425E+04  0.7818608E-02  0.8480518E-01
         -1   -1    0    0    0  501 -0.00000000000E+00  0.00000000000E+00  0.44560105940E+03  0.44560105940E+03  0.00000000000E+00 0.  1.
          2   -1    0    0  501    0  0.00000000000E+00 -0.00000000000E+00 -0.29509575303E+04  0.29509575303E+04  0.00000000000E+00 0. -1.
         24    2    1    2    0    0 -0.42851020758E+03 -0.19026444551E+03  0.19288772198E+03  0.51448097993E+03  0.87541122884E+02 0.  0.
        254    2    1    2    0    0  0.42851020758E+03  0.19026444551E+03 -0.26982441929E+04  0.28820776098E+04  0.89779065886E+03 0.  0.
         23    2    4    4    0    0  0.42970093766E+03 -0.28804087800E+03 -0.13793619467E+04  0.14759595848E+04  0.90591791792E+02 0.  0.
         23    2    4    4    0    0 -0.11907300860E+01  0.47830532351E+03 -0.13188822462E+04  0.14061180250E+04  0.94552210588E+02 0.  0.
          4    1    3    3  502    0 -0.11876059881E+02 -0.26820467342E+02  0.14085386945E+02  0.32538844358E+02  0.00000000000E+00 0. -1.
         -3    1    3    3    0  502 -0.41663414770E+03 -0.16344397817E+03  0.17880233504E+03  0.48194213557E+03  0.00000000000E+00 0.  1.
         13    1    5    5    0    0  0.30461205910E+03 -0.25084100593E+03 -0.10253604997E+04  0.10986691364E+04  0.00000000000E+00 0.  1.
        -13    1    5    5    0    0  0.12508887857E+03 -0.37199872074E+02 -0.35400144697E+03  0.37729044843E+03  0.00000000000E+00 0. -1.
          2    1    6    6  503    0 -0.27451757593E+02  0.23742459196E+03 -0.54283793777E+03  0.59312482881E+03  0.00000000000E+00 0. -1.
         -2    1    6    6    0  503  0.26261027507E+02  0.24088073155E+03 -0.77604430845E+03  0.81299319621E+03  0.00000000000E+00 0.  1.
<mgrwt>
<rscale>  0 0.22934252E+04</rscale>
<asrwt>0</asrwt>
<pdfrwt beam="1">  1        2 0.45399347E+00 0.22934252E+04</pdfrwt>
<pdfrwt beam="2">  1       -1 0.68554008E-01 0.22934252E+04</pdfrwt>
<totfact> 0.41552579E+00</totfact>
</mgrwt>
</event>
<event>
12    7  0.1729738E-007  0.1926439E+04  0.7818608E-02  0.8641807E-01
         -1   -1    0    0    0  501 -0.00000000000E+00  0.00000000000E+00  0.45986862580E+03  0.45986862580E+03  0.00000000000E+00 0.  1.
          2   -1    0    0  501    0  0.00000000000E+00 -0.00000000000E+00 -0.20175140439E+04  0.20175140439E+04  0.00000000000E+00 0. -1.
         24    2    1    2    0    0 -0.74937902517E+02 -0.71457336907E+03 -0.36614170048E+03  0.80999110599E+03  0.76125277930E+02 0.  0.
        254    2    1    2    0    0  0.74937902517E+02  0.71457336907E+03 -0.11915037176E+04  0.16673915637E+04  0.91884858847E+03 0.  0.
         23    2    4    4    0    0  0.33085112263E+03  0.72946654881E+03 -0.11340152696E+04  0.13914995099E+04  0.93254186079E+02 0.  0.
         23    2    4    4    0    0 -0.25591322011E+03 -0.14893179732E+02 -0.57488447951E+02  0.27589205372E+03  0.84250344984E+02 0.  0.
          4    1    3    3  502    0 -0.27635416727E+02 -0.58098580999E+02 -0.32340744076E+02  0.72007535017E+02  0.00000000000E+00 0. -1.
         -3    1    3    3    0  502 -0.47302485789E+02 -0.65647478808E+03 -0.33380095640E+03  0.73798357098E+03  0.00000000000E+00 0.  1.
         13    1    5    5    0    0  0.32878645611E+03  0.71726031994E+03 -0.10889082421E+04  0.13447245294E+04  0.00000000000E+00 0.  1.
        -13    1    5    5    0    0  0.20646665185E+01  0.12206228870E+02 -0.45107027504E+02  0.46774980506E+02  0.00000000000E+00 0. -1.
          2    1    6    6  503    0 -0.10876329927E+03 -0.47786325423E+02 -0.31311118353E+02  0.12285509471E+03  0.00000000000E+00 0. -1.
         -2    1    6    6    0  503 -0.14714992085E+03  0.32893145690E+02 -0.26177329598E+02  0.15303695901E+03  0.00000000000E+00 0.  1.
<mgrwt>
<rscale>  0 0.19264386E+04</rscale>
<asrwt>0</asrwt>
<pdfrwt beam="1">  1        2 0.31038678E+00 0.19264386E+04</pdfrwt>
<pdfrwt beam="2">  1       -1 0.70749018E-01 0.19264386E+04</pdfrwt>
<totfact> 0.14032192E+01</totfact>
</mgrwt>
</event>
<event>
12    7  0.1729738E-007  0.1557135E+04  0.7818608E-02  0.8847323E-01
         -1   -1    0    0    0  501 -0.00000000000E+00  0.00000000000E+00  0.24463715254E+03  0.24463715254E+03  0.00000000000E+00 0.  1.
          2   -1    0    0  501    0  0.00000000000E+00 -0.00000000000E+00 -0.24778209295E+04  0.24778209295E+04  0.00000000000E+00 0. -1.
         24    2    1    2    0    0  0.12521838299E+03 -0.11107113056E+03 -0.16234242733E+04  0.16339897686E+04  0.79998457187E+02 0.  0.
        254    2    1    2    0    0 -0.12521838299E+03  0.11107113056E+03 -0.60975950363E+03  0.10884683134E+04  0.88596849697E+03 0.  0.
         23    2    4    4    0    0  0.27538405180E+03  0.27976048124E+03 -0.10437599108E+03  0.41576086017E+03  0.88659136525E+02 0.  0.
         23    2    4    4    0    0 -0.40060243480E+03 -0.16868935068E+03 -0.50538351255E+03  0.67270745327E+03  0.90467757385E+02 0.  0.
          2    1    3    3  502    0  0.11166569031E+03 -0.49921748249E+02 -0.10116792996E+04  0.10190468157E+04  0.00000000000E+00 0. -1.
         -1    1    3    3    0  502  0.13552692680E+02 -0.61149382311E+02 -0.61174497368E+03  0.61494295285E+03  0.00000000000E+00 0.  1.
         13    1    5    5    0    0  0.24595462364E+02  0.23666360622E+02 -0.38263361152E+02  0.51274927602E+02  0.00000000000E+00 0.  1.
        -13    1    5    5    0    0  0.25078858944E+03  0.25609412062E+03 -0.66112629923E+02  0.36448593257E+03  0.00000000000E+00 0. -1.
          3    1    6    6  503    0 -0.37108539757E+03 -0.17609007366E+03 -0.44828568689E+03  0.60800669684E+03  0.00000000000E+00 0. -1.
         -3    1    6    6    0  503 -0.29517037232E+02  0.74007229808E+01 -0.57097825662E+02  0.64700756432E+02  0.00000000000E+00 0.  1.
<mgrwt>
<rscale>  0 0.15571346E+04</rscale>
<asrwt>0</asrwt>
<pdfrwt beam="1">  1        2 0.38120325E+00 0.15571346E+04</pdfrwt>
<pdfrwt beam="2">  1       -1 0.37636482E-01 0.15571346E+04</pdfrwt>
<totfact> 0.26799852E+01</totfact>
</mgrwt>
</event>
<event>
12    7  0.1729738E-007  0.2639385E+04  0.7818608E-02  0.8354945E-01
          2   -1    0    0  501    0  0.00000000000E+00  0.00000000000E+00  0.13142410708E+04  0.13142410708E+04  0.00000000000E+00 0. -1.
         -1   -1    0    0    0  501 -0.00000000000E+00 -0.00000000000E+00 -0.13251666422E+04  0.13251666422E+04  0.00000000000E+00 0.  1.
         24    2    1    2    0    0 -0.67831217150E+03  0.71131714067E+03 -0.63841479140E+03  0.11748420372E+04  0.81245861030E+02 0.  0.
        254    2    1    2    0    0  0.67831217150E+03 -0.71131714067E+03  0.62748921995E+03  0.14645656758E+04  0.88607585506E+03 0.  0.
         23    2    4    4    0    0  0.87584509356E+03 -0.50954923280E+03  0.55369628959E+03  0.11582931637E+04  0.91205391924E+02 0.  0.
         23    2    4    4    0    0 -0.19753292206E+03 -0.20176790787E+03  0.73792930352E+02  0.30627251204E+03  0.92886549715E+02 0.  0.
          2    1    3    3  502    0 -0.39598171103E+03  0.41438535756E+03 -0.41964114777E+03  0.71036288820E+03  0.00000000000E+00 0. -1.
         -1    1    3    3    0  502 -0.28233046047E+03  0.29693178311E+03 -0.21877364362E+03  0.46447914902E+03  0.00000000000E+00 0.  1.
         13    1    5    5    0    0  0.45619175070E+03 -0.30917295591E+03  0.32888690539E+03  0.64176742408E+03  0.00000000000E+00 0. -1.
        -13    1    5    5    0    0  0.41965334286E+03 -0.20037627689E+03  0.22480938420E+03  0.51652573967E+03  0.00000000000E+00 0.  1.
          1    1    6    6  503    0 -0.69851756949E+02 -0.28884959758E+02 -0.86498182912E+01  0.76081720574E+02  0.00000000000E+00 0. -1.
         -1    1    6    6    0  503 -0.12768116511E+03 -0.17288294811E+03  0.82442748643E+02  0.23019079146E+03  0.00000000000E+00 0.  1.
<mgrwt>
<rscale>  0 0.26393851E+04</rscale>
<asrwt>0</asrwt>
<pdfrwt beam="1">  1        2 0.20219093E+00 0.26393851E+04</pdfrwt>
<pdfrwt beam="2">  1       -1 0.20387179E+00 0.26393851E+04</pdfrwt>
<totfact> 0.23061070E+00</totfact>
</mgrwt>
</event>
<event>
12    7  0.1729738E-007  0.1799925E+04  0.7818608E-02  0.8706339E-01
          2   -1    0    0  501    0  0.00000000000E+00  0.00000000000E+00  0.10951358552E+04  0.10951358552E+04  0.00000000000E+00 0. -1.
         -1   -1    0    0    0  501 -0.00000000000E+00 -0.00000000000E+00 -0.73957262915E+03  0.73957262915E+03  0.00000000000E+00 0.  1.
         24    2    1    2    0    0  0.60195053142E+03  0.21996540056E+03 -0.80889145833E+02  0.65079256621E+03  0.79111886557E+02 0.  0.
        254    2    1    2    0    0 -0.60195053142E+03 -0.21996540056E+03  0.43645237184E+03  0.11839159181E+04  0.89467145284E+03 0.  0.
         23    2    4    4    0    0 -0.28003640526E+03  0.33212814066E+03  0.25628920746E+03  0.51292787228E+03  0.93173784982E+02 0.  0.
         23    2    4    4    0    0 -0.32191412616E+03 -0.55209354122E+03  0.18016316438E+03  0.67098804583E+03  0.96593006839E+02 0.  0.
          2    1    3    3  502    0  0.22478567133E+03  0.71494825354E+02 -0.67028572584E+02  0.24522018194E+03  0.00000000000E+00 0. -1.
         -1    1    3    3    0  502  0.37716486009E+03  0.14847057520E+03 -0.13860573249E+02  0.40557238427E+03  0.00000000000E+00 0.  1.
         13    1    5    5    0    0  0.22922791537E+01  0.32539782840E+02  0.20401511195E+02  0.38474844639E+02  0.00000000000E+00 0.  1.
        -13    1    5    5    0    0 -0.28232868442E+03  0.29958835782E+03  0.23588769626E+03  0.47445302764E+03  0.00000000000E+00 0. -1.
          1    1    6    6  503    0 -0.25802479055E+03 -0.36070453591E+03  0.10568508535E+03  0.45590996044E+03  0.00000000000E+00 0. -1.
         -1    1    6    6    0  503 -0.63889335605E+02 -0.19138900531E+03  0.74478079030E+02  0.21507808539E+03  0.00000000000E+00 0.  1.
<mgrwt>
<rscale>  0 0.17999250E+04</rscale>
<asrwt>0</asrwt>
<pdfrwt beam="1">  1        2 0.16848244E+00 0.17999250E+04</pdfrwt>
<pdfrwt beam="2">  1       -1 0.11378040E+00 0.17999250E+04</pdfrwt>
<totfact> 0.16636410E+01</totfact>
</mgrwt>
</event>
<event>
12    7  0.2261477E-007  0.3085709E+04  0.7818608E-02  0.8219671E-01
          2   -1    0    0  501    0  0.00000000000E+00  0.00000000000E+00  0.23830808757E+04  0.23830808757E+04  0.00000000000E+00 0. -1.
         -1   -1    0    0    0  501 -0.00000000000E+00 -0.00000000000E+00 -0.99887489935E+03  0.99887489935E+03  0.00000000000E+00 0.  1.
         24    2    1    2    0    0 -0.13177901259E+04 -0.30095564803E+03  0.20403880317E+03  0.13693125299E+04  0.78992742549E+02 0.  0.
        254    2    1    2    0    0  0.13177901259E+04  0.30095564803E+03  0.11801671732E+04  0.20126432452E+04  0.91147855571E+03 0.  0.
         23    2    4    4    0    0  0.58682531137E+03  0.24046084671E+03  0.25059479121E+02  0.64117652735E+03  0.91071383371E+02 0.  0.
         23    2    4    4    0    0  0.73096481454E+03  0.60494801326E+02  0.11551076941E+04  0.13714667178E+04  0.93155740587E+02 0.  0.
          4    1    3    3  502    0 -0.73762743076E+03 -0.15830089080E+03  0.75440043920E+02  0.75818506901E+03  0.00000000000E+00 0. -1.
         -3    1    3    3    0  502 -0.58016269515E+03 -0.14265475724E+03  0.12859875925E+03  0.61112746092E+03  0.00000000000E+00 0.  1.
         13    1    5    5    0    0  0.54431038779E+02 -0.37695803027E+01 -0.40615875595E+01  0.54712377134E+02  0.00000000000E+00 0. -1.
        -13    1    5    5    0    0  0.53239427259E+03  0.24423042701E+03  0.29121066681E+02  0.58646415022E+03  0.00000000000E+00 0.  1.
          3    1    6    6  503    0  0.24375614020E+03  0.62027921753E+02  0.42022133839E+03  0.48974533402E+03  0.00000000000E+00 0. -1.
         -3    1    6    6    0  503  0.48720867434E+03 -0.15331204271E+01  0.73488635572E+03  0.88172138379E+03  0.00000000000E+00 0.  1.
<mgrwt>
<rscale>  0 0.30857088E+04</rscale>
<asrwt>0</asrwt>
<pdfrwt beam="1">  1        2 0.36662782E+00 0.30857088E+04</pdfrwt>
<pdfrwt beam="2">  1       -1 0.15367306E+00 0.30857088E+04</pdfrwt>
<totfact> 0.12831682E+00</totfact>
</mgrwt>
</event>
<event>
12    7  0.1729738E-007  0.2444727E+04  0.7818608E-02  0.8422946E-01
          2   -1    0    0  501    0  0.00000000000E+00  0.00000000000E+00  0.33939878699E+04  0.33939878699E+04  0.00000000000E+00 0. -1.
         -1   -1    0    0    0  501 -0.00000000000E+00 -0.00000000000E+00 -0.44024108345E+03  0.44024108345E+03  0.00000000000E+00 0.  1.
         24    2    1    2    0    0  0.37730659327E+03 -0.41928060974E+03  0.26761005429E+04  0.27360698493E+04  0.80047542608E+02 0.  0.
        254    2    1    2    0    0 -0.37730659327E+03  0.41928060974E+03  0.27764624353E+03  0.10981591041E+04  0.90039407282E+03 0.  0.
         23    2    4    4    0    0  0.64462970281E+02  0.57255373424E+03  0.16181175902E+03  0.60564795824E+03  0.93022313601E+02 0.  0.
         23    2    4    4    0    0 -0.44176956355E+03 -0.15327312451E+03  0.11583448451E+03  0.49251114587E+03  0.10245293082E+03 0.  0.
          4    1    3    3  502    0  0.35272127200E+03 -0.41344550007E+03  0.25862940636E+04  0.26427762790E+04  0.00000000000E+00 0. -1.
         -3    1    3    3    0  502  0.24585321270E+02 -0.58351096671E+01  0.89806479332E+02  0.93293570287E+02  0.00000000000E+00 0.  1.
         13    1    5    5    0    0  0.61025656324E+02  0.50414111866E+03  0.17250136532E+03  0.53631997845E+03  0.00000000000E+00 0.  1.
        -13    1    5    5    0    0  0.34373139571E+01  0.68412615584E+02 -0.10689606295E+02  0.69327979785E+02  0.00000000000E+00 0. -1.
          2    1    6    6  503    0 -0.67425386119E+02 -0.29610205070E+02 -0.18645882648E+02  0.75964569882E+02  0.00000000000E+00 0.  1.
         -2    1    6    6    0  503 -0.37434417743E+03 -0.12366291944E+03  0.13448036716E+03  0.41654657599E+03  0.00000000000E+00 0. -1.
<mgrwt>
<rscale>  0 0.24447273E+04</rscale>
<asrwt>0</asrwt>
<pdfrwt beam="1">  1        2 0.52215197E+00 0.24447273E+04</pdfrwt>
<pdfrwt beam="2">  1       -1 0.67729399E-01 0.24447273E+04</pdfrwt>
<totfact> 0.21677357E+00</totfact>
</mgrwt>
</event>
<event>
12    7  0.1729738E-007  0.1657569E+04  0.7818608E-02  0.8785941E-01
          2   -1    0    0  501    0  0.00000000000E+00  0.00000000000E+00  0.17231735914E+04  0.17231735914E+04  0.00000000000E+00 0. -1.
         -1   -1    0    0    0  501 -0.00000000000E+00 -0.00000000000E+00 -0.39861550708E+03  0.39861550708E+03  0.00000000000E+00 0.  1.
         24    2    1    2    0    0 -0.21391480256E+03  0.27717269420E+03 -0.12804060353E+03  0.38126387161E+03  0.79896798919E+02 0.  0.
        254    2    1    2    0    0  0.21391480256E+03 -0.27717269420E+03  0.14525986879E+04  0.17405252269E+04  0.89263703277E+03 0.  0.
         23    2    4    4    0    0 -0.11561151064E+03 -0.79890026061E+02  0.13099481601E+04  0.13210954468E+04  0.97880334243E+02 0.  0.
         23    2    4    4    0    0  0.32952631320E+03 -0.19728266813E+03  0.14265052781E+03  0.41942978010E+03  0.89800473889E+02 0.  0.
          2    1    3    3  502    0 -0.59990813764E+02  0.10574764751E+03 -0.89312883797E+01  0.12190664708E+03  0.00000000000E+00 0. -1.
         -1    1    3    3    0  502 -0.15392398880E+03  0.17142504668E+03 -0.11910931515E+03  0.25935722452E+03  0.00000000000E+00 0.  1.
         13    1    5    5    0    0 -0.97119071903E+02 -0.90748428585E+01  0.79898515080E+03  0.80491722438E+03  0.00000000000E+00 0.  1.
        -13    1    5    5    0    0 -0.18492438736E+02 -0.70815183202E+02  0.51096300926E+03  0.51617822241E+03  0.00000000000E+00 0. -1.
          2    1    6    6  503    0  0.10638696227E+03 -0.52656420095E+02  0.88494650686E+02  0.14806143157E+03  0.00000000000E+00 0.  1.
         -2    1    6    6    0  503  0.22313935093E+03 -0.14462624804E+03  0.54155877121E+02  0.27136834853E+03  0.00000000000E+00 0. -1.
<mgrwt>
<rscale>  0 0.16575690E+04</rscale>
<asrwt>0</asrwt>
<pdfrwt beam="1">  1        2 0.26510363E+00 0.16575690E+04</pdfrwt>
<pdfrwt beam="2">  1       -1 0.61325464E-01 0.16575690E+04</pdfrwt>
<totfact> 0.27920721E+01</totfact>
</mgrwt>
</event>
<event>
12    7  0.1729738E-007  0.1934773E+04  0.7818608E-02  0.8637739E-01
          2   -1    0    0  501    0  0.00000000000E+00  0.00000000000E+00  0.15070450963E+04  0.15070450963E+04  0.00000000000E+00 0. -1.
         -1   -1    0    0    0  501 -0.00000000000E+00 -0.00000000000E+00 -0.62097429234E+03  0.62097429234E+03  0.00000000000E+00 0.  1.
         24    2    1    2    0    0 -0.62683365573E+03 -0.39621273489E+03  0.95134716088E+02  0.75199371735E+03  0.80863919562E+02 0.  0.
        254    2    1    2    0    0  0.62683365573E+03  0.39621273489E+03  0.79093608787E+03  0.13760256713E+04  0.84732625931E+03 0.  0.
         23    2    4    4    0    0  0.37463430382E+03  0.60497087960E+02  0.85656848284E+03  0.94140672094E+03  0.92337907534E+02 0.  0.
         23    2    4    4    0    0  0.25219935191E+03  0.33571564693E+03 -0.65632394974E+02  0.43461895036E+03  0.90975337542E+02 0.  0.
          2    1    3    3  502    0 -0.71722508488E+02 -0.19578760057E+02 -0.77337472570E+00  0.74350818272E+02  0.00000000000E+00 0. -1.
         -1    1    3    3    0  502 -0.55511114724E+03 -0.37663397483E+03  0.95908090814E+02  0.67764289908E+03  0.00000000000E+00 0.  1.
         13    1    5    5    0    0  0.15068232106E+03 -0.16455288709E+02  0.28690596850E+03  0.32448570565E+03  0.00000000000E+00 0. -1.
        -13    1    5    5    0    0  0.22395198276E+03  0.76952376669E+02  0.56966251434E+03  0.61692101529E+03  0.00000000000E+00 0.  1.
          1    1    6    6  503    0  0.72470885220E+01  0.55478074303E+02  0.34665619922E+01  0.56056704081E+02  0.00000000000E+00 0. -1.
         -1    1    6    6    0  503  0.24495226338E+03  0.28023757263E+03 -0.69098956967E+02  0.37856224627E+03  0.00000000000E+00 0.  1.
<mgrwt>
<rscale>  0 0.19347726E+04</rscale>
<asrwt>0</asrwt>
<pdfrwt beam="1">  1        2 0.23185309E+00 0.19347726E+04</pdfrwt>
<pdfrwt beam="2">  1       -1 0.95534507E-01 0.19347726E+04</pdfrwt>
<totfact> 0.14152153E+01</totfact>
</mgrwt>
</event>
<event>
12    7  0.1729738E-007  0.1177912E+04  0.7818608E-02  0.9132413E-01
          2   -1    0    0  501    0  0.00000000000E+00  0.00000000000E+00  0.20808176250E+04  0.20808176250E+04  0.00000000000E+00 0. -1.
         -1   -1    0    0    0  501 -0.00000000000E+00 -0.00000000000E+00 -0.16669847481E+03  0.16669847481E+03  0.00000000000E+00 0.  1.
         24    2    1    2    0    0  0.18084776364E+03  0.13979963267E+03  0.42513669031E+03  0.48960522321E+03  0.81989134891E+02 0.  0.
        254    2    1    2    0    0 -0.18084776364E+03 -0.13979963267E+03  0.14889824598E+04  0.17579108766E+04  0.90605299695E+03 0.  0.
         23    2    4    4    0    0  0.88103338077E+02  0.32417761974E+03  0.33957680417E+03  0.48628067376E+03  0.91121679244E+02 0.  0.
         23    2    4    4    0    0 -0.26895110172E+03 -0.46397725240E+03  0.11494056557E+04  0.12716302028E+04  0.91106670955E+02 0.  0.
          2    1    3    3  502    0  0.94414025461E+02  0.41779712194E+02  0.25471653985E+03  0.27484553521E+03  0.00000000000E+00 0. -1.
         -1    1    3    3    0  502  0.86433738183E+02  0.98019920473E+02  0.17042015046E+03  0.21475968800E+03  0.00000000000E+00 0.  1.
         13    1    5    5    0    0  0.24816884073E+02  0.16077640492E+03  0.22214192640E+03  0.27533972757E+03  0.00000000000E+00 0. -1.
        -13    1    5    5    0    0  0.63286454004E+02  0.16340121482E+03  0.11743487777E+03  0.21094094619E+03  0.00000000000E+00 0.  1.
          3    1    6    6  503    0 -0.19299466073E+03 -0.36842080210E+03  0.80247218048E+03  0.90384867479E+03  0.00000000000E+00 0. -1.
         -3    1    6    6    0  503 -0.75956440995E+02 -0.95556450300E+02  0.34693347520E+03  0.36778152800E+03  0.00000000000E+00 0.  1.
<mgrwt>
<rscale>  0 0.11779119E+04</rscale>
<asrwt>0</asrwt>
<pdfrwt beam="1">  1        2 0.32012577E+00 0.11779119E+04</pdfrwt>
<pdfrwt beam="2">  1       -1 0.25645921E-01 0.11779119E+04</pdfrwt>
<totfact> 0.91075932E+01</totfact>
</mgrwt>
</event>
<event>
12    7  0.1729738E-007  0.1630864E+04  0.7818608E-02  0.8801808E-01
         -1   -1    0    0    0  501 -0.00000000000E+00  0.00000000000E+00  0.75824054188E+03  0.75824054188E+03  0.00000000000E+00 0.  1.
          2   -1    0    0  501    0  0.00000000000E+00 -0.00000000000E+00 -0.87693765022E+03  0.87693765022E+03  0.00000000000E+00 0. -1.
         24    2    1    2    0    0 -0.32262992167E+03 -0.37394100771E+03 -0.32315920551E+03  0.59557299771E+03  0.79708091721E+02 0.  0.
        254    2    1    2    0    0  0.32262992167E+03  0.37394100771E+03  0.20446209717E+03  0.10396051944E+04  0.89165703465E+03 0.  0.
         23    2    4    4    0    0  0.31714091960E+03 -0.12880633032E+03 -0.18274501201E+03  0.39830719698E+03  0.89908009307E+02 0.  0.
         23    2    4    4    0    0  0.54890020734E+01  0.50274733803E+03  0.38720710918E+03  0.64129799742E+03  0.92459510349E+02 0.  0.
          4    1    3    3  502    0 -0.30105316660E+03 -0.34846212730E+03 -0.32246790210E+03  0.56217827347E+03  0.00000000000E+00 0. -1.
         -1    1    3    3    0  502 -0.21576755070E+02 -0.25478880409E+02 -0.69130341724E+00  0.33394724234E+02  0.00000000000E+00 0.  1.
         13    1    5    5    0    0  0.33496554647E+02  0.14046322235E+02 -0.19182748863E+02  0.41076711109E+02  0.00000000000E+00 0.  1.
        -13    1    5    5    0    0  0.28364436495E+03 -0.14285265255E+03 -0.16356226315E+03  0.35723048587E+03  0.00000000000E+00 0. -1.
          1    1    6    6  503    0 -0.40668841626E+02  0.28548313095E+03  0.23563914325E+03  0.37239814523E+03  0.00000000000E+00 0. -1.
         -1    1    6    6    0  503  0.46157843699E+02  0.21726420708E+03  0.15156796593E+03  0.26889985219E+03  0.00000000000E+00 0.  1.
<mgrwt>
<rscale>  0 0.16308644E+04</rscale>
<asrwt>0</asrwt>
<pdfrwt beam="1">  1        2 0.13491348E+00 0.16308644E+04</pdfrwt>
<pdfrwt beam="2">  1       -1 0.11665239E+00 0.16308644E+04</pdfrwt>
<totfact> 0.22022251E+01</totfact>
</mgrwt>
</event>
<event>
12    7  0.1729738E-007  0.3820198E+04  0.7818608E-02  0.8041834E-01
         -1   -1    0    0    0  501 -0.00000000000E+00  0.00000000000E+00  0.24236971873E+04  0.24236971873E+04  0.00000000000E+00 0.  1.
          2   -1    0    0  501    0  0.00000000000E+00 -0.00000000000E+00 -0.15053354845E+04  0.15053354845E+04  0.00000000000E+00 0. -1.
         24    2    1    2    0    0 -0.14303298569E+04  0.74816729477E+03 -0.39358362772E+03  0.16634201193E+04  0.80377986370E+02 0.  0.
        254    2    1    2    0    0  0.14303298569E+04 -0.74816729477E+03  0.13119453305E+04  0.22656125525E+04  0.89788745795E+03 0.  0.
         23    2    4    4    0    0  0.12357124149E+04 -0.21286372448E+03  0.10234095477E+04  0.16210847370E+04  0.90843187270E+02 0.  0.
         23    2    4    4    0    0  0.19461744197E+03 -0.53530357029E+03  0.28853578289E+03  0.64452781549E+03  0.87962184217E+02 0.  0.
          2    1    3    3  502    0 -0.69363130721E+03  0.37628658278E+03 -0.23188657407E+03  0.82248852026E+03  0.00000000000E+00 0. -1.
         -1    1    3    3    0  502 -0.73669854968E+03  0.37188071199E+03 -0.16169705366E+03  0.84093159901E+03  0.00000000000E+00 0.  1.
         13    1    5    5    0    0  0.10767537223E+04 -0.16322937698E+03  0.85880368988E+03  0.13869340957E+04  0.00000000000E+00 0. -1.
        -13    1    5    5    0    0  0.15895869260E+03 -0.49634347502E+02  0.16460585778E+03  0.23415064129E+03  0.00000000000E+00 0.  1.
          1    1    6    6  503    0  0.16465180039E+03 -0.50161461084E+03  0.24563702782E+03  0.58229286671E+03  0.00000000000E+00 0. -1.
         -1    1    6    6    0  503  0.29965641581E+02 -0.33688959445E+02  0.42898755061E+02  0.62234948779E+02  0.00000000000E+00 0.  1.
<mgrwt>
<rscale>  0 0.38201976E+04</rscale>
<asrwt>0</asrwt>
<pdfrwt beam="1">  1        2 0.23159007E+00 0.38201976E+04</pdfrwt>
<pdfrwt beam="2">  1       -1 0.37287649E+00 0.38201976E+04</pdfrwt>
<totfact> 0.12550664E-01</totfact>
</mgrwt>
</event>
<event>
12    7  0.1729738E-007  0.2320942E+04  0.7818608E-02  0.8469710E-01
         -1   -1    0    0    0  501 -0.00000000000E+00  0.00000000000E+00  0.47729376899E+03  0.47729376899E+03  0.00000000000E+00 0.  1.
          2   -1    0    0  501    0  0.00000000000E+00 -0.00000000000E+00 -0.28215175433E+04  0.28215175433E+04  0.00000000000E+00 0. -1.
         24    2    1    2    0    0 -0.44456003056E+03  0.87542703310E+03 -0.94504203199E+03  0.13651519018E+04  0.80803227679E+02 0.  0.
        254    2    1    2    0    0  0.44456003056E+03 -0.87542703310E+03 -0.13991817423E+04  0.19336594105E+04  0.90405921092E+03 0.  0.
         23    2    4    4    0    0 -0.23766754531E+03 -0.35885191990E+03 -0.69108096847E+03  0.81924208560E+03  0.91126984576E+02 0.  0.
         23    2    4    4    0    0  0.68222757587E+03 -0.51657511319E+03 -0.70810077381E+03  0.11144173249E+04  0.90746654663E+02 0.  0.
          4    1    3    3  502    0 -0.19428705616E+03  0.40113308877E+03 -0.37470045821E+03  0.58228485167E+03  0.00000000000E+00 0. -1.
         -3    1    3    3    0  502 -0.25027297440E+03  0.47429394432E+03 -0.57034157378E+03  0.78286705009E+03  0.00000000000E+00 0.  1.
         13    1    5    5    0    0 -0.20490977025E+03 -0.26671615771E+03 -0.47455854634E+03  0.58166256252E+03  0.00000000000E+00 0. -1.
        -13    1    5    5    0    0 -0.32757775061E+02 -0.92135762187E+02 -0.21652242213E+03  0.23757952308E+03  0.00000000000E+00 0.  1.
          4    1    6    6  503    0  0.63457856555E+03 -0.45717820884E+03 -0.66688348392E+03  0.10278304586E+04  0.00000000000E+00 0. -1.
         -4    1    6    6    0  503  0.47649010318E+02 -0.59396904358E+02 -0.41217289890E+02  0.86586866310E+02  0.00000000000E+00 0.  1.
<mgrwt>
<rscale>  0 0.23209418E+04</rscale>
<asrwt>0</asrwt>
<pdfrwt beam="1">  1        2 0.43407962E+00 0.23209418E+04</pdfrwt>
<pdfrwt beam="2">  1       -1 0.73429811E-01 0.23209418E+04</pdfrwt>
<totfact> 0.43190976E+00</totfact>
</mgrwt>
</event>
<event>
12    7  0.1729738E-007  0.1211866E+04  0.7818608E-02  0.9102533E-01
          2   -1    0    0  501    0  0.00000000000E+00  0.00000000000E+00  0.13433440075E+04  0.13433440075E+04  0.00000000000E+00 0. -1.
         -1   -1    0    0    0  501 -0.00000000000E+00 -0.00000000000E+00 -0.27331395679E+03  0.27331395679E+03  0.00000000000E+00 0.  1.
         24    2    1    2    0    0  0.11775242812E+02 -0.23679727555E+03  0.39164472147E+03  0.46482377216E+03  0.80398664573E+02 0.  0.
        254    2    1    2    0    0 -0.11775242812E+02  0.23679727555E+03  0.67838532922E+03  0.11518341921E+04  0.90016873150E+03 0.  0.
         23    2    4    4    0    0  0.27537005911E+03  0.43269046325E+03  0.21160921913E+03  0.56232133197E+03  0.91526566236E+02 0.  0.
         23    2    4    4    0    0 -0.28714530192E+03 -0.19589318770E+03  0.46677611009E+03  0.58951286015E+03  0.93909051348E+02 0.  0.
          4    1    3    3  502    0  0.32446411107E+02 -0.22258703877E+03  0.34479154942E+03  0.41167823840E+03  0.00000000000E+00 0. -1.
         -3    1    3    3    0  502 -0.20671168295E+02 -0.14210236779E+02  0.46853172049E+02  0.53145533764E+02  0.00000000000E+00 0.  1.
         13    1    5    5    0    0  0.18300222060E+03  0.35729235685E+03  0.15478911748E+03  0.43024099282E+03  0.00000000000E+00 0.  1.
        -13    1    5    5    0    0  0.92367838512E+02  0.75398106394E+02  0.56820101643E+02  0.13208033915E+03  0.00000000000E+00 0. -1.
          4    1    6    6  503    0 -0.78550635689E+02 -0.10772788817E+02  0.12974686081E+03  0.15205427727E+03  0.00000000000E+00 0. -1.
         -4    1    6    6    0  503 -0.20859466623E+03 -0.18512039888E+03  0.33702924929E+03  0.43745858288E+03  0.00000000000E+00 0.  1.
<mgrwt>
<rscale>  0 0.12118658E+04</rscale>
<asrwt>0</asrwt>
<pdfrwt beam="1">  1        2 0.20666831E+00 0.12118658E+04</pdfrwt>
<pdfrwt beam="2">  1       -1 0.42048302E-01 0.12118658E+04</pdfrwt>
<totfact> 0.97341998E+01</totfact>
</mgrwt>
</event>
<event>
12    7  0.1729738E-007  0.1631094E+04  0.7818608E-02  0.8801670E-01
          2   -1    0    0  501    0  0.00000000000E+00  0.00000000000E+00  0.43172847393E+03  0.43172847393E+03  0.00000000000E+00 0. -1.
         -1   -1    0    0    0  501 -0.00000000000E+00 -0.00000000000E+00 -0.15405900571E+04  0.15405900571E+04  0.00000000000E+00 0.  1.
         24    2    1    2    0    0 -0.32550701029E+03 -0.13097034351E+03  0.14513748733E+03  0.38771276174E+03  0.78410782197E+02 0.  0.
        254    2    1    2    0    0  0.32550701029E+03  0.13097034351E+03 -0.12539990705E+04  0.15846057693E+04  0.90296939630E+03 0.  0.
         23    2    4    4    0    0  0.30600677482E+03 -0.35065636483E+03 -0.68490398262E+03  0.83330256381E+03  0.93271994801E+02 0.  0.
         23    2    4    4    0    0  0.19500235471E+02  0.48162670833E+03 -0.56909508790E+03  0.75130320551E+03  0.90789548768E+02 0.  0.
          2    1    3    3  502    0 -0.32638988079E+03 -0.13415166088E+03  0.13632278341E+03  0.37830004451E+03  0.00000000000E+00 0. -1.
         -1    1    3    3    0  502  0.88287050013E+00  0.31813173729E+01  0.88147039209E+01  0.94127172358E+01  0.00000000000E+00 0.  1.
         13    1    5    5    0    0  0.15722098070E+03 -0.23459133734E+03 -0.45942946921E+03  0.53928375602E+03  0.00000000000E+00 0.  1.
        -13    1    5    5    0    0  0.14878579412E+03 -0.11606502748E+03 -0.22547451341E+03  0.29401880779E+03  0.00000000000E+00 0. -1.
          3    1    6    6  503    0 -0.12178520510E+02  0.31516830852E+02 -0.74511214677E+02  0.81814106983E+02  0.00000000000E+00 0. -1.
         -3    1    6    6    0  503  0.31678755981E+02  0.45010987748E+03 -0.49458387323E+03  0.66948909852E+03  0.00000000000E+00 0.  1.
<mgrwt>
<rscale>  0 0.16310936E+04</rscale>
<asrwt>0</asrwt>
<pdfrwt beam="1">  1        2 0.66419766E-01 0.16310936E+04</pdfrwt>
<pdfrwt beam="2">  1       -1 0.23701385E+00 0.16310936E+04</pdfrwt>
<totfact> 0.67677453E+00</totfact>
</mgrwt>
</event>
<event>
12    7  0.1729738E-007  0.2645500E+04  0.7818608E-02  0.8352908E-01
         -1   -1    0    0    0  501 -0.00000000000E+00  0.00000000000E+00  0.64650330621E+03  0.64650330621E+03  0.00000000000E+00 0.  1.
          2   -1    0    0  501    0  0.00000000000E+00 -0.00000000000E+00 -0.27063545795E+04  0.27063545795E+04  0.00000000000E+00 0. -1.
         24    2    1    2    0    0  0.79754666123E+03  0.84141408234E+03 -0.11020537603E+04  0.16016040690E+04  0.80961524860E+02 0.  0.
        254    2    1    2    0    0 -0.79754666123E+03 -0.84141408234E+03 -0.95779751299E+03  0.17512538167E+04  0.89747173759E+03 0.  0.
         23    2    4    4    0    0 -0.81667539416E+03 -0.26414623052E+03 -0.70633399111E+03  0.11152881454E+04  0.90708377922E+02 0.  0.
         23    2    4    4    0    0  0.19128732930E+02 -0.57726785182E+03 -0.25146352188E+03  0.63596567125E+03  0.87260248734E+02 0.  0.
          2    1    3    3  502    0  0.68703087028E+03  0.68445663267E+03 -0.93544423429E+03  0.13474228045E+04  0.00000000000E+00 0. -1.
         -1    1    3    3    0  502  0.11051579095E+03  0.15695744967E+03 -0.16660952604E+03  0.25418126450E+03  0.00000000000E+00 0.  1.
         13    1    5    5    0    0 -0.10996423675E+03 -0.64885675710E+02 -0.84695368524E+02  0.15321745894E+03  0.00000000000E+00 0. -1.
        -13    1    5    5    0    0 -0.70671115741E+03 -0.19926055481E+03 -0.62163862258E+03  0.96207068649E+03  0.00000000000E+00 0.  1.
          1    1    6    6  503    0  0.16448877670E+02 -0.15272264174E+03 -0.27804913067E+02  0.15610215908E+03  0.00000000000E+00 0. -1.
         -1    1    6    6    0  503  0.26798552593E+01 -0.42454521008E+03 -0.22365860881E+03  0.47986351218E+03  0.00000000000E+00 0.  1.
<mgrwt>
<rscale>  0 0.26454997E+04</rscale>
<asrwt>0</asrwt>
<pdfrwt beam="1">  1        2 0.41636225E+00 0.26454997E+04</pdfrwt>
<pdfrwt beam="2">  1       -1 0.99462046E-01 0.26454997E+04</pdfrwt>
<totfact> 0.25444784E+00</totfact>
</mgrwt>
</event>
<event>
12    7  0.1729738E-007  0.2453087E+04  0.7818608E-02  0.8419892E-01
         -1   -1    0    0    0  501 -0.00000000000E+00  0.00000000000E+00  0.38756107445E+03  0.38756107445E+03  0.00000000000E+00 0.  1.
          2   -1    0    0  501    0  0.00000000000E+00 -0.00000000000E+00 -0.38817339346E+04  0.38817339346E+04  0.00000000000E+00 0. -1.
         24    2    1    2    0    0 -0.49192284963E+03 -0.45604981529E+03 -0.86831518163E+02  0.68101234163E+03  0.79174319617E+02 0.  0.
        254    2    1    2    0    0  0.49192284963E+03  0.45604981529E+03 -0.34073413420E+04  0.35882826675E+04  0.90323195059E+03 0.  0.
         23    2    4    4    0    0 -0.23843443622E+03  0.22518187634E+02 -0.10519059016E+04  0.10827503554E+04  0.92110027573E+02 0.  0.
         23    2    4    4    0    0  0.73035728585E+03  0.43353162765E+03 -0.23554354405E+04  0.25055323121E+04  0.90799865468E+02 0.  0.
          4    1    3    3  502    0 -0.90628750243E+02 -0.53343492736E+02 -0.31669788124E+02  0.10982747410E+03  0.00000000000E+00 0. -1.
         -3    1    3    3    0  502 -0.40129409939E+03 -0.40270632255E+03 -0.55161730039E+02  0.57118486752E+03  0.00000000000E+00 0.  1.
         13    1    5    5    0    0  0.77139150752E+01 -0.26407634091E+01 -0.20078315693E+02  0.21670645542E+02  0.00000000000E+00 0. -1.
        -13    1    5    5    0    0 -0.24614835130E+03  0.25158951043E+02 -0.10318275859E+04  0.10610797098E+04  0.00000000000E+00 0.  1.
          2    1    6    6  503    0  0.63334821287E+02  0.13721990369E+02 -0.21766272728E+03  0.22710494370E+03  0.00000000000E+00 0. -1.
         -2    1    6    6    0  503  0.66702246457E+03  0.41980963728E+03 -0.21377727132E+04  0.22784273684E+04  0.00000000000E+00 0.  1.
<mgrwt>
<rscale>  0 0.24530870E+04</rscale>
<asrwt>0</asrwt>
<pdfrwt beam="1">  1        2 0.59718981E+00 0.24530870E+04</pdfrwt>
<pdfrwt beam="2">  1       -1 0.59624783E-01 0.24530870E+04</pdfrwt>
<totfact> 0.12377886E+00</totfact>
</mgrwt>
</event>
<event>
12    7  0.1729738E-007  0.4618140E+04  0.7818608E-02  0.7890274E-01
          2   -1    0    0  501    0  0.00000000000E+00  0.00000000000E+00  0.14370531835E+04  0.14370531835E+04  0.00000000000E+00 0. -1.
         -1   -1    0    0    0  501 -0.00000000000E+00 -0.00000000000E+00 -0.37102346106E+04  0.37102346106E+04  0.00000000000E+00 0.  1.
         24    2    1    2    0    0 -0.19677010345E+04 -0.46218264739E+03 -0.59380679464E+02  0.20236400456E+04  0.78312247654E+02 0.  0.
        254    2    1    2    0    0  0.19677010345E+04  0.46218264739E+03 -0.22138007476E+04  0.31236477485E+04  0.87795292894E+03 0.  0.
         23    2    4    4    0    0  0.18173208425E+04  0.66200187735E+03 -0.19334787423E+04  0.27364352955E+04  0.94002922021E+02 0.  0.
         23    2    4    4    0    0  0.15038019202E+03 -0.19981922996E+03 -0.28032200532E+03  0.38721245295E+03  0.93867620829E+02 0.  0.
          4    1    3    3  502    0 -0.10638763885E+04 -0.27644783693E+03 -0.30613111292E+01  0.10992114211E+04  0.00000000000E+00 0. -1.
         -1    1    3    3    0  502 -0.90382464601E+03 -0.18573481046E+03 -0.56319368335E+02  0.92442862450E+03  0.00000000000E+00 0.  1.
         13    1    5    5    0    0  0.58960116148E+02  0.37480301658E+02 -0.82891958900E+02  0.10840731137E+03  0.00000000000E+00 0. -1.
        -13    1    5    5    0    0  0.17583607264E+04  0.62452157569E+03 -0.18505867834E+04  0.26280279842E+04  0.00000000000E+00 0.  1.
          2    1    6    6  503    0  0.84869878203E+02 -0.17455919389E+03 -0.22929930953E+03  0.30041967603E+03  0.00000000000E+00 0.  1.
         -2    1    6    6    0  503  0.65510313821E+02 -0.25260036061E+02 -0.51022695792E+02  0.86792776914E+02  0.00000000000E+00 0. -1.
<mgrwt>
<rscale>  0 0.46181401E+04</rscale>
<asrwt>0</asrwt>
<pdfrwt beam="1">  1        2 0.22108511E+00 0.46181401E+04</pdfrwt>
<pdfrwt beam="2">  1       -1 0.57080532E+00 0.46181401E+04</pdfrwt>
<totfact> 0.70058476E-03</totfact>
</mgrwt>
</event>
<event>
12    7  0.1729738E-007  0.3005154E+04  0.7818608E-02  0.8242261E-01
         -1   -1    0    0    0  501 -0.00000000000E+00  0.00000000000E+00  0.69494404850E+03  0.69494404850E+03  0.00000000000E+00 0.  1.
          2   -1    0    0  501    0  0.00000000000E+00 -0.00000000000E+00 -0.32488045334E+04  0.32488045334E+04  0.00000000000E+00 0. -1.
         24    2    1    2    0    0 -0.81744977647E+03  0.25836319808E+03  0.23265960142E+03  0.89182602496E+03  0.79041062037E+02 0.  0.
        254    2    1    2    0    0  0.81744977647E+03 -0.25836319808E+03 -0.27865200863E+04  0.30519225569E+04  0.90253056618E+03 0.  0.
         23    2    4    4    0    0  0.30588435248E+03 -0.55376060354E+03 -0.12617263007E+04  0.14142210085E+04  0.88610155368E+02 0.  0.
         23    2    4    4    0    0  0.51156542398E+03  0.29539740546E+03 -0.15247937856E+04  0.16377015485E+04  0.90063661925E+02 0.  0.
          2    1    3    3  502    0 -0.37715800376E+03  0.78075143770E+02  0.10145915008E+03  0.39829366931E+03  0.00000000000E+00 0. -1.
         -1    1    3    3    0  502 -0.44029177270E+03  0.18028805431E+03  0.13120045135E+03  0.49353235565E+03  0.00000000000E+00 0.  1.
         13    1    5    5    0    0  0.13244240045E+03 -0.32400319161E+03 -0.72954678398E+03  0.80917091373E+03  0.00000000000E+00 0.  1.
        -13    1    5    5    0    0  0.17344195203E+03 -0.22975741193E+03 -0.53217951676E+03  0.60505009472E+03  0.00000000000E+00 0. -1.
          1    1    6    6  503    0  0.20896329117E+03  0.75003915721E+02 -0.61821075308E+03  0.65686816003E+03  0.00000000000E+00 0. -1.
         -1    1    6    6    0  503  0.30260213281E+03  0.22039348974E+03 -0.90658303249E+03  0.98083338845E+03  0.00000000000E+00 0.  1.
<mgrwt>
<rscale>  0 0.30051538E+04</rscale>
<asrwt>0</asrwt>
<pdfrwt beam="1">  1        2 0.49981607E+00 0.30051538E+04</pdfrwt>
<pdfrwt beam="2">  1       -1 0.10691447E+00 0.30051538E+04</pdfrwt>
<totfact> 0.95487456E-01</totfact>
</mgrwt>
</event>
<event>
12    7  0.1729738E-007  0.4170360E+04  0.7818608E-02  0.7971034E-01
          2   -1    0    0  501    0  0.00000000000E+00  0.00000000000E+00  0.29169081397E+04  0.29169081397E+04  0.00000000000E+00 0. -1.
         -1   -1    0    0    0  501 -0.00000000000E+00 -0.00000000000E+00 -0.14906112326E+04  0.14906112326E+04  0.00000000000E+00 0.  1.
         24    2    1    2    0    0  0.87815207396E+02  0.15986333138E+04 -0.53475072931E+03  0.16899612789E+04  0.81674958976E+02 0.  0.
        254    2    1    2    0    0 -0.87815207396E+02 -0.15986333138E+04  0.19610476364E+04  0.27175580934E+04  0.98796466335E+03 0.  0.
         23    2    4    4    0    0  0.65904691758E+01 -0.32273386014E+02  0.68856593459E+03  0.69522753230E+03  0.90184642038E+02 0.  0.
         23    2    4    4    0    0 -0.94405676572E+02 -0.15663599278E+04  0.12724817018E+04  0.20223305611E+04  0.90638632371E+02 0.  0.
          2    1    3    3  502    0  0.24778783199E+01  0.77977043841E+03 -0.26700981686E+03  0.82422225085E+03  0.00000000000E+00 0. -1.
         -1    1    3    3    0  502  0.85337329076E+02  0.81886287543E+03 -0.26774091244E+03  0.86573902805E+03  0.00000000000E+00 0.  1.
         13    1    5    5    0    0 -0.75943548841E+01 -0.57471421086E+02  0.57953778219E+03  0.58242997815E+03  0.00000000000E+00 0. -1.
        -13    1    5    5    0    0  0.14184824060E+02  0.25198035072E+02  0.10902815240E+03  0.11279755415E+03  0.00000000000E+00 0.  1.
          3    1    6    6  503    0 -0.21263781191E+02 -0.89873903002E+03  0.68892724933E+03  0.11326097065E+04  0.00000000000E+00 0. -1.
         -3    1    6    6    0  503 -0.73141895381E+02 -0.66762089780E+03  0.58355445248E+03  0.88972085457E+03  0.00000000000E+00 0.  1.
<mgrwt>
<rscale>  0 0.41703602E+04</rscale>
<asrwt>0</asrwt>
<pdfrwt beam="1">  1        2 0.44875510E+00 0.41703602E+04</pdfrwt>
<pdfrwt beam="2">  1       -1 0.22932481E+00 0.41703602E+04</pdfrwt>
<totfact> 0.16526976E-01</totfact>
</mgrwt>
</event>
<event>
12    7  0.1729738E-007  0.1202893E+04  0.7818608E-02  0.9110328E-01
          2   -1    0    0  501    0  0.00000000000E+00  0.00000000000E+00  0.23749189335E+04  0.23749189335E+04  0.00000000000E+00 0. -1.
         -1   -1    0    0    0  501 -0.00000000000E+00 -0.00000000000E+00 -0.15231599727E+03  0.15231599727E+03  0.00000000000E+00 0.  1.
         24    2    1    2    0    0  0.14165063370E+02 -0.25610519022E+03  0.57877622960E+03  0.63795627567E+03  0.78840143613E+02 0.  0.
        254    2    1    2    0    0 -0.14165063370E+02  0.25610519022E+03  0.16438267066E+04  0.18892786551E+04  0.89521901101E+03 0.  0.
         23    2    4    4    0    0 -0.40526050188E+03  0.32685711875E+02  0.11038905766E+04  0.11798461521E+04  0.90322242450E+02 0.  0.
         23    2    4    4    0    0  0.39109543851E+03  0.22341947834E+03  0.53993613008E+03  0.70943250299E+03  0.94294996709E+02 0.  0.
          2    1    3    3  502    0  0.19720609587E+02 -0.62966110542E+02  0.84175398972E+02  0.10695387469E+03  0.00000000000E+00 0. -1.
         -1    1    3    3    0  502 -0.55555462173E+01 -0.19313907968E+03  0.49460083063E+03  0.53100240098E+03  0.00000000000E+00 0.  1.
         13    1    5    5    0    0 -0.30556588506E+02 -0.55615956783E+01  0.36366363622E+02  0.47824145060E+02  0.00000000000E+00 0. -1.
        -13    1    5    5    0    0 -0.37470391338E+03  0.38247307554E+02  0.10675242129E+04  0.11320220071E+04  0.00000000000E+00 0.  1.
          2    1    6    6  503    0  0.14922558802E+03  0.13000981298E+03  0.19425223191E+03  0.27731706979E+03  0.00000000000E+00 0.  1.
         -2    1    6    6    0  503  0.24186985049E+03  0.93409665358E+02  0.34568389817E+03  0.43211543320E+03  0.00000000000E+00 0. -1.
<mgrwt>
<rscale>  0 0.12028934E+04</rscale>
<asrwt>0</asrwt>
<pdfrwt beam="1">  1        2 0.36537212E+00 0.12028934E+04</pdfrwt>
<pdfrwt beam="2">  1       -1 0.23433232E-01 0.12028934E+04</pdfrwt>
<totfact> 0.72604638E+01</totfact>
</mgrwt>
</event>
<event>
12    7  0.1729738E-007  0.1552612E+04  0.7818608E-02  0.8850201E-01
          4   -1    0    0  501    0  0.00000000000E+00  0.00000000000E+00  0.33130996464E+03  0.33130996464E+03  0.00000000000E+00 0. -1.
         -3   -1    0    0    0  501 -0.00000000000E+00 -0.00000000000E+00 -0.18189944312E+04  0.18189944312E+04  0.00000000000E+00 0.  1.
         24    2    1    2    0    0  0.52398352081E+03 -0.11099727973E+02 -0.55017782971E+03  0.76441344061E+03  0.83368638187E+02 0.  0.
        254    2    1    2    0    0 -0.52398352081E+03  0.11099727973E+02 -0.93750663682E+03  0.13858909552E+04  0.87583851912E+03 0.  0.
         23    2    4    4    0    0 -0.53641595205E+03 -0.31962683786E+03 -0.79315590452E+03  0.10135339137E+04  0.90836755864E+02 0.  0.
         23    2    4    4    0    0  0.12432431237E+02  0.33072656583E+03 -0.14435073230E+03  0.37235704152E+03  0.90983546632E+02 0.  0.
          4    1    3    3  502    0  0.86255443998E+02  0.10650236237E+02 -0.53674691115E+02  0.10214891883E+03  0.00000000000E+00 0. -1.
         -3    1    3    3    0  502  0.43772807681E+03 -0.21749964210E+02 -0.49650313860E+03  0.66226452178E+03  0.00000000000E+00 0.  1.
         13    1    5    5    0    0 -0.24539100543E+01 -0.15926607724E+02 -0.27972656415E+02  0.32282317375E+02  0.00000000000E+00 0.  1.
        -13    1    5    5    0    0 -0.53396204199E+03 -0.30370023014E+03 -0.76518324810E+03  0.98125159631E+03  0.00000000000E+00 0. -1.
          2    1    6    6  503    0  0.28308147905E+02  0.26452616432E+03 -0.14753127593E+03  0.30420539151E+03  0.00000000000E+00 0. -1.
         -2    1    6    6    0  503 -0.15875716669E+02  0.66200401516E+02  0.31805436350E+01  0.68151650005E+02  0.00000000000E+00 0.  1.
<mgrwt>
<rscale>  0 0.15526120E+04</rscale>
<asrwt>0</asrwt>
<pdfrwt beam="1">  1        4 0.50970764E-01 0.15526120E+04</pdfrwt>
<pdfrwt beam="2">  1       -3 0.27984530E+00 0.15526120E+04</pdfrwt>
<totfact> 0.40464679E-01</totfact>
</mgrwt>
</event>
<event>
12    7  0.1729738E-007  0.1656136E+04  0.7818608E-02  0.8786785E-01
         -1   -1    0    0    0  501 -0.00000000000E+00  0.00000000000E+00  0.71203036854E+03  0.71203036854E+03  0.00000000000E+00 0.  1.
          2   -1    0    0  501    0  0.00000000000E+00 -0.00000000000E+00 -0.96301618106E+03  0.96301618106E+03  0.00000000000E+00 0. -1.
         24    2    1    2    0    0 -0.38893128935E+03  0.35313460155E+03  0.16546965550E+03  0.55853838426E+03  0.92808001524E+02 0.  0.
        254    2    1    2    0    0  0.38893128935E+03 -0.35313460155E+03 -0.41645546803E+03  0.11165081653E+04  0.89285146120E+03 0.  0.
         23    2    4    4    0    0  0.66766664786E+03 -0.22234058550E+03 -0.23469884026E+03  0.74685001439E+03  0.86529242215E+02 0.  0.
         23    2    4    4    0    0 -0.27873535850E+03 -0.13079401605E+03 -0.18175662776E+03  0.36965815095E+03  0.93868003665E+02 0.  0.
          4    1    3    3  502    0 -0.13011123182E+03  0.17830008089E+03  0.57866428285E+02  0.22818495791E+03  0.00000000000E+00 0. -1.
         -3    1    3    3    0  502 -0.25882005753E+03  0.17483452065E+03  0.10760322722E+03  0.33035342635E+03  0.00000000000E+00 0.  1.
         13    1    5    5    0    0  0.56286197281E+03 -0.21939460215E+03 -0.19654403918E+03  0.63527722391E+03  0.00000000000E+00 0. -1.
        -13    1    5    5    0    0  0.10480467505E+03 -0.29459833507E+01 -0.38154801081E+02  0.11157279048E+03  0.00000000000E+00 0.  1.
          1    1    6    6  503    0 -0.27011553233E+03 -0.12099818559E+03 -0.14289986276E+03  0.32866903185E+03  0.00000000000E+00 0. -1.
         -1    1    6    6    0  503 -0.86198261724E+01 -0.97958304566E+01 -0.38856765003E+02  0.40989119093E+02  0.00000000000E+00 0.  1.
<mgrwt>
<rscale>  0 0.16561362E+04</rscale>
<asrwt>0</asrwt>
<pdfrwt beam="1">  1        2 0.14815634E+00 0.16561362E+04</pdfrwt>
<pdfrwt beam="2">  1       -1 0.10954313E+00 0.16561362E+04</pdfrwt>
<totfact> 0.22357671E+01</totfact>
</mgrwt>
</event>
<event>
12    7  0.1729738E-007  0.1418754E+04  0.7818608E-02  0.8940354E-01
         -1   -1    0    0    0  501 -0.00000000000E+00  0.00000000000E+00  0.29372240658E+03  0.29372240658E+03  0.00000000000E+00 0.  1.
          2   -1    0    0  501    0  0.00000000000E+00 -0.00000000000E+00 -0.17132351902E+04  0.17132351902E+04  0.00000000000E+00 0. -1.
         24    2    1    2    0    0 -0.31681932139E+03 -0.29532998574E+03 -0.53725752182E+03  0.69484563807E+03  0.81058824996E+02 0.  0.
        254    2    1    2    0    0  0.31681932139E+03  0.29532998574E+03 -0.88225526179E+03  0.13121119587E+04  0.86929233421E+03 0.  0.
         23    2    4    4    0    0  0.27661261619E+03 -0.19934138956E+03 -0.68647307204E+03  0.77143588775E+03  0.87272683291E+02 0.  0.
         23    2    4    4    0    0  0.40206705205E+02  0.49467137530E+03 -0.19578218975E+03  0.54067607095E+03  0.87656141756E+02 0.  0.
          2    1    3    3  502    0 -0.11692688471E+03 -0.11298517502E+03 -0.14213244759E+03  0.21596105853E+03  0.00000000000E+00 0. -1.
         -1    1    3    3    0  502 -0.19989243668E+03 -0.18234481071E+03 -0.39512507423E+03  0.47888457954E+03  0.00000000000E+00 0.  1.
         13    1    5    5    0    0  0.25390202810E+03 -0.18383502364E+03 -0.55769173437E+03  0.63975122226E+03  0.00000000000E+00 0. -1.
        -13    1    5    5    0    0  0.22710588086E+02 -0.15506365924E+02 -0.12878133767E+03  0.13168466550E+03  0.00000000000E+00 0.  1.
          3    1    6    6  503    0  0.37944886026E+02  0.26307871361E+03 -0.14788556330E+03  0.30417160249E+03  0.00000000000E+00 0. -1.
         -3    1    6    6    0  503  0.22618191798E+01  0.23159266169E+03 -0.47896626454E+02  0.23650446845E+03  0.00000000000E+00 0.  1.
<mgrwt>
<rscale>  0 0.14187538E+04</rscale>
<asrwt>0</asrwt>
<pdfrwt beam="1">  1        2 0.26357464E+00 0.14187538E+04</pdfrwt>
<pdfrwt beam="2">  1       -1 0.45188063E-01 0.14187538E+04</pdfrwt>
<totfact> 0.51881667E+01</totfact>
</mgrwt>
</event>
<event>
12    7  0.1729738E-007  0.1830343E+04  0.7818608E-02  0.8690328E-01
         -1   -1    0    0    0  501 -0.00000000000E+00  0.00000000000E+00  0.62443621463E+03  0.62443621463E+03  0.00000000000E+00 0.  1.
          2   -1    0    0  501    0  0.00000000000E+00 -0.00000000000E+00 -0.13412716272E+04  0.13412716272E+04  0.00000000000E+00 0. -1.
         24    2    1    2    0    0 -0.64839548115E+03  0.16258457955E+03 -0.83601836976E+02  0.67835005928E+03  0.79492705959E+02 0.  0.
        254    2    1    2    0    0  0.64839548115E+03 -0.16258457955E+03 -0.63323357562E+03  0.12873577826E+04  0.89969708990E+03 0.  0.
         23    2    4    4    0    0 -0.18704651543E+03 -0.17149976459E+03 -0.23581835041E+03  0.35745443074E+03  0.88118144980E+02 0.  0.
         23    2    4    4    0    0  0.83544199658E+03  0.89151850370E+01 -0.39741522521E+03  0.92990335183E+03  0.93480331362E+02 0.  0.
          2    1    3    3  502    0 -0.79099799802E+02  0.25701998886E+02 -0.36841585750E+02  0.90965232457E+02  0.00000000000E+00 0. -1.
         -1    1    3    3    0  502 -0.56929568134E+03  0.13688258066E+03 -0.46760251227E+02  0.58738482682E+03  0.00000000000E+00 0.  1.
         13    1    5    5    0    0 -0.74299532777E+02 -0.12447834517E+03 -0.10902931952E+03  0.18139093556E+03  0.00000000000E+00 0.  1.
        -13    1    5    5    0    0 -0.11274698265E+03 -0.47021419420E+02 -0.12678903089E+03  0.17606349518E+03  0.00000000000E+00 0. -1.
          3    1    6    6  503    0  0.47603623096E+03 -0.17364326443E+02 -0.18120885330E+03  0.50965543412E+03  0.00000000000E+00 0. -1.
         -3    1    6    6    0  503  0.35940576562E+03  0.26279511480E+02 -0.21620637191E+03  0.42024791771E+03  0.00000000000E+00 0.  1.
<mgrwt>
<rscale>  0 0.18303427E+04</rscale>
<asrwt>0</asrwt>
<pdfrwt beam="1">  1        2 0.20634948E+00 0.18303427E+04</pdfrwt>
<pdfrwt beam="2">  1       -1 0.96067110E-01 0.18303427E+04</pdfrwt>
<totfact> 0.17534606E+01</totfact>
</mgrwt>
</event>
<event>
12    7  0.1729738E-007  0.1340119E+04  0.7818608E-02  0.8998341E-01
         -1   -1    0    0    0  501 -0.00000000000E+00  0.00000000000E+00  0.84972334746E+03  0.84972334746E+03  0.00000000000E+00 0.  1.
          2   -1    0    0  501    0  0.00000000000E+00 -0.00000000000E+00 -0.52838376858E+03  0.52838376858E+03  0.00000000000E+00 0. -1.
         24    2    1    2    0    0 -0.34256579601E+03  0.73170676796E+02  0.19794392360E+03  0.41024088233E+03  0.80065673701E+02 0.  0.
        254    2    1    2    0    0  0.34256579601E+03 -0.73170676796E+02  0.12339565528E+03  0.96786623371E+03  0.89377474013E+03 0.  0.
         23    2    4    4    0    0 -0.11336981661E+03 -0.36959925129E+03  0.12569241210E+03  0.41682188408E+03  0.92117200995E+02 0.  0.
         23    2    4    4    0    0  0.45593561262E+03  0.29642857449E+03 -0.22967568251E+01  0.55104434963E+03  0.88867415516E+02 0.  0.
          4    1    3    3  502    0 -0.51879752714E+01  0.10270110936E+02  0.21413928457E+02  0.24309393206E+02  0.00000000000E+00 0. -1.
         -3    1    3    3    0  502 -0.33737782074E+03  0.62900565860E+02  0.17652999514E+03  0.38593148912E+03  0.00000000000E+00 0.  1.
         13    1    5    5    0    0 -0.34593928685E+02 -0.22459183513E+02  0.17219309207E+02  0.44695183582E+02  0.00000000000E+00 0.  1.
        -13    1    5    5    0    0 -0.78775887926E+02 -0.34714006777E+03  0.10847310290E+03  0.37212670050E+03  0.00000000000E+00 0. -1.
          2    1    6    6  503    0  0.25717469660E+03  0.18152094818E+03  0.40901859333E+02  0.31742974230E+03  0.00000000000E+00 0. -1.
         -2    1    6    6    0  503  0.19876091602E+03  0.11490762631E+03 -0.43198616158E+02  0.23361460734E+03  0.00000000000E+00 0.  1.
<mgrwt>
<rscale>  0 0.13401194E+04</rscale>
<asrwt>0</asrwt>
<pdfrwt beam="1">  1        2 0.81289810E-01 0.13401194E+04</pdfrwt>
<pdfrwt beam="2">  1       -1 0.13072667E+00 0.13401194E+04</pdfrwt>
<totfact> 0.32264801E+01</totfact>
</mgrwt>
</event>
<event>
12    7  0.1729738E-007  0.1791628E+04  0.7818608E-02  0.8710764E-01
         -1   -1    0    0    0  501 -0.00000000000E+00  0.00000000000E+00  0.79303027132E+03  0.79303027132E+03  0.00000000000E+00 0.  1.
          2   -1    0    0  501    0  0.00000000000E+00 -0.00000000000E+00 -0.10119196443E+04  0.10119196443E+04  0.00000000000E+00 0. -1.
         24    2    1    2    0    0  0.54630332641E+03  0.27139147684E+03 -0.31978456085E+03  0.69395200601E+03  0.84891478567E+02 0.  0.
        254    2    1    2    0    0 -0.54630332641E+03 -0.27139147684E+03  0.10089518785E+03  0.11109979096E+04  0.92305788449E+03 0.  0.
         23    2    4    4    0    0 -0.78349414252E+03 -0.10439182456E+03  0.17598567486E+02  0.79584176691E+03  0.91069665555E+02 0.  0.
         23    2    4    4    0    0  0.23719081611E+03 -0.16699965229E+03  0.83296620365E+02  0.31515614272E+03  0.90756268216E+02 0.  0.
          2    1    3    3  502    0  0.24738328787E+03  0.12620117479E+03 -0.98330534793E+02  0.29460842097E+03  0.00000000000E+00 0. -1.
         -1    1    3    3    0  502  0.29892003854E+03  0.14519030206E+03 -0.22145402605E+03  0.39934358503E+03  0.00000000000E+00 0.  1.
         13    1    5    5    0    0 -0.64584434886E+03 -0.65399786353E+02 -0.14125230407E+02  0.64930083716E+03  0.00000000000E+00 0.  1.
        -13    1    5    5    0    0 -0.13764979366E+03 -0.38992038204E+02  0.31723797892E+02  0.14654092975E+03  0.00000000000E+00 0. -1.
          1    1    6    6  503    0  0.10829731807E+03 -0.29244367644E+02  0.94829394445E+01  0.11257649968E+03  0.00000000000E+00 0. -1.
         -1    1    6    6    0  503  0.12889349804E+03 -0.13775528464E+03  0.73813680921E+02  0.20257964305E+03  0.00000000000E+00 0.  1.
<mgrwt>
<rscale>  0 0.17916282E+04</rscale>
<asrwt>0</asrwt>
<pdfrwt beam="1">  1        2 0.15567994E+00 0.17916282E+04</pdfrwt>
<pdfrwt beam="2">  1       -1 0.12200466E+00 0.17916282E+04</pdfrwt>
<totfact> 0.15854672E+01</totfact>
</mgrwt>
</event>
<event>
12    7  0.1729738E-007  0.2287540E+04  0.7818608E-02  0.8482850E-01
         -1   -1    0    0    0  501 -0.00000000000E+00  0.00000000000E+00  0.60382072309E+03  0.60382072309E+03  0.00000000000E+00 0.  1.
          2   -1    0    0  501    0  0.00000000000E+00 -0.00000000000E+00 -0.21665536282E+04  0.21665536282E+04  0.00000000000E+00 0. -1.
         24    2    1    2    0    0  0.55784417493E+03  0.43034991343E+03  0.13637838196E+03  0.72211890725E+03  0.80408218810E+02 0.  0.
        254    2    1    2    0    0 -0.55784417493E+03 -0.43034991343E+03 -0.16991112871E+04  0.20482554441E+04  0.90109934341E+03 0.  0.
         23    2    4    4    0    0 -0.15404766212E+03  0.12870816443E+03 -0.83296744189E+01  0.22014798036E+03  0.89995977587E+02 0.  0.
         23    2    4    4    0    0 -0.40379651280E+03 -0.55905807787E+03 -0.16907816127E+04  0.18281074637E+04  0.87389237858E+02 0.  0.
          4    1    3    3  502    0  0.42630232279E+02  0.50223071957E+02  0.32580728367E+02  0.73492839936E+02  0.00000000000E+00 0. -1.
         -3    1    3    3    0  502  0.51521394265E+03  0.38012684147E+03  0.10379765359E+03  0.64862606731E+03  0.00000000000E+00 0.  1.
         13    1    5    5    0    0 -0.15635189679E+03  0.12693092512E+03  0.99537244826E+01  0.20163445146E+03  0.00000000000E+00 0. -1.
        -13    1    5    5    0    0  0.23042346699E+01  0.17772393129E+01 -0.18283398902E+02  0.18513528901E+02  0.00000000000E+00 0.  1.
          1    1    6    6  503    0 -0.37220154475E+03 -0.46605101881E+03 -0.14270158680E+04  0.15466453471E+04  0.00000000000E+00 0. -1.
         -1    1    6    6    0  503 -0.31594968051E+02 -0.93007059055E+02 -0.26376574471E+03  0.28146211667E+03  0.00000000000E+00 0.  1.
<mgrwt>
<rscale>  0 0.22875401E+04</rscale>
<asrwt>0</asrwt>
<pdfrwt beam="1">  1        2 0.33331593E+00 0.22875401E+04</pdfrwt>
<pdfrwt beam="2">  1       -1 0.92895498E-01 0.22875401E+04</pdfrwt>
<totfact> 0.62692184E+00</totfact>
</mgrwt>
</event>
<event>
12    7  0.1729738E-007  0.1813652E+04  0.7818608E-02  0.8699073E-01
          2   -1    0    0  501    0  0.00000000000E+00  0.00000000000E+00  0.13021683987E+04  0.13021683987E+04  0.00000000000E+00 0. -1.
         -1   -1    0    0    0  501 -0.00000000000E+00 -0.00000000000E+00 -0.63151059141E+03  0.63151059141E+03  0.00000000000E+00 0.  1.
         24    2    1    2    0    0  0.16218495245E+03 -0.24835664012E+03  0.90409758031E+03  0.95478249505E+03  0.78944275435E+02 0.  0.
        254    2    1    2    0    0 -0.16218495245E+03  0.24835664012E+03 -0.23343977298E+03  0.97889649510E+03  0.90319391108E+03 0.  0.
         23    2    4    4    0    0 -0.79466393853E+02 -0.32079046952E+03 -0.19819755431E+03  0.39564730801E+03  0.89627499774E+02 0.  0.
         23    2    4    4    0    0 -0.82718558601E+02  0.56914710964E+03 -0.35242218674E+02  0.58324918709E+03  0.90370392901E+02 0.  0.
          4    1    3    3  502    0  0.16206393231E+03 -0.22838002185E+03  0.77281220542E+03  0.82198592286E+03  0.00000000000E+00 0. -1.
         -3    1    3    3    0  502  0.12102014656E+00 -0.19976618274E+02  0.13128537490E+03  0.13279657219E+03  0.00000000000E+00 0.  1.
         13    1    5    5    0    0 -0.88562874519E+02 -0.27041745220E+03 -0.13684693483E+03  0.31574683652E+03  0.00000000000E+00 0.  1.
        -13    1    5    5    0    0  0.90964806662E+01 -0.50373017316E+02 -0.61350619483E+02  0.79900471494E+02  0.00000000000E+00 0. -1.
          3    1    6    6  503    0 -0.68648834576E+02  0.20443172725E+03 -0.33645342460E+02  0.21825902653E+03  0.00000000000E+00 0. -1.
         -3    1    6    6    0  503 -0.14069724024E+02  0.36471538239E+03 -0.15968762137E+01  0.36499016056E+03  0.00000000000E+00 0.  1.
<mgrwt>
<rscale>  0 0.18136517E+04</rscale>
<asrwt>0</asrwt>
<pdfrwt beam="1">  1        2 0.20033360E+00 0.18136517E+04</pdfrwt>
<pdfrwt beam="2">  1       -1 0.97155476E-01 0.18136517E+04</pdfrwt>
<totfact> 0.18038037E+01</totfact>
</mgrwt>
</event>
<event>
12    7  0.1729738E-007  0.1662733E+04  0.7818608E-02  0.8782909E-01
         -1   -1    0    0    0  501 -0.00000000000E+00  0.00000000000E+00  0.39558513463E+03  0.39558513463E+03  0.00000000000E+00 0.  1.
          2   -1    0    0  501    0  0.00000000000E+00 -0.00000000000E+00 -0.17472105238E+04  0.17472105238E+04  0.00000000000E+00 0. -1.
         24    2    1    2    0    0 -0.83244342133E+02  0.54544900034E+03 -0.20459083673E+03  0.59397230477E+03  0.80631606019E+02 0.  0.
        254    2    1    2    0    0  0.83244342133E+02 -0.54544900034E+03 -0.11470345524E+04  0.15488233537E+04  0.88245185925E+03 0.  0.
         23    2    4    4    0    0 -0.18007334446E+02  0.10769579909E+03  0.70124321388E+02  0.16076939901E+03  0.94903793258E+02 0.  0.
         23    2    4    4    0    0  0.10125167658E+03 -0.65314479942E+03 -0.12171588738E+04  0.13880539547E+04  0.91476914290E+02 0.  0.
          4    1    3    3  502    0  0.11567475816E+02  0.21274500657E+02 -0.15372642015E+02  0.28683252909E+02  0.00000000000E+00 0. -1.
         -3    1    3    3    0  502 -0.94811817949E+02  0.52417449968E+03 -0.18921819472E+03  0.56528905186E+03  0.00000000000E+00 0.  1.
         13    1    5    5    0    0 -0.55306219511E+02  0.64801258081E+02  0.56778424341E+02  0.10238051785E+03  0.00000000000E+00 0. -1.
        -13    1    5    5    0    0  0.37298885065E+02  0.42894541005E+02  0.13345897047E+02  0.58388881160E+02  0.00000000000E+00 0.  1.
          3    1    6    6  503    0  0.10947745211E+03 -0.42270052007E+03 -0.79976419873E+03  0.91119910873E+03  0.00000000000E+00 0. -1.
         -3    1    6    6    0  503 -0.82257755317E+01 -0.23044427936E+03 -0.41739467511E+03  0.47685484592E+03  0.00000000000E+00 0.  1.
<mgrwt>
<rscale>  0 0.16627333E+04</rscale>
<asrwt>0</asrwt>
<pdfrwt beam="1">  1        2 0.26880162E+00 0.16627333E+04</pdfrwt>
<pdfrwt beam="2">  1       -1 0.60859251E-01 0.16627333E+04</pdfrwt>
<totfact> 0.27477552E+01</totfact>
</mgrwt>
</event>
<event>
12    7  0.1729738E-007  0.1828745E+04  0.7818608E-02  0.8691161E-01
          2   -1    0    0  501    0  0.00000000000E+00  0.00000000000E+00  0.16444994030E+04  0.16444994030E+04  0.00000000000E+00 0. -1.
         -1   -1    0    0    0  501 -0.00000000000E+00 -0.00000000000E+00 -0.50840798515E+03  0.50840798515E+03  0.00000000000E+00 0.  1.
         24    2    1    2    0    0 -0.58081526815E+03  0.20490650447E+02  0.87219643587E+03  0.10510229177E+04  0.78462146095E+02 0.  0.
        254    2    1    2    0    0  0.58081526815E+03 -0.20490650447E+02  0.26389498194E+03  0.11018844704E+04  0.89818850032E+03 0.  0.
         23    2    4    4    0    0  0.69526478652E+03  0.21997887927E+03  0.30643595384E+02  0.73556282316E+03  0.91267771827E+02 0.  0.
         23    2    4    4    0    0 -0.11444951837E+03 -0.24046952972E+03  0.23325138655E+03  0.36632164722E+03  0.94133165855E+02 0.  0.
          4    1    3    3  502    0 -0.39560791208E+03  0.60759337324E+01  0.65495019217E+03  0.76518121468E+03  0.00000000000E+00 0. -1.
         -3    1    3    3    0  502 -0.18520735607E+03  0.14414716714E+02  0.21724624370E+03  0.28584170305E+03  0.00000000000E+00 0.  1.
         13    1    5    5    0    0 -0.19303744917E-02 -0.36350343281E+01  0.29749463779E+01  0.46972102619E+01  0.00000000000E+00 0.  1.
        -13    1    5    5    0    0  0.69526671690E+03  0.22361391360E+03  0.27668649006E+02  0.73086561290E+03  0.00000000000E+00 0. -1.
          2    1    6    6  503    0 -0.10040065839E+03 -0.20340077178E+03  0.14404200594E+03  0.26870107116E+03  0.00000000000E+00 0.  1.
         -2    1    6    6    0  503 -0.14048859985E+02 -0.37068757942E+02  0.89209380610E+02  0.97620576064E+02  0.00000000000E+00 0. -1.
<mgrwt>
<rscale>  0 0.18287445E+04</rscale>
<asrwt>0</asrwt>
<pdfrwt beam="1">  1        2 0.25299991E+00 0.18287445E+04</pdfrwt>
<pdfrwt beam="2">  1       -1 0.78216614E-01 0.18287445E+04</pdfrwt>
<totfact> 0.18491084E+01</totfact>
</mgrwt>
</event>
<event>
12    7  0.1729738E-007  0.2053059E+04  0.7818608E-02  0.8582208E-01
         -1   -1    0    0    0  501 -0.00000000000E+00  0.00000000000E+00  0.83675788001E+03  0.83675788001E+03  0.00000000000E+00 0.  1.
          2   -1    0    0  501    0  0.00000000000E+00 -0.00000000000E+00 -0.12593396946E+04  0.12593396946E+04  0.00000000000E+00 0. -1.
         24    2    1    2    0    0 -0.49917849445E+03  0.64168631450E+03 -0.23204776620E+02  0.81724854231E+03  0.80101327766E+02 0.  0.
        254    2    1    2    0    0  0.49917849445E+03 -0.64168631450E+03 -0.39937703796E+03  0.12788490323E+04  0.90278033507E+03 0.  0.
         23    2    4    4    0    0 -0.22724662498E+03 -0.29611029585E+03 -0.16866961827E+02  0.38339543695E+03  0.85937365566E+02 0.  0.
         23    2    4    4    0    0  0.72642511944E+03 -0.34557601865E+03 -0.38251007613E+03  0.89545359534E+03  0.91689389989E+02 0.  0.
          2    1    3    3  502    0 -0.15900689762E+03  0.21407702560E+03 -0.44819579266E+02  0.27040887757E+03  0.00000000000E+00 0. -1.
         -1    1    3    3    0  502 -0.34017159683E+03  0.42760928890E+03  0.21614802646E+02  0.54683966474E+03  0.00000000000E+00 0.  1.
         13    1    5    5    0    0 -0.89906700422E+02 -0.17857028586E+03 -0.29927403794E+02  0.20215392964E+03  0.00000000000E+00 0. -1.
        -13    1    5    5    0    0 -0.13733992456E+03 -0.11754000999E+03  0.13060441967E+02  0.18124150731E+03  0.00000000000E+00 0.  1.
          4    1    6    6  503    0  0.21632678070E+03 -0.97668528578E+02 -0.67836161690E+02  0.24685656231E+03  0.00000000000E+00 0. -1.
         -4    1    6    6    0  503  0.51009833874E+03 -0.24790749008E+03 -0.31467391444E+03  0.64859703303E+03  0.00000000000E+00 0.  1.
<mgrwt>
<rscale>  0 0.20530586E+04</rscale>
<asrwt>0</asrwt>
<pdfrwt beam="1">  1        2 0.19374457E+00 0.20530586E+04</pdfrwt>
<pdfrwt beam="2">  1       -1 0.12873198E+00 0.20530586E+04</pdfrwt>
<totfact> 0.95750250E+00</totfact>
</mgrwt>
</event>
<event>
12    7  0.1729738E-007  0.1622690E+04  0.7818608E-02  0.8806729E-01
         -3   -1    0    0    0  501 -0.00000000000E+00  0.00000000000E+00  0.93084680912E+03  0.93084680912E+03  0.00000000000E+00 0.  1.
          2   -1    0    0  501    0  0.00000000000E+00 -0.00000000000E+00 -0.70718480783E+03  0.70718480783E+03  0.00000000000E+00 0. -1.
         24    2    1    2    0    0 -0.26079571035E+02  0.41097939287E+03 -0.30371543048E+03  0.51783223314E+03  0.79517001839E+02 0.  0.
        254    2    1    2    0    0  0.26079571035E+02 -0.41097939287E+03  0.52737743177E+03  0.11201993838E+04  0.89840720086E+03 0.  0.
         23    2    4    4    0    0 -0.21252990848E+03 -0.37821673094E+03 -0.89204515760E+02  0.45231430203E+03  0.91727447525E+02 0.  0.
         23    2    4    4    0    0  0.23860947952E+03 -0.32762661931E+02  0.61658194753E+03  0.66788508178E+03  0.88821780580E+02 0.  0.
          4    1    3    3  502    0 -0.18430571067E+01  0.37191305821E+03 -0.28331128488E+03  0.46753396012E+03  0.00000000000E+00 0. -1.
         -3    1    3    3    0  502 -0.24236513929E+02  0.39066334660E+02 -0.20404145593E+02  0.50298273018E+02  0.00000000000E+00 0.  1.
         13    1    5    5    0    0 -0.33282069814E+02 -0.14671094254E+03 -0.36789778928E+02  0.15487183303E+03  0.00000000000E+00 0. -1.
        -13    1    5    5    0    0 -0.17924783867E+03 -0.23150578839E+03 -0.52414736832E+02  0.29744246900E+03  0.00000000000E+00 0.  1.
          2    1    6    6  503    0  0.13981403917E+03 -0.62942793874E+02  0.36053374207E+03  0.39178353720E+03  0.00000000000E+00 0.  1.
         -2    1    6    6    0  503  0.98795440349E+02  0.30180131944E+02  0.25604820546E+03  0.27610154457E+03  0.00000000000E+00 0. -1.
<mgrwt>
<rscale>  0 0.16226900E+04</rscale>
<asrwt>0</asrwt>
<pdfrwt beam="1">  1        2 0.10879766E+00 0.16226900E+04</pdfrwt>
<pdfrwt beam="2">  1       -3 0.14320720E+00 0.16226900E+04</pdfrwt>
<totfact> 0.88619139E+00</totfact>
</mgrwt>
</event>
<event>
12    7  0.1729738E-007  0.1265247E+04  0.7818608E-02  0.9057588E-01
         -1   -1    0    0    0  501 -0.00000000000E+00  0.00000000000E+00  0.31880627435E+03  0.31880627435E+03  0.00000000000E+00 0.  1.
          2   -1    0    0  501    0  0.00000000000E+00 -0.00000000000E+00 -0.12553476265E+04  0.12553476265E+04  0.00000000000E+00 0. -1.
         24    2    1    2    0    0 -0.30468053011E+03 -0.72257787462E+02 -0.17887706670E+03  0.36927278001E+03  0.79460479414E+02 0.  0.
        254    2    1    2    0    0  0.30468053011E+03  0.72257787462E+02 -0.75766428549E+03  0.12048811209E+04  0.88296768495E+03 0.  0.
         23    2    4    4    0    0  0.31171201753E+03 -0.36679858032E+03 -0.39766658975E+03  0.63116547440E+03  0.92333954070E+02 0.  0.
         23    2    4    4    0    0 -0.70314874144E+01  0.43905636778E+03 -0.35999769574E+03  0.57371564648E+03  0.82044903391E+02 0.  0.
          2    1    3    3  502    0 -0.16811444298E+03 -0.38403187011E+02 -0.14312237752E+03  0.22410106126E+03  0.00000000000E+00 0. -1.
         -1    1    3    3    0  502 -0.13656608713E+03 -0.33854600451E+02 -0.35754689171E+02  0.14517171875E+03  0.00000000000E+00 0.  1.
         13    1    5    5    0    0  0.20514964883E+03 -0.28888232379E+03 -0.25331947069E+03  0.43555726334E+03  0.00000000000E+00 0. -1.
        -13    1    5    5    0    0  0.10656236870E+03 -0.77916256528E+02 -0.14434711907E+03  0.19560821107E+03  0.00000000000E+00 0.  1.
          3    1    6    6  503    0  0.22027176930E+02  0.10093462515E+03 -0.11839225498E+03  0.15712963157E+03  0.00000000000E+00 0. -1.
         -3    1    6    6    0  503 -0.29058664345E+02  0.33812174263E+03 -0.24160544076E+03  0.41658601491E+03  0.00000000000E+00 0.  1.
<mgrwt>
<rscale>  0 0.12652473E+04</rscale>
<asrwt>0</asrwt>
<pdfrwt beam="1">  1        2 0.19313041E+00 0.12652473E+04</pdfrwt>
<pdfrwt beam="2">  1       -1 0.49047118E-01 0.12652473E+04</pdfrwt>
<totfact> 0.81858751E+01</totfact>
</mgrwt>
</event>
<event>
12    7  0.1729738E-007  0.1509726E+04  0.7818608E-02  0.8878011E-01
         -1   -1    0    0    0  501 -0.00000000000E+00  0.00000000000E+00  0.53951441216E+03  0.53951441216E+03  0.00000000000E+00 0.  1.
          2   -1    0    0  501    0  0.00000000000E+00 -0.00000000000E+00 -0.10561689429E+04  0.10561689429E+04  0.00000000000E+00 0. -1.
         24    2    1    2    0    0 -0.98628062592E+02 -0.33536770400E+03  0.18425987927E+03  0.40090443394E+03  0.67628917073E+02 0.  0.
        254    2    1    2    0    0  0.98628062592E+02  0.33536770400E+03 -0.70091441006E+03  0.11947789212E+04  0.90222872301E+03 0.  0.
         23    2    4    4    0    0 -0.11107684991E+03  0.12928117525E+03  0.17877080893E+03  0.26288946955E+03  0.90001012277E+02 0.  0.
         23    2    4    4    0    0  0.20970491250E+03  0.20608652875E+03 -0.87968521899E+03  0.93188945162E+03  0.90133555752E+02 0.  0.
          2    1    3    3  502    0 -0.26860309094E+02 -0.25712396582E+02  0.10448102852E+02  0.38623391822E+02  0.00000000000E+00 0. -1.
         -1    1    3    3    0  502 -0.71767753498E+02 -0.30965530742E+03  0.17381177641E+03  0.36228104211E+03  0.00000000000E+00 0.  1.
         13    1    5    5    0    0 -0.66299000810E+02  0.45275621640E+02  0.13730966995E+03  0.15905780360E+03  0.00000000000E+00 0.  1.
        -13    1    5    5    0    0 -0.44777849103E+02  0.84005553612E+02  0.41461138982E+02  0.10383166595E+03  0.00000000000E+00 0. -1.
          3    1    6    6  503    0  0.31331917911E+01 -0.88066741848E+01 -0.22940577162E+02  0.24771848569E+02  0.00000000000E+00 0. -1.
         -3    1    6    6    0  503  0.20657172071E+03  0.21489320293E+03 -0.85674464183E+03  0.90711760305E+03  0.00000000000E+00 0.  1.
<mgrwt>
<rscale>  0 0.15097263E+04</rscale>
<asrwt>0</asrwt>
<pdfrwt beam="1">  1        2 0.16248753E+00 0.15097263E+04</pdfrwt>
<pdfrwt beam="2">  1       -1 0.83002217E-01 0.15097263E+04</pdfrwt>
<totfact> 0.36837601E+01</totfact>
</mgrwt>
</event>
<event>
12    7  0.1729738E-007  0.1863005E+04  0.7818608E-02  0.8673494E-01
         -1   -1    0    0    0  501 -0.00000000000E+00  0.00000000000E+00  0.55828968650E+03  0.55828968650E+03  0.00000000000E+00 0.  1.
          2   -1    0    0  501    0  0.00000000000E+00 -0.00000000000E+00 -0.15542053292E+04  0.15542053292E+04  0.00000000000E+00 0. -1.
         24    2    1    2    0    0 -0.40638012429E+03  0.28927578400E+03 -0.86704013981E+03  0.10035341867E+04  0.80603815831E+02 0.  0.
        254    2    1    2    0    0  0.40638012429E+03 -0.28927578400E+03 -0.12887550291E+03  0.11089608291E+04  0.98201829948E+03 0.  0.
         23    2    4    4    0    0  0.15680941080E+02 -0.50856474698E+03  0.19325519567E+03  0.55056398042E+03  0.83000795809E+02 0.  0.
         23    2    4    4    0    0  0.39069918321E+03  0.21928896298E+03 -0.32213069858E+03  0.55839684864E+03  0.85471355135E+02 0.  0.
          2    1    3    3  502    0 -0.28414777855E+03  0.17240750660E+03 -0.51424008748E+03  0.61229664049E+03  0.00000000000E+00 0. -1.
         -1    1    3    3    0  502 -0.12223234575E+03  0.11686827740E+03 -0.35280005233E+03  0.39123754617E+03  0.00000000000E+00 0.  1.
         13    1    5    5    0    0  0.14452564906E+02 -0.21485950476E+03  0.39123732910E+02  0.21887016676E+03  0.00000000000E+00 0. -1.
        -13    1    5    5    0    0  0.12283761738E+01 -0.29370524222E+03  0.15413146276E+03  0.33169381367E+03  0.00000000000E+00 0.  1.
          3    1    6    6  503    0  0.35998546117E+03  0.22534790601E+03 -0.30299448236E+03  0.52170572868E+03  0.00000000000E+00 0. -1.
         -3    1    6    6    0  503  0.30713722040E+02 -0.60589430285E+01 -0.19136216223E+02  0.36691119955E+02  0.00000000000E+00 0.  1.
<mgrwt>
<rscale>  0 0.18630049E+04</rscale>
<asrwt>0</asrwt>
<pdfrwt beam="1">  1        2 0.23910851E+00 0.18630049E+04</pdfrwt>
<pdfrwt beam="2">  1       -1 0.85890721E-01 0.18630049E+04</pdfrwt>
<totfact> 0.16946719E+01</totfact>
</mgrwt>
</event>
<event>
12    7  0.1729738E-007  0.1729522E+04  0.7818608E-02  0.8744703E-01
         -1   -1    0    0    0  501 -0.00000000000E+00  0.00000000000E+00  0.67666936396E+03  0.67666936396E+03  0.00000000000E+00 0.  1.
          2   -1    0    0  501    0  0.00000000000E+00 -0.00000000000E+00 -0.11051364312E+04  0.11051364312E+04  0.00000000000E+00 0. -1.
         24    2    1    2    0    0 -0.27210718582E+03 -0.40793615747E+03 -0.55238686672E+03  0.74299313716E+03  0.80332572415E+02 0.  0.
        254    2    1    2    0    0  0.27210718582E+03  0.40793615747E+03  0.12391979951E+03  0.10388126580E+04  0.90737059270E+03 0.  0.
         23    2    4    4    0    0  0.32263082005E+03  0.33623579082E+03 -0.32270149947E+03  0.57599433679E+03  0.10241125516E+03 0.  0.
         23    2    4    4    0    0 -0.50523634229E+02  0.71700366653E+02  0.44662129898E+03  0.46281832117E+03  0.83884644119E+02 0.  0.
          4    1    3    3  502    0 -0.23806237105E+03 -0.39055792678E+03 -0.49427079901E+03  0.67343359690E+03  0.00000000000E+00 0. -1.
         -3    1    3    3    0  502 -0.34044814771E+02 -0.17378230692E+02 -0.58116067707E+02  0.69559540255E+02  0.00000000000E+00 0.  1.
         13    1    5    5    0    0  0.17481685093E+03  0.21182332617E+03 -0.13271950554E+03  0.30503199837E+03  0.00000000000E+00 0. -1.
        -13    1    5    5    0    0  0.14781396912E+03  0.12441246465E+03 -0.18998199393E+03  0.27096233842E+03  0.00000000000E+00 0.  1.
          3    1    6    6  503    0 -0.23606142662E+02  0.60925375578E+02  0.41420725194E+03  0.41932898650E+03  0.00000000000E+00 0. -1.
         -3    1    6    6    0  503 -0.26917491567E+02  0.10774991075E+02  0.32414047044E+02  0.43489334677E+02  0.00000000000E+00 0.  1.
<mgrwt>
<rscale>  0 0.17295224E+04</rscale>
<asrwt>0</asrwt>
<pdfrwt beam="1">  1        2 0.17002099E+00 0.17295224E+04</pdfrwt>
<pdfrwt beam="2">  1       -1 0.10410298E+00 0.17295224E+04</pdfrwt>
<totfact> 0.20342938E+01</totfact>
</mgrwt>
</event>
<event>
12    7  0.1729738E-007  0.2119686E+04  0.7818608E-02  0.8552621E-01
         -1   -1    0    0    0  501 -0.00000000000E+00  0.00000000000E+00  0.72839815924E+03  0.72839815924E+03  0.00000000000E+00 0.  1.
          2   -1    0    0  501    0  0.00000000000E+00 -0.00000000000E+00 -0.15421065938E+04  0.15421065938E+04  0.00000000000E+00 0. -1.
         24    2    1    2    0    0  0.27519752231E+03  0.50133173106E+03  0.36619664066E+03  0.68213575820E+03  0.64358621255E+02 0.  0.
        254    2    1    2    0    0 -0.27519752231E+03 -0.50133173106E+03 -0.11799050752E+04  0.15883689948E+04  0.89647805124E+03 0.  0.
         23    2    4    4    0    0  0.48062644275E+02  0.22202220214E+03 -0.15370026640E+03  0.28876184623E+03  0.90309223937E+02 0.  0.
         23    2    4    4    0    0 -0.32326016658E+03 -0.72335393320E+03 -0.10262048088E+04  0.12996071486E+04  0.90246235820E+02 0.  0.
          4    1    3    3  502    0  0.16876590973E+02  0.12703580762E+02  0.24430771667E+02  0.32296484194E+02  0.00000000000E+00 0. -1.
         -3    1    3    3    0  502  0.25832093133E+03  0.48862815030E+03  0.34176586899E+03  0.64983927400E+03  0.00000000000E+00 0.  1.
         13    1    5    5    0    0  0.79459305334E+01  0.18822078712E+03 -0.98401514258E+02  0.21253955049E+03  0.00000000000E+00 0.  1.
        -13    1    5    5    0    0  0.40116713741E+02  0.33801415022E+02 -0.55298752140E+02  0.76222295735E+02  0.00000000000E+00 0. -1.
          3    1    6    6  503    0 -0.97707948036E+02 -0.15563257821E+03 -0.19348672675E+03  0.26684350458E+03  0.00000000000E+00 0. -1.
         -3    1    6    6    0  503 -0.22555221854E+03 -0.56772135499E+03 -0.83271808205E+03  0.10327636440E+04  0.00000000000E+00 0.  1.
<mgrwt>
<rscale>  0 0.21196864E+04</rscale>
<asrwt>0</asrwt>
<pdfrwt beam="1">  1        2 0.23724717E+00 0.21196864E+04</pdfrwt>
<pdfrwt beam="2">  1       -1 0.11206126E+00 0.21196864E+04</pdfrwt>
<totfact> 0.91990843E+00</totfact>
</mgrwt>
</event>
<event>
12    7  0.1729738E-007  0.2720378E+04  0.7818608E-02  0.8328423E-01
         -1   -1    0    0    0  501 -0.00000000000E+00  0.00000000000E+00  0.70869966890E+03  0.70869966890E+03  0.00000000000E+00 0.  1.
          2   -1    0    0  501    0  0.00000000000E+00 -0.00000000000E+00 -0.26105747150E+04  0.26105747150E+04  0.00000000000E+00 0. -1.
         24    2    1    2    0    0  0.76439486546E+03 -0.85817054666E+03 -0.40135690451E+03  0.12201351414E+04  0.82983137069E+02 0.  0.
        254    2    1    2    0    0 -0.76439486546E+03  0.85817054666E+03 -0.15005181415E+04  0.20991392424E+04  0.91327688489E+03 0.  0.
         23    2    4    4    0    0 -0.27904474566E+03  0.29443689051E+02  0.20336720854E+02  0.29818999314E+03  0.98847300882E+02 0.  0.
         23    2    4    4    0    0 -0.48535011981E+03  0.82872685761E+03 -0.15208548624E+04  0.18009492493E+04  0.89809479914E+02 0.  0.
          4    1    3    3  502    0  0.42914766036E+03 -0.50756473550E+03 -0.27130964466E+03  0.71791266767E+03  0.00000000000E+00 0. -1.
         -3    1    3    3    0  502  0.33524720510E+03 -0.35060581117E+03 -0.13004725985E+03  0.50222247376E+03  0.00000000000E+00 0.  1.
         13    1    5    5    0    0 -0.87824028194E+02  0.13001855779E+02  0.53156041947E+02  0.10347788642E+03  0.00000000000E+00 0. -1.
        -13    1    5    5    0    0 -0.19122071746E+03  0.16441833273E+02 -0.32819321093E+02  0.19471210672E+03  0.00000000000E+00 0.  1.
          3    1    6    6  503    0 -0.41100769897E+03  0.67364755981E+03 -0.11865361907E+04  0.14249899983E+04  0.00000000000E+00 0. -1.
         -3    1    6    6    0  503 -0.74342420839E+02  0.15507929780E+03 -0.33431867171E+03  0.37595925098E+03  0.00000000000E+00 0.  1.
<mgrwt>
<rscale>  0 0.27203775E+04</rscale>
<asrwt>0</asrwt>
<pdfrwt beam="1">  1        2 0.40162688E+00 0.27203775E+04</pdfrwt>
<pdfrwt beam="2">  1       -1 0.10903072E+00 0.27203775E+04</pdfrwt>
<totfact> 0.23272650E+00</totfact>
</mgrwt>
</event>
<event>
12    7  0.1729738E-007  0.1345270E+04  0.7818608E-02  0.8994416E-01
          2   -1    0    0  501    0  0.00000000000E+00  0.00000000000E+00  0.77633986622E+03  0.77633986622E+03  0.00000000000E+00 0. -1.
         -1   -1    0    0    0  501 -0.00000000000E+00 -0.00000000000E+00 -0.58278349401E+03  0.58278349401E+03  0.00000000000E+00 0.  1.
         24    2    1    2    0    0  0.96499855660E+02  0.33465356006E+03  0.20266227717E+03  0.41096070202E+03  0.80693696255E+02 0.  0.
        254    2    1    2    0    0 -0.96499855660E+02 -0.33465356006E+03 -0.91059049646E+01  0.94816265820E+03  0.88183007518E+03 0.  0.
         23    2    4    4    0    0  0.11032874441E+03  0.13682691372E+03  0.28506329813E+03  0.34837246573E+03  0.95959651793E+02 0.  0.
         23    2    4    4    0    0 -0.20682860007E+03 -0.47148047378E+03 -0.29416920310E+03  0.59979019248E+03  0.90226647826E+02 0.  0.
          4    1    3    3  502    0  0.62377924389E+02  0.84555055460E+02  0.61789664953E+02  0.12189555180E+03  0.00000000000E+00 0. -1.
         -3    1    3    3    0  502  0.34121931271E+02  0.25009850460E+03  0.14087261222E+03  0.28906515022E+03  0.00000000000E+00 0.  1.
         13    1    5    5    0    0  0.11229305626E+03  0.13548620410E+03  0.29206313842E+03  0.34097964574E+03  0.00000000000E+00 0. -1.
        -13    1    5    5    0    0 -0.19643118507E+01  0.13407096194E+01 -0.69998402853E+01  0.73928199863E+01  0.00000000000E+00 0.  1.
          1    1    6    6  503    0 -0.20109028275E+03 -0.37198138403E+03 -0.23186778775E+03  0.48225524661E+03  0.00000000000E+00 0. -1.
         -1    1    6    6    0  503 -0.57383173162E+01 -0.99499089745E+02 -0.62301415348E+02  0.11753494587E+03  0.00000000000E+00 0.  1.
<mgrwt>
<rscale>  0 0.13452703E+04</rscale>
<asrwt>0</asrwt>
<pdfrwt beam="1">  1        2 0.11943690E+00 0.13452703E+04</pdfrwt>
<pdfrwt beam="2">  1       -1 0.89658998E-01 0.13452703E+04</pdfrwt>
<totfact> 0.48734989E+01</totfact>
</mgrwt>
</event>
<event>
12    7  0.1729738E-007  0.1133468E+04  0.7818608E-02  0.9173172E-01
         -1   -1    0    0    0  501 -0.00000000000E+00  0.00000000000E+00  0.10255466664E+04  0.10255466664E+04  0.00000000000E+00 0.  1.
          2   -1    0    0  501    0  0.00000000000E+00 -0.00000000000E+00 -0.31318653190E+03  0.31318653190E+03  0.00000000000E+00 0. -1.
         24    2    1    2    0    0 -0.15346124679E+02 -0.14809655968E+03 -0.25474999674E+02  0.17085899787E+03  0.79848149698E+02 0.  0.
        254    2    1    2    0    0  0.15346124679E+02  0.14809655968E+03  0.73783513414E+03  0.11678742004E+04  0.89295093271E+03 0.  0.
         23    2    4    4    0    0 -0.15055877804E+03  0.11260237823E+03  0.89481637876E+03  0.91895155511E+03  0.91806142120E+02 0.  0.
         23    2    4    4    0    0  0.16590490271E+03  0.35494181458E+02 -0.15698124462E+03  0.24892264527E+03  0.92385596857E+02 0.  0.
          4    1    3    3  502    0 -0.22642244260E+02 -0.14341022520E+03 -0.42902911931E+02  0.15139294492E+03  0.00000000000E+00 0. -1.
         -3    1    3    3    0  502  0.72961195812E+01 -0.46863344813E+01  0.17427912257E+02  0.19466052950E+02  0.00000000000E+00 0.  1.
         13    1    5    5    0    0 -0.11763712094E+03  0.48789416194E+02  0.69623959415E+03  0.70779126289E+03  0.00000000000E+00 0.  1.
        -13    1    5    5    0    0 -0.32921657091E+02  0.63812962033E+02  0.19857678460E+03  0.21116029222E+03  0.00000000000E+00 0. -1.
          3    1    6    6  503    0  0.82943577953E+02 -0.50056750213E+01 -0.23007043759E+02  0.86220751381E+02  0.00000000000E+00 0. -1.
         -3    1    6    6    0  503  0.82961324761E+02  0.40499856479E+02 -0.13397420086E+03  0.16270189389E+03  0.00000000000E+00 0.  1.
<mgrwt>
<rscale>  0 0.11334680E+04</rscale>
<asrwt>0</asrwt>
<pdfrwt beam="1">  1        2 0.48182544E-01 0.11334680E+04</pdfrwt>
<pdfrwt beam="2">  1       -1 0.15777641E+00 0.11334680E+04</pdfrwt>
<totfact> 0.36099766E+01</totfact>
</mgrwt>
</event>
<event>
12    7  0.1729738E-007  0.1302606E+04  0.7818608E-02  0.9027501E-01
          2   -1    0    0  501    0  0.00000000000E+00  0.00000000000E+00  0.16618797998E+04  0.16618797998E+04  0.00000000000E+00 0. -1.
         -1   -1    0    0    0  501 -0.00000000000E+00 -0.00000000000E+00 -0.25525065857E+03  0.25525065857E+03  0.00000000000E+00 0.  1.
         24    2    1    2    0    0  0.18690067011E+03  0.12347472846E+03  0.85024709592E+03  0.88282153437E+03  0.79220378446E+02 0.  0.
        254    2    1    2    0    0 -0.18690067011E+03 -0.12347472846E+03  0.55638204534E+03  0.10343089240E+04  0.84264826643E+03 0.  0.
         23    2    4    4    0    0 -0.43979095594E+03 -0.19331328072E+03  0.10031035368E+03  0.49991346316E+03  0.95211313232E+02 0.  0.
         23    2    4    4    0    0  0.25289028583E+03  0.69838552267E+02  0.45607169166E+03  0.53439546087E+03  0.93521123914E+02 0.  0.
          2    1    3    3  502    0  0.18150581657E+03  0.92476083676E+02  0.77352222301E+03  0.79989550380E+03  0.00000000000E+00 0. -1.
         -1    1    3    3    0  502  0.53948535404E+01  0.30998644779E+02  0.76724872910E+02  0.82926030569E+02  0.00000000000E+00 0.  1.
         13    1    5    5    0    0 -0.35019746174E+03 -0.14794592025E+03  0.11775281850E+03  0.39798490397E+03  0.00000000000E+00 0. -1.
        -13    1    5    5    0    0 -0.89593494203E+02 -0.45367360477E+02 -0.17442464821E+02  0.10192855919E+03  0.00000000000E+00 0.  1.
          2    1    6    6  503    0  0.19786539381E+03  0.59919656033E+02  0.41923768464E+03  0.46744124280E+03  0.00000000000E+00 0. -1.
         -2    1    6    6    0  503  0.55024892027E+02  0.99188962336E+01  0.36834007016E+02  0.66954218075E+02  0.00000000000E+00 0.  1.
<mgrwt>
<rscale>  0 0.13026065E+04</rscale>
<asrwt>0</asrwt>
<pdfrwt beam="1">  1        2 0.25567381E+00 0.13026065E+04</pdfrwt>
<pdfrwt beam="2">  1       -1 0.39269333E-01 0.13026065E+04</pdfrwt>
<totfact> 0.72428431E+01</totfact>
</mgrwt>
</event>
<event>
12    7  0.1729738E-007  0.2907843E+04  0.7818608E-02  0.8270548E-01
         -1   -1    0    0    0  501 -0.00000000000E+00  0.00000000000E+00  0.69129744141E+03  0.69129744141E+03  0.00000000000E+00 0.  1.
          2   -1    0    0  501    0  0.00000000000E+00 -0.00000000000E+00 -0.30578560780E+04  0.30578560780E+04  0.00000000000E+00 0. -1.
         24    2    1    2    0    0  0.32541425500E+03  0.44350963179E+03  0.46808619129E+03  0.72666051549E+03  0.79596428653E+02 0.  0.
        254    2    1    2    0    0 -0.32541425500E+03 -0.44350963179E+03 -0.28346448279E+04  0.30224930039E+04  0.89311669320E+03 0.  0.
         23    2    4    4    0    0 -0.34274567939E+03  0.89983309797E+02 -0.46443326273E+03  0.59112419351E+03  0.90321425146E+02 0.  0.
         23    2    4    4    0    0  0.17331424385E+02 -0.53349294158E+03 -0.23702115652E+04  0.24313688104E+04  0.93468345858E+02 0.  0.
          4    1    3    3  502    0  0.50516387522E+02  0.32708714742E+02  0.35937889765E+02  0.70094916713E+02  0.00000000000E+00 0. -1.
         -3    1    3    3    0  502  0.27489786748E+03  0.41080091704E+03  0.43214830152E+03  0.65656559878E+03  0.00000000000E+00 0.  1.
         13    1    5    5    0    0 -0.12381372329E+03  0.27635035125E+02 -0.10042430739E+03  0.16179794423E+03  0.00000000000E+00 0.  1.
        -13    1    5    5    0    0 -0.21893195610E+03  0.62348274672E+02 -0.36400895534E+03  0.42932624928E+03  0.00000000000E+00 0. -1.
          4    1    6    6  503    0  0.23798091122E+02 -0.53337684132E+03 -0.23562419053E+04  0.24159745695E+04  0.00000000000E+00 0. -1.
         -4    1    6    6    0  503 -0.64666667372E+01 -0.11610025765E+00 -0.13969659824E+02  0.15394240922E+02  0.00000000000E+00 0.  1.
<mgrwt>
<rscale>  0 0.29078432E+04</rscale>
<asrwt>0</asrwt>
<pdfrwt beam="1">  1        2 0.47043940E+00 0.29078432E+04</pdfrwt>
<pdfrwt beam="2">  1       -1 0.10635345E+00 0.29078432E+04</pdfrwt>
<totfact> 0.12956157E+00</totfact>
</mgrwt>
</event>
<event>
12    7  0.1729738E-007  0.1293548E+04  0.7818608E-02  0.9034697E-01
          2   -1    0    0  501    0  0.00000000000E+00  0.00000000000E+00  0.72954504078E+03  0.72954504078E+03  0.00000000000E+00 0. -1.
         -1   -1    0    0    0  501 -0.00000000000E+00 -0.00000000000E+00 -0.57339424001E+03  0.57339424001E+03  0.00000000000E+00 0.  1.
         24    2    1    2    0    0  0.31307393143E+03 -0.92500780511E+02 -0.52985815907E+02  0.34036322528E+03  0.80423550622E+02 0.  0.
        254    2    1    2    0    0 -0.31307393143E+03  0.92500780511E+02  0.20913661668E+03  0.96257605551E+03  0.88104645580E+03 0.  0.
         23    2    4    4    0    0  0.20209814544E+03  0.27663223042E+02  0.35380813249E+03  0.41633052704E+03  0.80882623807E+02 0.  0.
         23    2    4    4    0    0 -0.51517207687E+03  0.64837557468E+02 -0.14467151581E+03  0.54624552847E+03  0.88589797616E+02 0.  0.
          4    1    3    3  502    0  0.95633642848E+02 -0.39425858415E+02  0.19155309906E+02  0.10520037003E+03  0.00000000000E+00 0. -1.
         -3    1    3    3    0  502  0.21744028859E+03 -0.53074922096E+02 -0.72141125813E+02  0.23516285525E+03  0.00000000000E+00 0.  1.
         13    1    5    5    0    0  0.88453251625E+02  0.95870202575E+01  0.81299814260E+02  0.12052198339E+03  0.00000000000E+00 0. -1.
        -13    1    5    5    0    0  0.11364489381E+03  0.18076202785E+02  0.27250831823E+03  0.29580854366E+03  0.00000000000E+00 0.  1.
          2    1    6    6  503    0 -0.30210007915E+03  0.60554523342E+02 -0.46471419711E+02  0.31159412858E+03  0.00000000000E+00 0. -1.
         -2    1    6    6    0  503 -0.21307199772E+03  0.42830341267E+01 -0.98200096097E+02  0.23465139989E+03  0.00000000000E+00 0.  1.
<mgrwt>
<rscale>  0 0.12935485E+04</rscale>
<asrwt>0</asrwt>
<pdfrwt beam="1">  1        2 0.11223770E+00 0.12935485E+04</pdfrwt>
<pdfrwt beam="2">  1       -1 0.88214498E-01 0.12935485E+04</pdfrwt>
<totfact> 0.54976523E+01</totfact>
</mgrwt>
</event>
<event>
12    7  0.1729738E-007  0.1886551E+04  0.7818608E-02  0.8661580E-01
         -1   -1    0    0    0  501 -0.00000000000E+00  0.00000000000E+00  0.43943228964E+03  0.43943228964E+03  0.00000000000E+00 0.  1.
          2   -1    0    0  501    0  0.00000000000E+00 -0.00000000000E+00 -0.20248150044E+04  0.20248150044E+04  0.00000000000E+00 0. -1.
         24    2    1    2    0    0 -0.32633069270E+02  0.70960323045E+03 -0.74601092662E+03  0.10329880689E+04  0.77008999457E+02 0.  0.
        254    2    1    2    0    0  0.32633069270E+02 -0.70960323045E+03 -0.83937178810E+03  0.14312592251E+04  0.91616390940E+03 0.  0.
         23    2    4    4    0    0  0.39524157404E+03 -0.67028852591E+03 -0.58195591236E+03  0.97581648967E+03  0.89680141490E+02 0.  0.
         23    2    4    4    0    0 -0.36260850477E+03 -0.39314704545E+02 -0.25741587574E+03  0.45544273542E+03  0.90191897832E+02 0.  0.
          2    1    3    3  502    0 -0.23631134659E+02  0.31065065990E+03 -0.38114760666E+03  0.49227610249E+03  0.00000000000E+00 0. -1.
         -1    1    3    3    0  502 -0.90019346110E+01  0.39895257055E+03 -0.36486331996E+03  0.54071196642E+03  0.00000000000E+00 0.  1.
         13    1    5    5    0    0  0.61084587625E+02 -0.84950649153E+02 -0.11719914686E+03  0.15711008771E+03  0.00000000000E+00 0. -1.
        -13    1    5    5    0    0  0.33415698642E+03 -0.58533787676E+03 -0.46475676550E+03  0.81870640196E+03  0.00000000000E+00 0.  1.
          2    1    6    6  503    0 -0.23446791935E+01 -0.11810109895E+02 -0.40852845750E+00  0.12047535505E+02  0.00000000000E+00 0. -1.
         -2    1    6    6    0  503 -0.36026382558E+03 -0.27504594651E+02 -0.25700734728E+03  0.44339519991E+03  0.00000000000E+00 0.  1.
<mgrwt>
<rscale>  0 0.18865515E+04</rscale>
<asrwt>0</asrwt>
<pdfrwt beam="1">  1        2 0.31151000E+00 0.18865515E+04</pdfrwt>
<pdfrwt beam="2">  1       -1 0.67604969E-01 0.18865515E+04</pdfrwt>
<totfact> 0.15309623E+01</totfact>
</mgrwt>
</event>
<event>
12    7  0.1729738E-007  0.1730488E+04  0.7818608E-02  0.8744165E-01
         -1   -1    0    0    0  501 -0.00000000000E+00  0.00000000000E+00  0.11332772956E+04  0.11332772956E+04  0.00000000000E+00 0.  1.
          2   -1    0    0  501    0  0.00000000000E+00 -0.00000000000E+00 -0.66060362196E+03  0.66060362196E+03  0.00000000000E+00 0. -1.
         24    2    1    2    0    0  0.45097381420E+03 -0.47960186470E+03  0.14027128955E+02  0.66324311459E+03  0.79368375234E+02 0.  0.
        254    2    1    2    0    0 -0.45097381420E+03  0.47960186470E+03  0.45864654468E+03  0.11306378030E+04  0.79661148550E+03 0.  0.
         23    2    4    4    0    0  0.17965308341E+03  0.25512061950E+03  0.28611726261E+03  0.43344098283E+03  0.92985142680E+02 0.  0.
         23    2    4    4    0    0 -0.63062689761E+03  0.22448124520E+03  0.17252928207E+03  0.69719682014E+03  0.90746566917E+02 0.  0.
          2    1    3    3  502    0  0.55051299172E+02 -0.42205434608E+02  0.23355915950E+02  0.73194556224E+02  0.00000000000E+00 0. -1.
         -1    1    3    3    0  502  0.39592251503E+03 -0.43739643010E+03 -0.93287869955E+01  0.59004855837E+03  0.00000000000E+00 0.  1.
         13    1    5    5    0    0  0.11946525999E+02  0.31742391717E+02  0.78165549545E+02  0.85206525871E+02  0.00000000000E+00 0.  1.
        -13    1    5    5    0    0  0.16770655741E+03  0.22337822778E+03  0.20795171307E+03  0.34823445696E+03  0.00000000000E+00 0. -1.
          1    1    6    6  503    0 -0.31547268880E+03  0.73521369728E+02  0.11073515898E+03  0.34233124984E+03  0.00000000000E+00 0. -1.
         -1    1    6    6    0  503 -0.31515420881E+03  0.15095987547E+03  0.61794123086E+02  0.35486557029E+03  0.00000000000E+00 0.  1.
<mgrwt>
<rscale>  0 0.17304879E+04</rscale>
<asrwt>0</asrwt>
<pdfrwt beam="1">  1        2 0.10163133E+00 0.17304879E+04</pdfrwt>
<pdfrwt beam="2">  1       -1 0.17435035E+00 0.17304879E+04</pdfrwt>
<totfact> 0.10924037E+01</totfact>
</mgrwt>
</event>
<event>
12    7  0.1729738E-007  0.1359493E+04  0.7818608E-02  0.8983673E-01
         -1   -1    0    0    0  501 -0.00000000000E+00  0.00000000000E+00  0.43556087143E+03  0.43556087143E+03  0.00000000000E+00 0.  1.
          2   -1    0    0  501    0  0.00000000000E+00 -0.00000000000E+00 -0.10608283301E+04  0.10608283301E+04  0.00000000000E+00 0. -1.
         24    2    1    2    0    0 -0.35063754153E+03  0.20151517864E+02 -0.33335193510E+03  0.49083025781E+03  0.80237523293E+02 0.  0.
        254    2    1    2    0    0  0.35063754153E+03 -0.20151517864E+02 -0.29191552352E+03  0.10055589437E+04  0.89586904575E+03 0.  0.
         23    2    4    4    0    0  0.54023813139E+03  0.12458004356E+03 -0.43635758014E+03  0.71262034237E+03  0.10021171963E+03 0.  0.
         23    2    4    4    0    0 -0.18960058986E+03 -0.14473156143E+03  0.14444205662E+03  0.29293860131E+03  0.89743567286E+02 0.  0.
          2    1    3    3  502    0 -0.27874959976E+03 -0.16633346648E+02 -0.26632078958E+03  0.38588180904E+03  0.00000000000E+00 0. -1.
         -1    1    3    3    0  502 -0.71887941768E+02  0.36784864511E+02 -0.67031145526E+02  0.10494844877E+03  0.00000000000E+00 0.  1.
         13    1    5    5    0    0  0.38228507207E+03  0.12115821587E+03 -0.35159012908E+03  0.53332617455E+03  0.00000000000E+00 0. -1.
        -13    1    5    5    0    0  0.15795305932E+03  0.34218276973E+01 -0.84767451065E+02  0.17929416782E+03  0.00000000000E+00 0.  1.
          2    1    6    6  503    0 -0.17816714607E+03 -0.15623824254E+03  0.14271631257E+03  0.27662585968E+03  0.00000000000E+00 0. -1.
         -2    1    6    6    0  503 -0.11433443782E+02  0.11506681109E+02  0.17257440488E+01  0.16312741627E+02  0.00000000000E+00 0.  1.
<mgrwt>
<rscale>  0 0.13594930E+04</rscale>
<asrwt>0</asrwt>
<pdfrwt beam="1">  1        2 0.16320435E+00 0.13594930E+04</pdfrwt>
<pdfrwt beam="2">  1       -1 0.67009367E-01 0.13594930E+04</pdfrwt>
<totfact> 0.57891204E+01</totfact>
</mgrwt>
</event>
<event>
12    7  0.1729738E-007  0.1560904E+04  0.7818608E-02  0.8844933E-01
         -1   -1    0    0    0  501 -0.00000000000E+00  0.00000000000E+00  0.17685800816E+03  0.17685800816E+03  0.00000000000E+00 0.  1.
          2   -1    0    0  501    0  0.00000000000E+00 -0.00000000000E+00 -0.34440376994E+04  0.34440376994E+04  0.00000000000E+00 0. -1.
         24    2    1    2    0    0 -0.37002985953E+03 -0.25477348467E+03 -0.55418160552E+03  0.71794874345E+03  0.80632009025E+02 0.  0.
        254    2    1    2    0    0  0.37002985953E+03  0.25477348467E+03 -0.27129980857E+04  0.29029469641E+04  0.93000582679E+03 0.  0.
         23    2    4    4    0    0 -0.26055868861E+03  0.20576979847E+03 -0.56454584549E+03  0.66160665987E+03  0.93698028517E+02 0.  0.
         23    2    4    4    0    0  0.63058854815E+03  0.49003686201E+02 -0.21484522402E+04  0.22413403042E+04  0.87841064114E+02 0.  0.
          2    1    3    3  502    0 -0.17314232606E+02 -0.34244184066E+02 -0.68128422771E+02  0.78191615806E+02  0.00000000000E+00 0. -1.
         -1    1    3    3    0  502 -0.35271562693E+03 -0.22052930060E+03 -0.48605318275E+03  0.63975712764E+03  0.00000000000E+00 0.  1.
         13    1    5    5    0    0 -0.11358884683E+03  0.38981870475E+02 -0.23788258368E+03  0.26647727101E+03  0.00000000000E+00 0.  1.
        -13    1    5    5    0    0 -0.14696984178E+03  0.16678792799E+03 -0.32666326181E+03  0.39512938885E+03  0.00000000000E+00 0. -1.
          3    1    6    6  503    0  0.43351642292E+03  0.29817762815E+02 -0.16109443014E+04  0.16685224392E+04  0.00000000000E+00 0. -1.
         -3    1    6    6    0  503  0.19707212523E+03  0.19185923387E+02 -0.53750793887E+03  0.57281786508E+03  0.00000000000E+00 0.  1.
<mgrwt>
<rscale>  0 0.15609044E+04</rscale>
<asrwt>0</asrwt>
<pdfrwt beam="1">  1        2 0.52985193E+00 0.15609044E+04</pdfrwt>
<pdfrwt beam="2">  1       -1 0.27208925E-01 0.15609044E+04</pdfrwt>
<totfact> 0.11926622E+01</totfact>
</mgrwt>
</event>
<event>
12    7  0.1729738E-007  0.2997264E+04  0.7818608E-02  0.8244513E-01
         -1   -1    0    0    0  501 -0.00000000000E+00  0.00000000000E+00  0.71277710346E+03  0.71277710346E+03  0.00000000000E+00 0.  1.
          2   -1    0    0  501    0  0.00000000000E+00 -0.00000000000E+00 -0.31509109065E+04  0.31509109065E+04  0.00000000000E+00 0. -1.
         24    2    1    2    0    0  0.12521158339E+04 -0.34100090378E+03 -0.68181007901E+03  0.14681856515E+04  0.81415266981E+02 0.  0.
        254    2    1    2    0    0 -0.12521158339E+04  0.34100090378E+03 -0.17563237240E+04  0.23955023584E+04  0.98472475746E+03 0.  0.
         23    2    4    4    0    0 -0.35957650879E+03 -0.32760929338E+03 -0.39387965360E+03  0.63251665042E+03  0.91175746524E+02 0.  0.
         23    2    4    4    0    0 -0.89253932507E+03  0.66861019716E+03 -0.13624440704E+04  0.17629857080E+04  0.90546778631E+02 0.  0.
          2    1    3    3  502    0  0.56778756392E+03 -0.16835820291E+03 -0.35446516763E+03  0.69019762191E+03  0.00000000000E+00 0. -1.
         -1    1    3    3    0  502  0.68432826994E+03 -0.17264270087E+03 -0.32734491138E+03  0.77798802961E+03  0.00000000000E+00 0.  1.
         13    1    5    5    0    0 -0.12855635134E+03 -0.94473378030E+02 -0.18119014254E+03  0.24141628441E+03  0.00000000000E+00 0. -1.
        -13    1    5    5    0    0 -0.23102015745E+03 -0.23313591535E+03 -0.21268951106E+03  0.39110036600E+03  0.00000000000E+00 0.  1.
          3    1    6    6  503    0 -0.88021619480E+03  0.64188951711E+03 -0.13242585872E+04  0.17147779762E+04  0.00000000000E+00 0. -1.
         -3    1    6    6    0  503 -0.12323130269E+02  0.26720680054E+02 -0.38185483209E+02  0.48207731850E+02  0.00000000000E+00 0.  1.
<mgrwt>
<rscale>  0 0.29972635E+04</rscale>
<asrwt>0</asrwt>
<pdfrwt beam="1">  1        2 0.48475551E+00 0.29972635E+04</pdfrwt>
<pdfrwt beam="2">  1       -1 0.10965802E+00 0.29972635E+04</pdfrwt>
<totfact> 0.10430004E+00</totfact>
</mgrwt>
</event>
<event>
12    7  0.1729738E-007  0.1100279E+04  0.7818608E-02  0.9204920E-01
          2   -1    0    0  501    0  0.00000000000E+00  0.00000000000E+00  0.35119942411E+04  0.35119942411E+04  0.00000000000E+00 0. -1.
         -1   -1    0    0    0  501 -0.00000000000E+00 -0.00000000000E+00 -0.86177047931E+02  0.86177047931E+02  0.00000000000E+00 0.  1.
         24    2    1    2    0    0 -0.22163265797E+02 -0.15607580905E+03  0.39877144149E+03  0.43639400434E+03  0.81056745308E+02 0.  0.
        254    2    1    2    0    0  0.22163265797E+02  0.15607580905E+03  0.30270457517E+04  0.31617772847E+04  0.89943245808E+03 0.  0.
         23    2    4    4    0    0 -0.22421769449E+03  0.18581236681E+03  0.31887271880E+03  0.44066981418E+03  0.87808109814E+02 0.  0.
         23    2    4    4    0    0  0.24638096029E+03 -0.29736557756E+02  0.27081730329E+04  0.27211074705E+04  0.92934652061E+02 0.  0.
          4    1    3    3  502    0 -0.36898967006E+02 -0.15539279650E+03  0.38208208466E+03  0.41411975851E+03  0.00000000000E+00 0. -1.
         -3    1    3    3    0  502  0.14735701209E+02 -0.68301255645E+00  0.16689356829E+02  0.22274245838E+02  0.00000000000E+00 0.  1.
         13    1    5    5    0    0 -0.17165640322E+03  0.10237540099E+03  0.17157273195E+03  0.26340813549E+03  0.00000000000E+00 0. -1.
        -13    1    5    5    0    0 -0.52561291279E+02  0.83436965818E+02  0.14729998685E+03  0.17726167869E+03  0.00000000000E+00 0.  1.
          1    1    6    6  503    0  0.16675999402E+03  0.16664562210E+02  0.14734810183E+04  0.14829810904E+04  0.00000000000E+00 0. -1.
         -1    1    6    6    0  503  0.79620966273E+02 -0.46401119967E+02  0.12346920146E+04  0.12381263801E+04  0.00000000000E+00 0.  1.
<mgrwt>
<rscale>  0 0.11002787E+04</rscale>
<asrwt>0</asrwt>
<pdfrwt beam="1">  1        2 0.54030669E+00 0.11002787E+04</pdfrwt>
<pdfrwt beam="2">  1       -1 0.13258010E-01 0.11002787E+04</pdfrwt>
<totfact> 0.37431378E+01</totfact>
</mgrwt>
</event>
<event>
12    7  0.1729738E-007  0.1567540E+04  0.7818608E-02  0.8840741E-01
         -1   -1    0    0    0  501 -0.00000000000E+00  0.00000000000E+00  0.11428078451E+04  0.11428078451E+04  0.00000000000E+00 0.  1.
          2   -1    0    0  501    0  0.00000000000E+00 -0.00000000000E+00 -0.53753156310E+03  0.53753156310E+03  0.00000000000E+00 0. -1.
         24    2    1    2    0    0  0.31302989810E+03 -0.38982549037E+03  0.16328272454E+02  0.50646026013E+03  0.79270123988E+02 0.  0.
        254    2    1    2    0    0 -0.31302989810E+03  0.38982549037E+03  0.58894800952E+03  0.11738791481E+04  0.88384436767E+03 0.  0.
         23    2    4    4    0    0  0.29060311535E+03  0.31354015587E+02  0.16154172099E+03  0.34675906748E+03  0.93342800031E+02 0.  0.
         23    2    4    4    0    0 -0.60363301345E+03  0.35847147478E+03  0.42740628853E+03  0.82712008057E+03  0.92611441181E+02 0.  0.
          4    1    3    3  502    0  0.68871164045E+02 -0.99921756830E+02  0.37007590179E+02  0.12687456978E+03  0.00000000000E+00 0. -1.
         -3    1    3    3    0  502  0.24415873406E+03 -0.28990373354E+03 -0.20679317725E+02  0.37958569035E+03  0.00000000000E+00 0.  1.
         13    1    5    5    0    0  0.21411534951E+03  0.42293211292E+02  0.15794730188E+03  0.26940944450E+03  0.00000000000E+00 0. -1.
        -13    1    5    5    0    0  0.76487765844E+02 -0.10939195705E+02  0.35944191049E+01  0.77349622981E+02  0.00000000000E+00 0.  1.
          3    1    6    6  503    0 -0.20574054760E+02 -0.42265636475E+01  0.78400097134E+01  0.22419217690E+02  0.00000000000E+00 0. -1.
         -3    1    6    6    0  503 -0.58305895869E+03  0.36269803843E+03  0.41956627882E+03  0.80470086288E+03  0.00000000000E+00 0.  1.
<mgrwt>
<rscale>  0 0.15675398E+04</rscale>
<asrwt>0</asrwt>
<pdfrwt beam="1">  1        2 0.82697164E-01 0.15675398E+04</pdfrwt>
<pdfrwt beam="2">  1       -1 0.17581659E+00 0.15675398E+04</pdfrwt>
<totfact> 0.13865243E+01</totfact>
</mgrwt>
</event>
<event>
12    7  0.1729738E-007  0.1470699E+04  0.7818608E-02  0.8904175E-01
          2   -1    0    0  501    0  0.00000000000E+00  0.00000000000E+00  0.62698433670E+03  0.62698433670E+03  0.00000000000E+00 0. -1.
         -1   -1    0    0    0  501 -0.00000000000E+00 -0.00000000000E+00 -0.86244431995E+03  0.86244431995E+03  0.00000000000E+00 0.  1.
         24    2    1    2    0    0 -0.12953723515E+03 -0.31348690823E+03 -0.38782492620E+03  0.52080216655E+03  0.75978854841E+02 0.  0.
        254    2    1    2    0    0  0.12953723515E+03  0.31348690823E+03  0.15236494295E+03  0.96862649010E+03  0.89440945017E+03 0.  0.
         23    2    4    4    0    0 -0.18038549812E+03 -0.22497165552E+03 -0.55078775647E+02  0.30720900220E+03  0.90512572537E+02 0.  0.
         23    2    4    4    0    0  0.30992273327E+03  0.53845856375E+03  0.20744371860E+03  0.66141748790E+03  0.91926445808E+02 0.  0.
          4    1    3    3  502    0 -0.59233957397E+02 -0.68298262716E+02 -0.77288924595E+02  0.11894070903E+03  0.00000000000E+00 0. -1.
         -1    1    3    3    0  502 -0.70303277749E+02 -0.24518864552E+03 -0.31053600160E+03  0.40186145753E+03  0.00000000000E+00 0.  1.
         13    1    5    5    0    0 -0.17064789918E+03 -0.15220648921E+03 -0.45867910024E+02  0.23321960900E+03  0.00000000000E+00 0.  1.
        -13    1    5    5    0    0 -0.97375989424E+01 -0.72765166301E+02 -0.92108656234E+01  0.73989393196E+02  0.00000000000E+00 0. -1.
          2    1    6    6  503    0  0.30191569857E+03  0.46749789312E+03  0.18793013743E+03  0.58738837719E+03  0.00000000000E+00 0.  1.
         -2    1    6    6    0  503  0.80070347025E+01  0.70960670633E+02  0.19513581170E+02  0.74029110703E+02  0.00000000000E+00 0. -1.
<mgrwt>
<rscale>  0 0.14706993E+04</rscale>
<asrwt>0</asrwt>
<pdfrwt beam="1">  1        2 0.96459129E-01 0.14706993E+04</pdfrwt>
<pdfrwt beam="2">  1       -1 0.13268374E+00 0.14706993E+04</pdfrwt>
<totfact> 0.25045806E+01</totfact>
</mgrwt>
</event>
<event>
12    7  0.1729738E-007  0.1838096E+04  0.7818608E-02  0.8686299E-01
          2   -1    0    0  501    0  0.00000000000E+00  0.00000000000E+00  0.25687384563E+04  0.25687384563E+04  0.00000000000E+00 0. -1.
         -1   -1    0    0    0  501 -0.00000000000E+00 -0.00000000000E+00 -0.32881866848E+03  0.32881866848E+03  0.00000000000E+00 0.  1.
         24    2    1    2    0    0  0.17364477563E+03 -0.48557069691E+03  0.10165689791E+03  0.53165278899E+03  0.79932179648E+02 0.  0.
        254    2    1    2    0    0 -0.17364477563E+03  0.48557069691E+03  0.21382628899E+04  0.23659043358E+04  0.87143773729E+03 0.  0.
         23    2    4    4    0    0  0.11441522970E+03  0.64539146985E+01  0.15224637461E+04  0.15292752873E+04  0.87490276144E+02 0.  0.
         23    2    4    4    0    0 -0.28806000533E+03  0.47911678222E+03  0.61579914376E+03  0.83662904843E+03  0.90598684035E+02 0.  0.
          4    1    3    3  502    0  0.32959542903E+01 -0.97890443819E+02  0.27698331001E+02  0.10178703182E+03  0.00000000000E+00 0. -1.
         -3    1    3    3    0  502  0.17034882134E+03 -0.38768025310E+03  0.73958566912E+02  0.42986575717E+03  0.00000000000E+00 0.  1.
         13    1    5    5    0    0  0.83343010662E+01  0.30440692450E+02  0.51291979812E+03  0.51388988669E+03  0.00000000000E+00 0. -1.
        -13    1    5    5    0    0  0.10608092863E+03 -0.23986777752E+02  0.10095439480E+04  0.10153854006E+04  0.00000000000E+00 0.  1.
          1    1    6    6  503    0 -0.29019679425E+03  0.45102113009E+03  0.59816043435E+03  0.80338667179E+03  0.00000000000E+00 0. -1.
         -1    1    6    6    0  503  0.21367889221E+01  0.28095652124E+02  0.17638709410E+02  0.33242376642E+02  0.00000000000E+00 0.  1.
<mgrwt>
<rscale>  0 0.18380959E+04</rscale>
<asrwt>0</asrwt>
<pdfrwt beam="1">  1        2 0.39519052E+00 0.18380959E+04</pdfrwt>
<pdfrwt beam="2">  1       -1 0.50587489E-01 0.18380959E+04</pdfrwt>
<totfact> 0.13369923E+01</totfact>
</mgrwt>
</event>
<event>
12    7  0.1729738E-007  0.1090214E+04  0.7818608E-02  0.9214783E-01
          2   -1    0    0  501    0  0.00000000000E+00  0.00000000000E+00  0.32841271514E+04  0.32841271514E+04  0.00000000000E+00 0. -1.
         -1   -1    0    0    0  501 -0.00000000000E+00 -0.00000000000E+00 -0.90478112536E+02  0.90478112536E+02  0.00000000000E+00 0.  1.
         24    2    1    2    0    0 -0.10912498971E+03 -0.99185816843E+02  0.28978347945E+03  0.33485593503E+03  0.80049625997E+02 0.  0.
        254    2    1    2    0    0  0.10912498971E+03  0.99185816843E+02  0.29038655594E+04  0.30397493289E+04  0.88650702523E+03 0.  0.
         23    2    4    4    0    0 -0.72304446592E+02  0.45507868902E+03  0.12373273531E+04  0.13236163286E+04  0.93041176216E+02 0.  0.
         23    2    4    4    0    0  0.18142943630E+03 -0.35589287217E+03  0.16665382063E+04  0.17161330002E+04  0.90479305545E+02 0.  0.
          4    1    3    3  502    0 -0.33508690799E+02  0.10007018567E+02  0.59812861317E+02  0.69286009833E+02  0.00000000000E+00 0. -1.
         -3    1    3    3    0  502 -0.75616298909E+02 -0.10919283541E+03  0.22997061813E+03  0.26556992520E+03  0.00000000000E+00 0.  1.
         13    1    5    5    0    0 -0.40747379025E+02  0.42032541167E+03  0.10878465152E+04  0.11669378052E+04  0.00000000000E+00 0. -1.
        -13    1    5    5    0    0 -0.31557067567E+02  0.34753277352E+02  0.14948083792E+03  0.15667852343E+03  0.00000000000E+00 0.  1.
          3    1    6    6  503    0  0.10488698620E+03 -0.28984388513E+03  0.12802995031E+04  0.13168817620E+04  0.00000000000E+00 0. -1.
         -3    1    6    6    0  503  0.76542450105E+02 -0.66048987045E+02  0.38623870318E+03  0.39925123819E+03  0.00000000000E+00 0.  1.
<mgrwt>
<rscale>  0 0.10902140E+04</rscale>
<asrwt>0</asrwt>
<pdfrwt beam="1">  1        2 0.50525024E+00 0.10902140E+04</pdfrwt>
<pdfrwt beam="2">  1       -1 0.13919712E-01 0.10902140E+04</pdfrwt>
<totfact> 0.49264444E+01</totfact>
</mgrwt>
</event>
<event>
12    7  0.1729738E-007  0.1465502E+04  0.7818608E-02  0.8907723E-01
          2   -1    0    0  501    0  0.00000000000E+00  0.00000000000E+00  0.43044184296E+03  0.43044184296E+03  0.00000000000E+00 0. -1.
         -1   -1    0    0    0  501 -0.00000000000E+00 -0.00000000000E+00 -0.12473789310E+04  0.12473789310E+04  0.00000000000E+00 0.  1.
         24    2    1    2    0    0  0.34929678853E+03 -0.55746433984E+02 -0.56037557281E+03  0.66741821714E+03  0.79437916556E+02 0.  0.
        254    2    1    2    0    0 -0.34929678853E+03  0.55746433984E+02 -0.25656151519E+03  0.10104025568E+04  0.91102887127E+03 0.  0.
         23    2    4    4    0    0 -0.37274460816E+03  0.38357584940E+03 -0.36307055662E+03  0.65304764699E+03  0.92639219588E+02 0.  0.
         23    2    4    4    0    0  0.23447819626E+02 -0.32782941542E+03  0.10650904143E+03  0.35735490979E+03  0.91304051299E+02 0.  0.
          4    1    3    3  502    0  0.78938226726E+02  0.20422250120E+02 -0.13294129877E+03  0.15595416268E+03  0.00000000000E+00 0. -1.
         -1    1    3    3    0  502  0.27035856180E+03 -0.76168684104E+02 -0.42743427404E+03  0.51146405446E+03  0.00000000000E+00 0.  1.
         13    1    5    5    0    0 -0.18506190415E+03  0.12513265960E+03 -0.14674941051E+03  0.26728539120E+03  0.00000000000E+00 0. -1.
        -13    1    5    5    0    0 -0.18768270401E+03  0.25844318980E+03 -0.21632114611E+03  0.38576225579E+03  0.00000000000E+00 0.  1.
          3    1    6    6  503    0  0.29646911397E+02 -0.39828855266E+02 -0.15795548281E+01  0.49676675217E+02  0.00000000000E+00 0. -1.
         -3    1    6    6    0  503 -0.61990917705E+01 -0.28800056015E+03  0.10808859626E+03  0.30767823457E+03  0.00000000000E+00 0.  1.
<mgrwt>
<rscale>  0 0.14655021E+04</rscale>
<asrwt>0</asrwt>
<pdfrwt beam="1">  1        2 0.66221823E-01 0.14655021E+04</pdfrwt>
<pdfrwt beam="2">  1       -1 0.19190445E+00 0.14655021E+04</pdfrwt>
<totfact> 0.13889701E+01</totfact>
</mgrwt>
</event>
<event>
12    7  0.1729738E-007  0.1609586E+04  0.7818608E-02  0.8814680E-01
          2   -1    0    0  501    0  0.00000000000E+00  0.00000000000E+00  0.17103162058E+04  0.17103162058E+04  0.00000000000E+00 0. -1.
         -1   -1    0    0    0  501 -0.00000000000E+00 -0.00000000000E+00 -0.37869711730E+03  0.37869711730E+03  0.00000000000E+00 0.  1.
         24    2    1    2    0    0  0.32599846312E+03  0.45329278290E+03  0.34204726710E+03  0.65804440047E+03  0.65396904081E+02 0.  0.
        254    2    1    2    0    0 -0.32599846312E+03 -0.45329278290E+03  0.98957182141E+03  0.14309689227E+04  0.86986799164E+03 0.  0.
         23    2    4    4    0    0  0.21000248397E+01 -0.47024431480E+03  0.97852144330E+03  0.10893994449E+04  0.90292911404E+02 0.  0.
         23    2    4    4    0    0 -0.32809848796E+03  0.16951531894E+02  0.11050378112E+02  0.34156947775E+03  0.92798841809E+02 0.  0.
          4    1    3    3  502    0  0.39551755770E+02  0.24613047838E+02  0.28798281482E+02  0.54767549924E+02  0.00000000000E+00 0. -1.
         -3    1    3    3    0  502  0.28644670735E+03  0.42867973506E+03  0.31324898562E+03  0.60327685054E+03  0.00000000000E+00 0.  1.
         13    1    5    5    0    0 -0.26615191880E+02 -0.34532519077E+03  0.64524289527E+03  0.73232250390E+03  0.00000000000E+00 0. -1.
        -13    1    5    5    0    0  0.28715216720E+02 -0.12491912402E+03  0.33327854803E+03  0.35707694100E+03  0.00000000000E+00 0.  1.
          2    1    6    6  503    0 -0.27817640883E+03  0.45923010864E+02 -0.38109317545E+01  0.28196730406E+03  0.00000000000E+00 0. -1.
         -2    1    6    6    0  503 -0.49922079132E+02 -0.28971478970E+02  0.14861309867E+02  0.59602173699E+02  0.00000000000E+00 0.  1.
<mgrwt>
<rscale>  0 0.16095861E+04</rscale>
<asrwt>0</asrwt>
<pdfrwt beam="1">  1        2 0.26312557E+00 0.16095861E+04</pdfrwt>
<pdfrwt beam="2">  1       -1 0.58261096E-01 0.16095861E+04</pdfrwt>
<totfact> 0.31535397E+01</totfact>
</mgrwt>
</event>
<event>
12    7  0.1729738E-007  0.1560340E+04  0.7818608E-02  0.8845290E-01
          2   -1    0    0  501    0  0.00000000000E+00  0.00000000000E+00  0.24195338274E+04  0.24195338274E+04  0.00000000000E+00 0. -1.
         -1   -1    0    0    0  501 -0.00000000000E+00 -0.00000000000E+00 -0.25156289721E+03  0.25156289721E+03  0.00000000000E+00 0.  1.
         24    2    1    2    0    0  0.36655604394E+03 -0.13308759739E+03  0.12978088012E+04  0.13574359424E+04  0.79050688445E+02 0.  0.
        254    2    1    2    0    0 -0.36655604394E+03  0.13308759739E+03  0.87016212895E+03  0.13136607822E+04  0.90357450052E+03 0.  0.
         23    2    4    4    0    0 -0.58315546338E+01 -0.48406937555E+02  0.89391889282E+03  0.89981811974E+03  0.90578270268E+02 0.  0.
         23    2    4    4    0    0 -0.36072448930E+03  0.18149453494E+03 -0.23756763872E+02  0.41384266241E+03  0.87401041213E+02 0.  0.
          2    1    3    3  502    0  0.32820679107E+03 -0.13995137001E+03  0.11221468379E+04  0.11775056728E+04  0.00000000000E+00 0. -1.
         -1    1    3    3    0  502  0.38349252869E+02  0.68637726247E+01  0.17566196328E+03  0.17993026959E+03  0.00000000000E+00 0.  1.
         13    1    5    5    0    0 -0.20372379350E+01 -0.50657423776E+02  0.89396986681E+03  0.89540630313E+03  0.00000000000E+00 0.  1.
        -13    1    5    5    0    0 -0.37943166988E+01  0.22504862214E+01 -0.50973993361E-01  0.44118166090E+01  0.00000000000E+00 0. -1.
          1    1    6    6  503    0 -0.25599212927E+03  0.94029119426E+02 -0.42852747179E+02  0.27606123141E+03  0.00000000000E+00 0. -1.
         -1    1    6    6    0  503 -0.10473236003E+03  0.87465415516E+02  0.19095983307E+02  0.13778143100E+03  0.00000000000E+00 0.  1.
<mgrwt>
<rscale>  0 0.15603396E+04</rscale>
<asrwt>0</asrwt>
<pdfrwt beam="1">  1        2 0.37223596E+00 0.15603396E+04</pdfrwt>
<pdfrwt beam="2">  1       -1 0.38701986E-01 0.15603396E+04</pdfrwt>
<totfact> 0.27506738E+01</totfact>
</mgrwt>
</event>
<event>
12    7  0.1729738E-007  0.2915333E+04  0.7818608E-02  0.8268330E-01
          2   -1    0    0  501    0  0.00000000000E+00  0.00000000000E+00  0.94732289216E+03  0.94732289216E+03  0.00000000000E+00 0. -1.
         -1   -1    0    0    0  501 -0.00000000000E+00 -0.00000000000E+00 -0.22429441489E+04  0.22429441489E+04  0.00000000000E+00 0.  1.
         24    2    1    2    0    0  0.47266144958E+02  0.81586247141E+03  0.54097932545E+03  0.98328171595E+03  0.79489883875E+02 0.  0.
        254    2    1    2    0    0 -0.47266144958E+02 -0.81586247141E+03 -0.18366005822E+04  0.22069853251E+04  0.91094284459E+03 0.  0.
         23    2    4    4    0    0 -0.12269993417E+03 -0.44122318743E+03 -0.17142232581E+03  0.49610084234E+03  0.83649608536E+02 0.  0.
         23    2    4    4    0    0  0.75433789212E+02 -0.37463928398E+03 -0.16651782564E+04  0.17108844828E+04  0.90896855086E+02 0.  0.
          4    1    3    3  502    0  0.60102207078E+02  0.36019848640E+03  0.23451469497E+03  0.43399581456E+03  0.00000000000E+00 0. -1.
         -3    1    3    3    0  502 -0.12836062120E+02  0.45566398502E+03  0.30646463047E+03  0.54928590139E+03  0.00000000000E+00 0.  1.
         13    1    5    5    0    0 -0.12859643222E+02 -0.15080942018E+02  0.73030759884E+01  0.21122030083E+02  0.00000000000E+00 0.  1.
        -13    1    5    5    0    0 -0.10984029095E+03 -0.42614224541E+03 -0.17872540180E+03  0.47497881225E+03  0.00000000000E+00 0. -1.
          3    1    6    6  503    0  0.84466945518E+02 -0.26854129588E+03 -0.13186812505E+04  0.13483950953E+04  0.00000000000E+00 0. -1.
         -3    1    6    6    0  503 -0.90331563059E+01 -0.10609798810E+03 -0.34649700586E+03  0.36248938752E+03  0.00000000000E+00 0.  1.
<mgrwt>
<rscale>  0 0.29153335E+04</rscale>
<asrwt>0</asrwt>
<pdfrwt beam="1">  1        2 0.14574198E+00 0.29153335E+04</pdfrwt>
<pdfrwt beam="2">  1       -1 0.34506833E+00 0.29153335E+04</pdfrwt>
<totfact> 0.44856886E-01</totfact>
</mgrwt>
</event>
<event>
12    7  0.1729738E-007  0.2744089E+04  0.7818608E-02  0.8320840E-01
          2   -1    0    0  501    0  0.00000000000E+00  0.00000000000E+00  0.55141982547E+04  0.55141982547E+04  0.00000000000E+00 0. -1.
         -1   -1    0    0    0  501 -0.00000000000E+00 -0.00000000000E+00 -0.34139262807E+03  0.34139262807E+03  0.00000000000E+00 0.  1.
         24    2    1    2    0    0  0.10111379012E+04  0.68925328212E+03  0.22887542884E+04  0.25965594042E+04  0.79086060841E+02 0.  0.
        254    2    1    2    0    0 -0.10111379012E+04 -0.68925328212E+03  0.28840513382E+04  0.32590314785E+04  0.89781073405E+03 0.  0.
         23    2    4    4    0    0 -0.37048100318E+03 -0.14515278744E+03  0.19786901244E+04  0.20203018334E+04  0.89885394147E+02 0.  0.
         23    2    4    4    0    0 -0.64065689804E+03 -0.54410049468E+03  0.90536121385E+03  0.12387296452E+04  0.91025254455E+02 0.  0.
          4    1    3    3  502    0  0.16085888592E+03  0.76154410515E+02  0.33770635872E+03  0.38173375557E+03  0.00000000000E+00 0. -1.
         -3    1    3    3    0  502  0.85027901529E+03  0.61309887160E+03  0.19510479296E+04  0.22148256487E+04  0.00000000000E+00 0.  1.
         13    1    5    5    0    0 -0.27636721833E+03 -0.86919356141E+02  0.12418248455E+04  0.12751716594E+04  0.00000000000E+00 0.  1.
        -13    1    5    5    0    0 -0.94113784845E+02 -0.58233431300E+02  0.73686527886E+03  0.74513017400E+03  0.00000000000E+00 0. -1.
          3    1    6    6  503    0 -0.63816301495E+03 -0.52737203638E+03  0.89345655338E+03  0.12180467607E+04  0.00000000000E+00 0. -1.
         -3    1    6    6    0  503 -0.24938830862E+01 -0.16728458302E+02  0.11904660472E+02  0.20682884493E+02  0.00000000000E+00 0.  1.
<mgrwt>
<rscale>  0 0.27440894E+04</rscale>
<asrwt>0</asrwt>
<pdfrwt beam="1">  1        2 0.84833813E+00 0.27440894E+04</pdfrwt>
<pdfrwt beam="2">  1       -1 0.52521947E-01 0.27440894E+04</pdfrwt>
<totfact> 0.20611129E-02</totfact>
</mgrwt>
</event>
<event>
12    7  0.1729738E-007  0.2164597E+04  0.7818608E-02  0.8533310E-01
          2   -1    0    0  501    0  0.00000000000E+00  0.00000000000E+00  0.80604036174E+03  0.80604036174E+03  0.00000000000E+00 0. -1.
         -1   -1    0    0    0  501 -0.00000000000E+00 -0.00000000000E+00 -0.14532401525E+04  0.14532401525E+04  0.00000000000E+00 0.  1.
         24    2    1    2    0    0 -0.68007248982E+01 -0.58617445957E+03  0.43827996419E+03  0.73566745238E+03  0.73963008105E+02 0.  0.
        254    2    1    2    0    0  0.68007248982E+01  0.58617445957E+03 -0.10854797549E+04  0.15236130618E+04  0.89413853343E+03 0.  0.
         23    2    4    4    0    0 -0.51818545314E+02 -0.18952430678E+03 -0.50326041942E+02  0.22541468784E+03  0.98358764220E+02 0.  0.
         23    2    4    4    0    0  0.58619270212E+02  0.77569876635E+03 -0.10351537130E+04  0.12981983740E+04  0.92903249732E+02 0.  0.
          4    1    3    3  502    0  0.14349712546E+01 -0.79571344131E+02  0.30296035265E+02  0.85155784901E+02  0.00000000000E+00 0. -1.
         -3    1    3    3    0  502 -0.82356961528E+01 -0.50660311543E+03  0.40798392893E+03  0.65051166747E+03  0.00000000000E+00 0.  1.
         13    1    5    5    0    0  0.22700063681E+01  0.10587988230E+02  0.32574880595E+01  0.11307946415E+02  0.00000000000E+00 0.  1.
        -13    1    5    5    0    0 -0.54088551682E+02 -0.20011229501E+03 -0.53583530002E+02  0.21410674143E+03  0.00000000000E+00 0. -1.
          3    1    6    6  503    0  0.84935789829E+01  0.34526164563E+01 -0.81335887666E+01  0.12256292692E+02  0.00000000000E+00 0.  1.
         -3    1    6    6    0  503  0.50125691229E+02  0.77224614989E+03 -0.10270201242E+04  0.12859420813E+04  0.00000000000E+00 0. -1.
<mgrwt>
<rscale>  0 0.21645972E+04</rscale>
<asrwt>0</asrwt>
<pdfrwt beam="1">  1        2 0.12400621E+00 0.21645972E+04</pdfrwt>
<pdfrwt beam="2">  1       -1 0.22357541E+00 0.21645972E+04</pdfrwt>
<totfact> 0.37147125E+00</totfact>
</mgrwt>
</event>
<event>
12    7  0.1729738E-007  0.1361494E+04  0.7818608E-02  0.8982173E-01
          2   -1    0    0  501    0  0.00000000000E+00  0.00000000000E+00  0.18521451368E+04  0.18521451368E+04  0.00000000000E+00 0. -1.
         -1   -1    0    0    0  501 -0.00000000000E+00 -0.00000000000E+00 -0.25020530899E+03  0.25020530899E+03  0.00000000000E+00 0.  1.
         24    2    1    2    0    0  0.13340863027E+03 -0.30088578865E+03  0.71874613046E+03  0.79456661903E+03  0.80062423056E+02 0.  0.
        254    2    1    2    0    0 -0.13340863027E+03  0.30088578865E+03  0.88319369736E+03  0.13077838268E+04  0.90660758328E+03 0.  0.
         23    2    4    4    0    0 -0.35328101028E+02  0.60729592297E+03  0.46104369577E+03  0.76912717932E+03  0.94545839585E+02 0.  0.
         23    2    4    4    0    0 -0.98080529246E+02 -0.30641013432E+03  0.42215000159E+03  0.53865664745E+03  0.91833541652E+02 0.  0.
          2    1    3    3  502    0  0.18069316599E+02 -0.96029087027E+02  0.14855123770E+03  0.17780763757E+03  0.00000000000E+00 0. -1.
         -1    1    3    3    0  502  0.11533931368E+03 -0.20485670163E+03  0.57019489276E+03  0.61675898146E+03  0.00000000000E+00 0.  1.
         13    1    5    5    0    0 -0.58622075788E+02  0.53789182483E+03  0.38885055643E+03  0.66630992655E+03  0.00000000000E+00 0. -1.
        -13    1    5    5    0    0  0.23293974760E+02  0.69404098143E+02  0.72193139345E+02  0.10281725277E+03  0.00000000000E+00 0.  1.
          1    1    6    6  503    0 -0.11224144368E+03 -0.25344340689E+03  0.32542167420E+03  0.42747042964E+03  0.00000000000E+00 0. -1.
         -1    1    6    6    0  503  0.14160914437E+02 -0.52966727427E+02  0.96728327392E+02  0.11118621782E+03  0.00000000000E+00 0.  1.
<mgrwt>
<rscale>  0 0.13614941E+04</rscale>
<asrwt>0</asrwt>
<pdfrwt beam="1">  1        2 0.28494540E+00 0.13614941E+04</pdfrwt>
<pdfrwt beam="2">  1       -1 0.38493126E-01 0.13614941E+04</pdfrwt>
<totfact> 0.58653305E+01</totfact>
</mgrwt>
</event>
<event>
12    7  0.1729738E-007  0.3179726E+04  0.7818608E-02  0.8194192E-01
          2   -1    0    0  501    0  0.00000000000E+00  0.00000000000E+00  0.13196482050E+04  0.13196482050E+04  0.00000000000E+00 0. -1.
         -1   -1    0    0    0  501 -0.00000000000E+00 -0.00000000000E+00 -0.19154079300E+04  0.19154079300E+04  0.00000000000E+00 0.  1.
         24    2    1    2    0    0 -0.14487882143E+04  0.22912985734E+03 -0.27741175505E+03  0.14947631570E+04  0.76627881836E+02 0.  0.
        254    2    1    2    0    0  0.14487882143E+04 -0.22912985734E+03 -0.31834796991E+03  0.17402929780E+04  0.88078739661E+03 0.  0.
         23    2    4    4    0    0  0.55437815035E+03 -0.40048903423E+02 -0.55590106373E+03  0.79131812134E+03  0.90660510959E+02 0.  0.
         23    2    4    4    0    0  0.89441006395E+03 -0.18908095392E+03  0.23755309383E+03  0.94897485670E+03  0.91656077923E+02 0.  0.
          4    1    3    3  502    0 -0.11687602060E+04  0.15492872560E+03 -0.21510141236E+03  0.11984456378E+04  0.00000000000E+00 0. -1.
         -3    1    3    3    0  502 -0.28002800828E+03  0.74201131745E+02 -0.62310342696E+02  0.29631751919E+03  0.00000000000E+00 0.  1.
         13    1    5    5    0    0  0.31245198597E+02 -0.21120628522E+02 -0.22278738600E+02  0.43802803314E+02  0.00000000000E+00 0. -1.
        -13    1    5    5    0    0  0.52313295175E+03 -0.18928274901E+02 -0.53362232513E+03  0.74751531803E+03  0.00000000000E+00 0.  1.
          2    1    6    6  503    0  0.58762706087E+02 -0.28302011100E+02  0.35837636994E+02  0.74420398307E+02  0.00000000000E+00 0. -1.
         -2    1    6    6    0  503  0.83564735787E+03 -0.16077894282E+03  0.20171545683E+03  0.87455445839E+03  0.00000000000E+00 0.  1.
<mgrwt>
<rscale>  0 0.31797262E+04</rscale>
<asrwt>0</asrwt>
<pdfrwt beam="1">  1        2 0.20302280E+00 0.31797262E+04</pdfrwt>
<pdfrwt beam="2">  1       -1 0.29467814E+00 0.31797262E+04</pdfrwt>
<totfact> 0.55299099E-01</totfact>
</mgrwt>
</event>
<event>
12    7  0.1729738E-007  0.2296688E+04  0.7818608E-02  0.8479228E-01
          2   -1    0    0  501    0  0.00000000000E+00  0.00000000000E+00  0.23136984445E+04  0.23136984445E+04  0.00000000000E+00 0. -1.
         -1   -1    0    0    0  501 -0.00000000000E+00 -0.00000000000E+00 -0.56995043659E+03  0.56995043659E+03  0.00000000000E+00 0.  1.
         24    2    1    2    0    0 -0.42403488956E+02  0.91677757691E+03  0.11796466378E+04  0.14967277623E+04  0.79678246815E+02 0.  0.
        254    2    1    2    0    0  0.42403488956E+02 -0.91677757691E+03  0.56410137013E+03  0.13869211188E+04  0.87353342955E+03 0.  0.
         23    2    4    4    0    0  0.76769159504E+02 -0.96242434422E+03  0.71250012262E+03  0.12034588267E+04  0.92209547040E+02 0.  0.
         23    2    4    4    0    0 -0.34365670548E+02  0.45646767315E+02 -0.14839875249E+03  0.18346229211E+03  0.91496427276E+02 0.  0.
          2    1    3    3  502    0 -0.10109572960E+02  0.15830025868E+03  0.25561624644E+03  0.30083357659E+03  0.00000000000E+00 0. -1.
         -1    1    3    3    0  502 -0.32293915996E+02  0.75847731823E+03  0.92403039131E+03  0.11958941857E+04  0.00000000000E+00 0.  1.
         13    1    5    5    0    0  0.70616232031E+02 -0.71373046442E+03  0.57476566761E+03  0.91910467344E+03  0.00000000000E+00 0.  1.
        -13    1    5    5    0    0  0.61529274727E+01 -0.24869387980E+03  0.13773445501E+03  0.28435415324E+03  0.00000000000E+00 0. -1.
          1    1    6    6  503    0 -0.35572786306E+02 -0.14950762344E+02 -0.95551353292E+02  0.10304857853E+03  0.00000000000E+00 0.  1.
         -1    1    6    6    0  503  0.12071157583E+01  0.60597529659E+02 -0.52847399201E+02  0.80413713579E+02  0.00000000000E+00 0. -1.
<mgrwt>
<rscale>  0 0.22966876E+04</rscale>
<asrwt>0</asrwt>
<pdfrwt beam="1">  1        2 0.35595360E+00 0.22966876E+04</pdfrwt>
<pdfrwt beam="2">  1       -1 0.87684684E-01 0.22966876E+04</pdfrwt>
<totfact> 0.58776108E+00</totfact>
</mgrwt>
</event>
<event>
12    7  0.1729738E-007  0.1689511E+04  0.7818608E-02  0.8767369E-01
         -1   -1    0    0    0  501 -0.00000000000E+00  0.00000000000E+00  0.41092863369E+03  0.41092863369E+03  0.00000000000E+00 0.  1.
          2   -1    0    0  501    0  0.00000000000E+00 -0.00000000000E+00 -0.17365834504E+04  0.17365834504E+04  0.00000000000E+00 0. -1.
         24    2    1    2    0    0  0.13296846363E+03  0.56590110422E+03 -0.64657945906E+03  0.87338609338E+03  0.82544528365E+02 0.  0.
        254    2    1    2    0    0 -0.13296846363E+03 -0.56590110422E+03 -0.67907535766E+03  0.12741259907E+04  0.90792567248E+03 0.  0.
         23    2    4    4    0    0 -0.41283512804E+03  0.19581991911E+02 -0.27546110967E+03  0.50415784347E+03  0.86487055904E+02 0.  0.
         23    2    4    4    0    0  0.27986666442E+03 -0.58548309613E+03 -0.40361424799E+03  0.76996814724E+03  0.93971702569E+02 0.  0.
          2    1    3    3  502    0  0.11088016068E+03  0.48249527986E+03 -0.59007357130E+03  0.77024861224E+03  0.00000000000E+00 0. -1.
         -1    1    3    3    0  502  0.22088302950E+02  0.83405824361E+02 -0.56505887763E+02  0.10313748114E+03  0.00000000000E+00 0.  1.
         13    1    5    5    0    0 -0.55172074754E+01 -0.12434332842E+02 -0.10587608917E+02  0.17238029880E+02  0.00000000000E+00 0.  1.
        -13    1    5    5    0    0 -0.40731792057E+03  0.32016324753E+02 -0.26487350075E+03  0.48691981359E+03  0.00000000000E+00 0. -1.
          4    1    6    6  503    0  0.15033458671E+03 -0.26380174124E+03 -0.13993393957E+03  0.33432522203E+03  0.00000000000E+00 0. -1.
         -4    1    6    6    0  503  0.12953207771E+03 -0.32168135488E+03 -0.26368030843E+03  0.43564292521E+03  0.00000000000E+00 0.  1.
<mgrwt>
<rscale>  0 0.16895110E+04</rscale>
<asrwt>0</asrwt>
<pdfrwt beam="1">  1        2 0.26716669E+00 0.16895110E+04</pdfrwt>
<pdfrwt beam="2">  1       -1 0.63219788E-01 0.16895110E+04</pdfrwt>
<totfact> 0.25760868E+01</totfact>
</mgrwt>
</event>
<event>
12    7  0.1729738E-007  0.2883348E+04  0.7818608E-02  0.8277849E-01
          2   -1    0    0  501    0  0.00000000000E+00  0.00000000000E+00  0.10360904376E+04  0.10360904376E+04  0.00000000000E+00 0. -1.
         -1   -1    0    0    0  501 -0.00000000000E+00 -0.00000000000E+00 -0.20060258033E+04  0.20060258033E+04  0.00000000000E+00 0.  1.
         24    2    1    2    0    0  0.31286739286E+03 -0.20104826897E+03 -0.17538231737E+04  0.17945532632E+04  0.78862398671E+02 0.  0.
        254    2    1    2    0    0 -0.31286739286E+03  0.20104826897E+03  0.78388780796E+03  0.12475629777E+04  0.89645238355E+03 0.  0.
         23    2    4    4    0    0  0.28349944068E+03 -0.44603898672E+02  0.36698034500E+03  0.47389325160E+03  0.86826261285E+02 0.  0.
         23    2    4    4    0    0 -0.59636683354E+03  0.24565216764E+03  0.41690746295E+03  0.77366972614E+03  0.93566152297E+02 0.  0.
          2    1    3    3  502    0  0.93295813762E+02 -0.49018858875E+02 -0.34882720217E+03  0.36440001971E+03  0.00000000000E+00 0. -1.
         -1    1    3    3    0  502  0.21957157910E+03 -0.15202941010E+03 -0.14049959715E+04  0.14301532435E+04  0.00000000000E+00 0.  1.
         13    1    5    5    0    0  0.84277182312E+02 -0.42112664718E+02  0.16613512542E+03  0.19098952822E+03  0.00000000000E+00 0. -1.
        -13    1    5    5    0    0  0.19922225837E+03 -0.24912339545E+01  0.20084521958E+03  0.28290372338E+03  0.00000000000E+00 0.  1.
          3    1    6    6  503    0 -0.21306924829E+03  0.13185023475E+03  0.13675847571E+03  0.28545729916E+03  0.00000000000E+00 0. -1.
         -3    1    6    6    0  503 -0.38329758526E+03  0.11380193289E+03  0.28014898725E+03  0.48821242697E+03  0.00000000000E+00 0.  1.
<mgrwt>
<rscale>  0 0.28833482E+04</rscale>
<asrwt>0</asrwt>
<pdfrwt beam="1">  1        2 0.15939853E+00 0.28833482E+04</pdfrwt>
<pdfrwt beam="2">  1       -1 0.30861935E+00 0.28833482E+04</pdfrwt>
<totfact> 0.68294846E-01</totfact>
</mgrwt>
</event>
<event>
12    7  0.1729738E-007  0.1903052E+04  0.7818608E-02  0.8653339E-01
          2   -1    0    0  501    0  0.00000000000E+00  0.00000000000E+00  0.37876573165E+04  0.37876573165E+04  0.00000000000E+00 0. -1.
         -1   -1    0    0    0  501 -0.00000000000E+00 -0.00000000000E+00 -0.23904001726E+03  0.23904001726E+03  0.00000000000E+00 0.  1.
         24    2    1    2    0    0 -0.14769937885E+00 -0.55063627361E+02  0.29116709122E+04  0.29132121890E+04  0.77108576690E+02 0.  0.
        254    2    1    2    0    0  0.14769937885E+00  0.55063627361E+02  0.63694638705E+03  0.11134851447E+04  0.91165587951E+03 0.  0.
         23    2    4    4    0    0 -0.43598546995E+03  0.12723858767E+03  0.31175585388E+03  0.55817321093E+03  0.89959061623E+02 0.  0.
         23    2    4    4    0    0  0.43613316933E+03 -0.72174960314E+02  0.32519053317E+03  0.55531193378E+03  0.84859263835E+02 0.  0.
          4    1    3    3  502    0  0.16727862921E+00 -0.56671112119E+02  0.29108101046E+04  0.29113617275E+04  0.00000000000E+00 0. -1.
         -3    1    3    3    0  502 -0.31497800805E+00  0.16074847587E+01  0.86080756637E+00  0.18504615806E+01  0.00000000000E+00 0.  1.
         13    1    5    5    0    0 -0.23381281164E+03  0.26694488217E+02  0.18413334139E+03  0.29880782118E+03  0.00000000000E+00 0. -1.
        -13    1    5    5    0    0 -0.20217265831E+03  0.10054409946E+03  0.12762251249E+03  0.25936538975E+03  0.00000000000E+00 0.  1.
          4    1    6    6  503    0  0.42324945960E+03 -0.52513929988E+02  0.30508764990E+03  0.52438181892E+03  0.00000000000E+00 0. -1.
         -4    1    6    6    0  503  0.12883709729E+02 -0.19661030326E+02  0.20102883268E+02  0.30930114865E+02  0.00000000000E+00 0.  1.
<mgrwt>
<rscale>  0 0.19030519E+04</rscale>
<asrwt>0</asrwt>
<pdfrwt beam="1">  1        2 0.58271646E+00 0.19030519E+04</pdfrwt>
<pdfrwt beam="2">  1       -1 0.36775390E-01 0.19030519E+04</pdfrwt>
<totfact> 0.38338719E+00</totfact>
</mgrwt>
</event>
<event>
12    7  0.1729738E-007  0.1611576E+04  0.7818608E-02  0.8813468E-01
         -1   -1    0    0    0  501 -0.00000000000E+00  0.00000000000E+00  0.95925800074E+03  0.95925800074E+03  0.00000000000E+00 0.  1.
          2   -1    0    0  501    0  0.00000000000E+00 -0.00000000000E+00 -0.67687170605E+03  0.67687170605E+03  0.00000000000E+00 0. -1.
         24    2    1    2    0    0  0.42179699653E+03  0.19799608238E+03  0.40331250747E+03  0.62108182869E+03  0.77243150738E+02 0.  0.
        254    2    1    2    0    0 -0.42179699653E+03 -0.19799608238E+03 -0.12092621277E+03  0.10150478781E+04  0.89363521135E+03 0.  0.
         23    2    4    4    0    0  0.13508411063E+03 -0.37756440216E+03 -0.63641837461E+02  0.41817205161E+03  0.10007490467E+03 0.  0.
         23    2    4    4    0    0 -0.55688110715E+03  0.17956831978E+03 -0.57284375314E+02  0.59687582649E+03  0.10304321240E+03 0.  0.
          4    1    3    3  502    0  0.16408583376E+03  0.95907412057E+02  0.12029065238E+03  0.22492717394E+03  0.00000000000E+00 0. -1.
         -3    1    3    3    0  502  0.25771116277E+03  0.10208867033E+03  0.28302185509E+03  0.39615465475E+03  0.00000000000E+00 0.  1.
         13    1    5    5    0    0  0.74484899588E+02 -0.25071168462E+03  0.52946158725E+01  0.26159583718E+03  0.00000000000E+00 0. -1.
        -13    1    5    5    0    0  0.60599211037E+02 -0.12685271754E+03 -0.68936453333E+02  0.15657621443E+03  0.00000000000E+00 0.  1.
          1    1    6    6  503    0 -0.47694043785E+03  0.14879214038E+03 -0.85111739525E+02  0.50680892899E+03  0.00000000000E+00 0. -1.
         -1    1    6    6    0  503 -0.79940669299E+02  0.30776179400E+02  0.27827364211E+02  0.90066897501E+02  0.00000000000E+00 0.  1.
<mgrwt>
<rscale>  0 0.16115764E+04</rscale>
<asrwt>0</asrwt>
<pdfrwt beam="1">  1        2 0.10413411E+00 0.16115764E+04</pdfrwt>
<pdfrwt beam="2">  1       -1 0.14757815E+00 0.16115764E+04</pdfrwt>
<totfact> 0.17053022E+01</totfact>
</mgrwt>
</event>
<event>
12    7  0.1729738E-007  0.1063103E+04  0.7818608E-02  0.9241920E-01
         -1   -1    0    0    0  501 -0.00000000000E+00  0.00000000000E+00  0.10811405089E+03  0.10811405089E+03  0.00000000000E+00 0.  1.
          2   -1    0    0  501    0  0.00000000000E+00 -0.00000000000E+00 -0.26134147395E+04  0.26134147395E+04  0.00000000000E+00 0. -1.
         24    2    1    2    0    0  0.12455269129E+03 -0.20756134519E+02 -0.41853054337E+03  0.44406464073E+03  0.77983327593E+02 0.  0.
        254    2    1    2    0    0 -0.12455269129E+03  0.20756134519E+02 -0.20867701452E+04  0.22774641497E+04  0.90348720186E+03 0.  0.
         23    2    4    4    0    0  0.32481088822E+03  0.11368953022E+03 -0.44170353986E+03  0.56729200904E+03  0.91053742386E+02 0.  0.
         23    2    4    4    0    0 -0.44936357952E+03 -0.92933395697E+02 -0.16450666054E+04  0.17101721406E+04  0.88771458357E+02 0.  0.
          2    1    3    3  502    0 -0.48802957386E+01  0.13381459601E+02 -0.32495928926E+02  0.35480503721E+02  0.00000000000E+00 0. -1.
         -1    1    3    3    0  502  0.12943298703E+03 -0.34137594121E+02 -0.38603461444E+03  0.40858413701E+03  0.00000000000E+00 0.  1.
         13    1    5    5    0    0  0.12367057774E+03  0.26803259672E+01 -0.12327240638E+03  0.17463585577E+03  0.00000000000E+00 0. -1.
        -13    1    5    5    0    0  0.20114031049E+03  0.11100920425E+03 -0.31843113348E+03  0.39265615327E+03  0.00000000000E+00 0.  1.
          4    1    6    6  503    0 -0.37514984558E+03 -0.51424411146E+02 -0.14186223081E+04  0.14682885035E+04  0.00000000000E+00 0. -1.
         -4    1    6    6    0  503 -0.74213733941E+02 -0.41508984551E+02 -0.22644429732E+03  0.24188363709E+03  0.00000000000E+00 0.  1.
<mgrwt>
<rscale>  0 0.10631027E+04</rscale>
<asrwt>0</asrwt>
<pdfrwt beam="1">  1        2 0.40206380E+00 0.10631027E+04</pdfrwt>
<pdfrwt beam="2">  1       -1 0.16632931E-01 0.10631027E+04</pdfrwt>
<totfact> 0.95235366E+01</totfact>
</mgrwt>
</event>
<event>
12    7  0.1729738E-007  0.2390625E+04  0.7818608E-02  0.8443022E-01
         -1   -1    0    0    0  501 -0.00000000000E+00  0.00000000000E+00  0.23911399365E+04  0.23911399365E+04  0.00000000000E+00 0.  1.
          2   -1    0    0  501    0  0.00000000000E+00 -0.00000000000E+00 -0.59752739596E+03  0.59752739596E+03  0.00000000000E+00 0. -1.
         24    2    1    2    0    0 -0.26394754355E+03  0.95698519521E+03  0.47261527778E+03  0.11023141995E+04  0.79009011768E+02 0.  0.
        254    2    1    2    0    0  0.26394754355E+03 -0.95698519521E+03  0.13209972628E+04  0.18863531330E+04  0.90983812001E+03 0.  0.
         23    2    4    4    0    0  0.23756446718E+03 -0.64036281824E+03  0.13873434316E+04  0.15489449978E+04  0.89484043575E+02 0.  0.
         23    2    4    4    0    0  0.26383076374E+02 -0.31662237697E+03 -0.66346168833E+02  0.33740813519E+03  0.92177216569E+02 0.  0.
          4    1    3    3  502    0 -0.17389160675E+03  0.64379315450E+03  0.27606998331E+03  0.72174964660E+03  0.00000000000E+00 0. -1.
         -3    1    3    3    0  502 -0.90055936800E+02  0.31319204071E+03  0.19654529446E+03  0.38056455286E+03  0.00000000000E+00 0.  1.
         13    1    5    5    0    0  0.39004748576E+02 -0.22029635685E+03  0.42381845314E+03  0.47924308704E+03  0.00000000000E+00 0. -1.
        -13    1    5    5    0    0  0.19855971860E+03 -0.42006646138E+03  0.96352497847E+03  0.10697019108E+04  0.00000000000E+00 0.  1.
          1    1    6    6  503    0  0.22126859488E+02 -0.46356036217E+02 -0.41374879216E+02  0.65957263699E+02  0.00000000000E+00 0. -1.
         -1    1    6    6    0  503  0.42562168858E+01 -0.27026634076E+03 -0.24971289617E+02  0.27145087149E+03  0.00000000000E+00 0.  1.
<mgrwt>
<rscale>  0 0.23906247E+04</rscale>
<asrwt>0</asrwt>
<pdfrwt beam="1">  1        2 0.91927293E-01 0.23906247E+04</pdfrwt>
<pdfrwt beam="2">  1       -1 0.36786768E+00 0.23906247E+04</pdfrwt>
<totfact> 0.60482781E-01</totfact>
</mgrwt>
</event>
<event>
12    7  0.1729738E-007  0.2190417E+04  0.7818608E-02  0.8522428E-01
         -1   -1    0    0    0  501 -0.00000000000E+00  0.00000000000E+00  0.78646353719E+03  0.78646353719E+03  0.00000000000E+00 0.  1.
          2   -1    0    0  501    0  0.00000000000E+00 -0.00000000000E+00 -0.15251579731E+04  0.15251579731E+04  0.00000000000E+00 0. -1.
         24    2    1    2    0    0 -0.39130453337E+02  0.89737269896E+03 -0.44443972646E+03  0.10052671455E+04  0.78907605619E+02 0.  0.
        254    2    1    2    0    0  0.39130453337E+02 -0.89737269896E+03 -0.29425470948E+03  0.13063543648E+04  0.90175769423E+03 0.  0.
         23    2    4    4    0    0 -0.21437256427E+03 -0.21804597876E+03 -0.45674053664E+03  0.55726627192E+03  0.91837545917E+02 0.  0.
         23    2    4    4    0    0  0.25350301761E+03 -0.67932672020E+03  0.16248582717E+03  0.74908809286E+03  0.94777392479E+02 0.  0.
          4    1    3    3  502    0 -0.17675106947E+02  0.94482158857E+02 -0.71105721038E+02  0.11956300144E+03  0.00000000000E+00 0. -1.
         -3    1    3    3    0  502 -0.21455346389E+02  0.80289054010E+03 -0.37333400542E+03  0.88570414410E+03  0.00000000000E+00 0.  1.
         13    1    5    5    0    0 -0.20116868500E+03 -0.22569635645E+03 -0.44510466039E+03  0.53807605767E+03  0.00000000000E+00 0. -1.
        -13    1    5    5    0    0 -0.13203879272E+02  0.76503776916E+01 -0.11635876254E+02  0.19190214247E+02  0.00000000000E+00 0.  1.
          1    1    6    6  503    0  0.14952479094E+03 -0.44612662407E+03  0.61530990612E+02  0.47452364600E+03  0.00000000000E+00 0. -1.
         -1    1    6    6    0  503  0.10397822667E+03 -0.23320009613E+03  0.10095483655E+03  0.27456444686E+03  0.00000000000E+00 0.  1.
<mgrwt>
<rscale>  0 0.21904165E+04</rscale>
<asrwt>0</asrwt>
<pdfrwt beam="1">  1        2 0.23463969E+00 0.21904165E+04</pdfrwt>
<pdfrwt beam="2">  1       -1 0.12099439E+00 0.21904165E+04</pdfrwt>
<totfact> 0.77667206E+00</totfact>
</mgrwt>
</event>
<event>
12    7  0.1729738E-007  0.1338708E+04  0.7818608E-02  0.8999420E-01
         -1   -1    0    0    0  501 -0.00000000000E+00  0.00000000000E+00  0.22241782672E+03  0.22241782672E+03  0.00000000000E+00 0.  1.
          2   -1    0    0  501    0  0.00000000000E+00 -0.00000000000E+00 -0.20143831986E+04  0.20143831986E+04  0.00000000000E+00 0. -1.
         24    2    1    2    0    0  0.18452711333E+02 -0.37215904873E+03 -0.54327686106E+03  0.66248047036E+03  0.69912557750E+02 0.  0.
        254    2    1    2    0    0 -0.18452711333E+02  0.37215904873E+03 -0.12486885108E+04  0.15743205550E+04  0.88341346642E+03 0.  0.
         23    2    4    4    0    0 -0.28478101943E+03  0.91173308185E+02 -0.11112192701E+04  0.11542919277E+04  0.90381341748E+02 0.  0.
         23    2    4    4    0    0  0.26632830810E+03  0.28098574054E+03 -0.13746924072E+03  0.42002862728E+03  0.87421401884E+02 0.  0.
          4    1    3    3  502    0 -0.10120477237E+02 -0.26974472924E+03 -0.42460272688E+03  0.50314224499E+03  0.00000000000E+00 0. -1.
         -3    1    3    3    0  502  0.28573188570E+02 -0.10241431948E+03 -0.11867413418E+03  0.15933822537E+03  0.00000000000E+00 0.  1.
         13    1    5    5    0    0 -0.11860487934E+02 -0.14370017074E+02 -0.93619032358E+02  0.95455182072E+02  0.00000000000E+00 0. -1.
        -13    1    5    5    0    0 -0.27292053150E+03  0.10554332526E+03 -0.10176002378E+04  0.10588367456E+04  0.00000000000E+00 0.  1.
          2    1    6    6  503    0  0.61114290795E+02  0.10860405303E+03 -0.15523729181E+02  0.12558177830E+03  0.00000000000E+00 0. -1.
         -2    1    6    6    0  503  0.20521401730E+03  0.17238168751E+03 -0.12194551154E+03  0.29444684898E+03  0.00000000000E+00 0.  1.
<mgrwt>
<rscale>  0 0.13387079E+04</rscale>
<asrwt>0</asrwt>
<pdfrwt beam="1">  1        2 0.30990510E+00 0.13387079E+04</pdfrwt>
<pdfrwt beam="2">  1       -1 0.34218128E-01 0.13387079E+04</pdfrwt>
<totfact> 0.59068853E+01</totfact>
</mgrwt>
</event>
<event>
12    7  0.1729738E-007  0.2299519E+04  0.7818608E-02  0.8478111E-01
         -1   -1    0    0    0  501 -0.00000000000E+00  0.00000000000E+00  0.13756030175E+04  0.13756030175E+04  0.00000000000E+00 0.  1.
          2   -1    0    0  501    0  0.00000000000E+00 -0.00000000000E+00 -0.96099418725E+03  0.96099418725E+03  0.00000000000E+00 0. -1.
         24    2    1    2    0    0  0.49897704107E+03 -0.74657241198E+02 -0.67062232849E+03  0.84294809547E+03  0.79217378253E+02 0.  0.
        254    2    1    2    0    0 -0.49897704107E+03  0.74657241198E+02  0.10852311587E+04  0.14936491092E+04  0.89370532197E+03 0.  0.
         23    2    4    4    0    0 -0.47444167602E+03  0.71451416512E+01  0.12246112276E+04  0.13165370468E+04  0.91930298281E+02 0.  0.
         23    2    4    4    0    0 -0.24535365047E+02  0.67512099547E+02 -0.13938006894E+03  0.17711206243E+03  0.82352967886E+02 0.  0.
          2    1    3    3  502    0  0.42976932659E+03 -0.35610082234E+02 -0.56464812660E+03  0.71049085772E+03  0.00000000000E+00 0. -1.
         -1    1    3    3    0  502  0.69207714475E+02 -0.39047158964E+02 -0.10597420190E+03  0.13245723775E+03  0.00000000000E+00 0.  1.
         13    1    5    5    0    0 -0.45871834483E+03  0.46758325584E+01  0.11135522583E+04  0.12043433959E+04  0.00000000000E+00 0.  1.
        -13    1    5    5    0    0 -0.15723331194E+02  0.24693090928E+01  0.11105896931E+03  0.11219365087E+03  0.00000000000E+00 0. -1.
          2    1    6    6  503    0 -0.55135788191E+02  0.43753248505E+02 -0.94298605394E+02  0.11767127463E+03  0.00000000000E+00 0. -1.
         -2    1    6    6    0  503  0.30600423144E+02  0.23758851041E+02 -0.45081463544E+02  0.59440787803E+02  0.00000000000E+00 0.  1.
<mgrwt>
<rscale>  0 0.22995186E+04</rscale>
<asrwt>0</asrwt>
<pdfrwt beam="1">  1        2 0.14784526E+00 0.22995186E+04</pdfrwt>
<pdfrwt beam="2">  1       -1 0.21163123E+00 0.22995186E+04</pdfrwt>
<totfact> 0.34598141E+00</totfact>
</mgrwt>
</event>
<event>
12    7  0.1729738E-007  0.1391855E+04  0.7818608E-02  0.8959736E-01
          2   -1    0    0  501    0  0.00000000000E+00  0.00000000000E+00  0.10742434396E+04  0.10742434396E+04  0.00000000000E+00 0. -1.
         -1   -1    0    0    0  501 -0.00000000000E+00 -0.00000000000E+00 -0.45084285848E+03  0.45084285848E+03  0.00000000000E+00 0.  1.
         24    2    1    2    0    0 -0.25815932271E+03 -0.19305771350E+03 -0.85890235389E+02  0.34255203396E+03  0.77764045595E+02 0.  0.
        254    2    1    2    0    0  0.25815932271E+03  0.19305771350E+03  0.70929081650E+03  0.11825342641E+04  0.88959333786E+03 0.  0.
         23    2    4    4    0    0  0.27444633043E+03 -0.25322243011E+03  0.60351512902E+03  0.71558791915E+03  0.91614254753E+02 0.  0.
         23    2    4    4    0    0 -0.16287007721E+02  0.44628014361E+03  0.10577568747E+03  0.46694634495E+03  0.86134544766E+02 0.  0.
          2    1    3    3  502    0 -0.22072749494E+03 -0.15615531085E+03 -0.41084137034E+02  0.27348311546E+03  0.00000000000E+00 0. -1.
         -1    1    3    3    0  502 -0.37431827776E+02 -0.36902402653E+02 -0.44806098355E+02  0.69068918495E+02  0.00000000000E+00 0.  1.
         13    1    5    5    0    0  0.24306996925E+03 -0.18714784998E+03  0.43920065071E+03  0.53572804601E+03  0.00000000000E+00 0. -1.
        -13    1    5    5    0    0  0.31376361184E+02 -0.66074580132E+02  0.16431447832E+03  0.17985987314E+03  0.00000000000E+00 0.  1.
          2    1    6    6  503    0 -0.67714469698E+01  0.43020407191E+03  0.84220978117E+02  0.43842282004E+03  0.00000000000E+00 0. -1.
         -2    1    6    6    0  503 -0.95155607516E+01  0.16076071705E+02  0.21554709356E+02  0.28523524910E+02  0.00000000000E+00 0.  1.
<mgrwt>
<rscale>  0 0.13918549E+04</rscale>
<asrwt>0</asrwt>
<pdfrwt beam="1">  1        2 0.16526822E+00 0.13918549E+04</pdfrwt>
<pdfrwt beam="2">  1       -1 0.69360440E-01 0.13918549E+04</pdfrwt>
<totfact> 0.52797248E+01</totfact>
</mgrwt>
</event>
<event>
12    7  0.1729738E-007  0.1945316E+04  0.7818608E-02  0.8632623E-01
          2   -1    0    0  501    0  0.00000000000E+00  0.00000000000E+00  0.21020479947E+04  0.21020479947E+04  0.00000000000E+00 0. -1.
         -1   -1    0    0    0  501 -0.00000000000E+00 -0.00000000000E+00 -0.45006744093E+03  0.45006744093E+03  0.00000000000E+00 0.  1.
         24    2    1    2    0    0 -0.36559398806E+03  0.54651927117E+02  0.15225522614E+04  0.15688902455E+04  0.81273713413E+02 0.  0.
        254    2    1    2    0    0  0.36559398806E+03 -0.54651927117E+02  0.12942829237E+03  0.98322519012E+03  0.90185048338E+03 0.  0.
         23    2    4    4    0    0 -0.49157655664E+02  0.13958715966E+03  0.40534278325E+03  0.44116654434E+03  0.91782883283E+02 0.  0.
         23    2    4    4    0    0  0.41475164373E+03 -0.19423908677E+03 -0.27591449088E+03  0.54205864578E+03  0.89168494344E+02 0.  0.
          2    1    3    3  502    0 -0.29902910650E+03  0.35010190984E+02  0.10904295718E+04  0.11312297605E+04  0.00000000000E+00 0. -1.
         -1    1    3    3    0  502 -0.66564881560E+02  0.19641736133E+02  0.43212268962E+03  0.43766048501E+03  0.00000000000E+00 0.  1.
         13    1    5    5    0    0 -0.61780952205E+02  0.13853312167E+03  0.39928322109E+03  0.42712457492E+03  0.00000000000E+00 0.  1.
        -13    1    5    5    0    0  0.12623296541E+02  0.10540379836E+01  0.60595621516E+01  0.14041969417E+02  0.00000000000E+00 0. -1.
          2    1    6    6  503    0  0.19203795585E+03 -0.77376487390E+02 -0.75196433148E+02  0.22027301434E+03  0.00000000000E+00 0. -1.
         -2    1    6    6    0  503  0.22271368787E+03 -0.11686259938E+03 -0.20071805773E+03  0.32178563144E+03  0.00000000000E+00 0.  1.
<mgrwt>
<rscale>  0 0.19453158E+04</rscale>
<asrwt>0</asrwt>
<pdfrwt beam="1">  1        2 0.32339199E+00 0.19453158E+04</pdfrwt>
<pdfrwt beam="2">  1       -1 0.69241146E-01 0.19453158E+04</pdfrwt>
<totfact> 0.13137872E+01</totfact>
</mgrwt>
</event>
<event>
12    7  0.1729738E-007  0.2324883E+04  0.7818608E-02  0.8468174E-01
         -1   -1    0    0    0  501 -0.00000000000E+00  0.00000000000E+00  0.64255096084E+03  0.64255096084E+03  0.00000000000E+00 0.  1.
          2   -1    0    0  501    0  0.00000000000E+00 -0.00000000000E+00 -0.21029783886E+04  0.21029783886E+04  0.00000000000E+00 0. -1.
         24    2    1    2    0    0 -0.19827864296E+03 -0.42118691738E+03 -0.16477035925E+04  0.17140026589E+04  0.78518446969E+02 0.  0.
        254    2    1    2    0    0  0.19827864296E+03  0.42118691738E+03  0.18727616473E+03  0.10315266905E+04  0.90125585252E+03 0.  0.
         23    2    4    4    0    0 -0.89423712211E+02  0.18007908171E+03  0.49222930851E+03  0.53916529597E+03  0.89355739862E+02 0.  0.
         23    2    4    4    0    0  0.28770235517E+03  0.24110783567E+03 -0.30495314378E+03  0.49236139452E+03  0.92291328515E+02 0.  0.
          4    1    3    3  502    0 -0.15307710229E+03 -0.38454629748E+03 -0.14395901275E+04  0.14979079375E+04  0.00000000000E+00 0. -1.
         -3    1    3    3    0  502 -0.45201540672E+02 -0.36640619903E+02 -0.20811346499E+03  0.21609472140E+03  0.00000000000E+00 0.  1.
         13    1    5    5    0    0 -0.14326887123E+02  0.47644512290E+02  0.46298612190E+02  0.67961906512E+02  0.00000000000E+00 0.  1.
        -13    1    5    5    0    0 -0.75096825088E+02  0.13243456942E+03  0.44593069632E+03  0.47120338946E+03  0.00000000000E+00 0. -1.
          3    1    6    6  503    0  0.19049415482E+03  0.21122071893E+03 -0.21435535183E+03  0.35616068281E+03  0.00000000000E+00 0. -1.
         -3    1    6    6    0  503  0.97208200350E+02  0.29887116744E+02 -0.90597791956E+02  0.13620071171E+03  0.00000000000E+00 0.  1.
<mgrwt>
<rscale>  0 0.23248835E+04</rscale>
<asrwt>0</asrwt>
<pdfrwt beam="1">  1        2 0.32353514E+00 0.23248835E+04</pdfrwt>
<pdfrwt beam="2">  1       -1 0.98853993E-01 0.23248835E+04</pdfrwt>
<totfact> 0.58967909E+00</totfact>
</mgrwt>
</event>
<event>
12    7  0.1729738E-007  0.1722318E+04  0.7818608E-02  0.8748737E-01
         -1   -1    0    0    0  501 -0.00000000000E+00  0.00000000000E+00  0.29065466527E+03  0.29065466527E+03  0.00000000000E+00 0.  1.
          2   -1    0    0  501    0  0.00000000000E+00 -0.00000000000E+00 -0.25514647202E+04  0.25514647202E+04  0.00000000000E+00 0. -1.
         24    2    1    2    0    0 -0.39385133879E+03  0.47573474897E+02 -0.33893319784E+02  0.40549436677E+03  0.76777677574E+02 0.  0.
        254    2    1    2    0    0  0.39385133879E+03 -0.47573474897E+02 -0.22269167352E+04  0.24366250187E+04  0.90587042336E+03 0.  0.
         23    2    4    4    0    0  0.28792700452E+02 -0.42137729703E+03 -0.12747243070E+04  0.13465996122E+04  0.10010300048E+03 0.  0.
         23    2    4    4    0    0  0.36505863834E+03  0.37380382213E+03 -0.95219242822E+03  0.10900254066E+04  0.92129581134E+02 0.  0.
          4    1    3    3  502    0 -0.11441860982E+03  0.37114303530E+02  0.16331892381E+02  0.12139118793E+03  0.00000000000E+00 0. -1.
         -3    1    3    3    0  502 -0.27943272897E+03  0.10459171367E+02 -0.50225212165E+02  0.28410317883E+03  0.00000000000E+00 0.  1.
         13    1    5    5    0    0  0.50063078398E+01 -0.19596911158E+02 -0.16321183792E+03  0.16446034806E+03  0.00000000000E+00 0.  1.
        -13    1    5    5    0    0  0.23786392612E+02 -0.40178038587E+03 -0.11115124690E+04  0.11821392641E+04  0.00000000000E+00 0. -1.
          1    1    6    6  503    0 -0.29813370429E+00  0.25902999747E+02 -0.41213594859E+02  0.48678688159E+02  0.00000000000E+00 0.  1.
         -1    1    6    6    0  503  0.36535677204E+03  0.34790082238E+03 -0.91097883336E+03  0.10413467184E+04  0.00000000000E+00 0. -1.
<mgrwt>
<rscale>  0 0.17223183E+04</rscale>
<asrwt>0</asrwt>
<pdfrwt beam="1">  1        2 0.39253303E+00 0.17223183E+04</pdfrwt>
<pdfrwt beam="2">  1       -1 0.44716103E-01 0.17223183E+04</pdfrwt>
<totfact> 0.17446585E+01</totfact>
</mgrwt>
</event>
<event>
12    7  0.1729738E-007  0.1692295E+04  0.7818608E-02  0.8765771E-01
         -1   -1    0    0    0  501 -0.00000000000E+00  0.00000000000E+00  0.65142429335E+03  0.65142429335E+03  0.00000000000E+00 0.  1.
          2   -1    0    0  501    0  0.00000000000E+00 -0.00000000000E+00 -0.10990769307E+04  0.10990769307E+04  0.00000000000E+00 0. -1.
         24    2    1    2    0    0 -0.23017311929E+03  0.33085807708E+03  0.30096164018E+03  0.50920819446E+03  0.79172876846E+02 0.  0.
        254    2    1    2    0    0  0.23017311929E+03 -0.33085807708E+03 -0.74861427752E+03  0.12412930296E+04  0.90439942325E+03 0.  0.
         23    2    4    4    0    0  0.53613815663E+03 -0.22315339711E+03 -0.67468915535E+03  0.89602824114E+03  0.10207639757E+03 0.  0.
         23    2    4    4    0    0 -0.30596503734E+03 -0.10770467997E+03 -0.73925122168E+02  0.34526478845E+03  0.92346891080E+02 0.  0.
          4    1    3    3  502    0 -0.12843915294E+03  0.11947627957E+03  0.11369406625E+03  0.20903956106E+03  0.00000000000E+00 0. -1.
         -3    1    3    3    0  502 -0.10173396634E+03  0.21138179751E+03  0.18726757393E+03  0.30016863339E+03  0.00000000000E+00 0.  1.
         13    1    5    5    0    0  0.36785217983E+03 -0.11060372716E+03 -0.39742097617E+03  0.55271316518E+03  0.00000000000E+00 0. -1.
        -13    1    5    5    0    0  0.16828597680E+03 -0.11254966996E+03 -0.27726817918E+03  0.34331507596E+03  0.00000000000E+00 0.  1.
          4    1    6    6  503    0 -0.43299994830E+02 -0.36671283285E+02 -0.43441407168E+02  0.71462076843E+02  0.00000000000E+00 0. -1.
         -4    1    6    6    0  503 -0.26266504251E+03 -0.71033396684E+02 -0.30483714999E+02  0.27380271160E+03  0.00000000000E+00 0.  1.
<mgrwt>
<rscale>  0 0.16922948E+04</rscale>
<asrwt>0</asrwt>
<pdfrwt beam="1">  1        2 0.16908876E+00 0.16922948E+04</pdfrwt>
<pdfrwt beam="2">  1       -1 0.10021912E+00 0.16922948E+04</pdfrwt>
<totfact> 0.22470454E+01</totfact>
</mgrwt>
</event>
<event>
12    7  0.1729738E-007  0.2064094E+04  0.7818608E-02  0.8577227E-01
         -1   -1    0    0    0  501 -0.00000000000E+00  0.00000000000E+00  0.46594308686E+03  0.46594308686E+03  0.00000000000E+00 0.  1.
          2   -1    0    0  501    0  0.00000000000E+00 -0.00000000000E+00 -0.22859466795E+04  0.22859466795E+04  0.00000000000E+00 0. -1.
         24    2    1    2    0    0  0.36106241716E+03  0.71538843179E+02 -0.16956965204E+04  0.17369990272E+04  0.79341389882E+02 0.  0.
        254    2    1    2    0    0 -0.36106241716E+03 -0.71538843179E+02 -0.12430707225E+03  0.10148907391E+04  0.93758577687E+03 0.  0.
         23    2    4    4    0    0 -0.42276872889E+03  0.33190699754E+03  0.76781503057E+02  0.55059062599E+03  0.91427485336E+02 0.  0.
         23    2    4    4    0    0  0.61706311725E+02 -0.40344584072E+03 -0.20108857530E+03  0.46430011313E+03  0.92529804040E+02 0.  0.
          2    1    3    3  502    0  0.17190368708E+03 -0.61407665102E+01 -0.76300682545E+03  0.78215599616E+03  0.00000000000E+00 0. -1.
         -1    1    3    3    0  502  0.18915873009E+03  0.77679609689E+02 -0.93268969491E+03  0.95484303103E+03  0.00000000000E+00 0.  1.
         13    1    5    5    0    0 -0.29004843628E+03  0.26797407936E+03  0.81440602496E+02  0.40320066261E+03  0.00000000000E+00 0.  1.
        -13    1    5    5    0    0 -0.13272029261E+03  0.63932918188E+02 -0.46590994387E+01  0.14738996338E+03  0.00000000000E+00 0. -1.
          2    1    6    6  503    0  0.85740072332E+02 -0.28785763552E+03 -0.14027026100E+03  0.33149528571E+03  0.00000000000E+00 0. -1.
         -2    1    6    6    0  503 -0.24033760608E+02 -0.11558820521E+03 -0.60818314306E+02  0.13280482742E+03  0.00000000000E+00 0.  1.
<mgrwt>
<rscale>  0 0.20640940E+04</rscale>
<asrwt>0</asrwt>
<pdfrwt beam="1">  1        2 0.35168411E+00 0.20640940E+04</pdfrwt>
<pdfrwt beam="2">  1       -1 0.71683551E-01 0.20640940E+04</pdfrwt>
<totfact> 0.95440958E+00</totfact>
</mgrwt>
</event>
<event>
12    7  0.1729738E-007  0.1442096E+04  0.7818608E-02  0.8923899E-01
         -1   -1    0    0    0  501 -0.00000000000E+00  0.00000000000E+00  0.32435736613E+03  0.32435736613E+03  0.00000000000E+00 0.  1.
          2   -1    0    0  501    0  0.00000000000E+00 -0.00000000000E+00 -0.16028933171E+04  0.16028933171E+04  0.00000000000E+00 0. -1.
         24    2    1    2    0    0 -0.30868651984E+03 -0.48280733005E+02  0.15757321470E+02  0.32327700835E+03  0.81494381624E+02 0.  0.
        254    2    1    2    0    0  0.30868651984E+03  0.48280733005E+02 -0.12942932724E+04  0.16039736749E+04  0.89438139400E+03 0.  0.
         23    2    4    4    0    0  0.22690298774E+03  0.44824745600E+03 -0.55487562672E+03  0.75425197628E+03  0.92727207108E+02 0.  0.
         23    2    4    4    0    0  0.81783532104E+02 -0.39996672299E+03 -0.73941764572E+03  0.84972169861E+03  0.92879409261E+02 0.  0.
          4    1    3    3  502    0 -0.12494845308E+03  0.10692117735E+02 -0.20094062991E+02  0.12700475848E+03  0.00000000000E+00 0. -1.
         -3    1    3    3    0  502 -0.18373806676E+03 -0.58972850740E+02  0.35851384462E+02  0.19627224987E+03  0.00000000000E+00 0.  1.
         13    1    5    5    0    0  0.45446145087E+02  0.18795002440E+03 -0.22091986310E+03  0.29359180794E+03  0.00000000000E+00 0. -1.
        -13    1    5    5    0    0  0.18145684265E+03  0.26029743160E+03 -0.33395576362E+03  0.46066016834E+03  0.00000000000E+00 0.  1.
          3    1    6    6  503    0  0.18980423230E+02 -0.32675271307E+02 -0.29443152433E+02  0.47904373978E+02  0.00000000000E+00 0. -1.
         -3    1    6    6    0  503  0.62803108874E+02 -0.36729145168E+03 -0.70997449328E+03  0.80181732463E+03  0.00000000000E+00 0.  1.
<mgrwt>
<rscale>  0 0.14420961E+04</rscale>
<asrwt>0</asrwt>
<pdfrwt beam="1">  1        2 0.24659897E+00 0.14420961E+04</pdfrwt>
<pdfrwt beam="2">  1       -1 0.49901133E-01 0.14420961E+04</pdfrwt>
<totfact> 0.49485263E+01</totfact>
</mgrwt>
</event>
<event>
12    7  0.1729738E-007  0.2949854E+04  0.7818608E-02  0.8258197E-01
         -3   -1    0    0    0  501 -0.00000000000E+00  0.00000000000E+00  0.27732276391E+04  0.27732276391E+04  0.00000000000E+00 0.  1.
          4   -1    0    0  501    0  0.00000000000E+00 -0.00000000000E+00 -0.78443249219E+03  0.78443249219E+03  0.00000000000E+00 0. -1.
         24    2    1    2    0    0  0.25649739936E+02 -0.28790825204E+03 -0.67094978670E+03  0.73478411810E+03  0.78644854750E+02 0.  0.
        254    2    1    2    0    0 -0.25649739936E+02  0.28790825204E+03  0.26597449336E+04  0.28228760132E+04  0.90046477069E+03 0.  0.
         23    2    4    4    0    0  0.40859441889E+03  0.84803754212E+01  0.12801787936E+04  0.13469274043E+04  0.91292786526E+02 0.  0.
         23    2    4    4    0    0 -0.43424415882E+03  0.27942787662E+03  0.13795661400E+04  0.14759486089E+04  0.92593918973E+02 0.  0.
          2    1    3    3  502    0  0.64864165093E+01 -0.27733017536E+03 -0.62938982992E+03  0.68781222567E+03  0.00000000000E+00 0. -1.
         -1    1    3    3    0  502  0.19163323427E+02 -0.10578076680E+02 -0.41559956779E+02  0.46971892430E+02  0.00000000000E+00 0.  1.
         13    1    5    5    0    0  0.38030568972E+03 -0.14820833841E+02  0.11965343849E+04  0.12556060724E+04  0.00000000000E+00 0. -1.
        -13    1    5    5    0    0  0.28288729161E+02  0.23301209262E+02  0.83644408689E+02  0.91321331875E+02  0.00000000000E+00 0.  1.
          4    1    6    6  503    0 -0.13934746910E+03  0.65564975286E+02  0.31190849045E+03  0.34785541471E+03  0.00000000000E+00 0. -1.
         -4    1    6    6    0  503 -0.29489668972E+03  0.21386290133E+03  0.10676576495E+04  0.11280931942E+04  0.00000000000E+00 0.  1.
<mgrwt>
<rscale>  0 0.29498541E+04</rscale>
<asrwt>0</asrwt>
<pdfrwt beam="1">  1        4 0.12068192E+00 0.29498541E+04</pdfrwt>
<pdfrwt beam="2">  1       -3 0.42665040E+00 0.29498541E+04</pdfrwt>
<totfact> 0.77170102E-03</totfact>
</mgrwt>
</event>
<event>
12    7  0.1729738E-007  0.1295750E+04  0.7818608E-02  0.9032942E-01
          2   -1    0    0  501    0  0.00000000000E+00  0.00000000000E+00  0.28606590292E+04  0.28606590292E+04  0.00000000000E+00 0. -1.
         -1   -1    0    0    0  501 -0.00000000000E+00 -0.00000000000E+00 -0.14672909317E+03  0.14672909317E+03  0.00000000000E+00 0.  1.
         24    2    1    2    0    0  0.13505773471E+03  0.29799066098E+03  0.53454086288E+03  0.63095048498E+03  0.72976398006E+02 0.  0.
        254    2    1    2    0    0 -0.13505773471E+03 -0.29799066098E+03  0.21793890731E+04  0.23764376373E+04  0.88920193798E+03 0.  0.
         23    2    4    4    0    0 -0.43514488475E+03 -0.41360117311E+03  0.12716683079E+04  0.14093432444E+04  0.93226038782E+02 0.  0.
         23    2    4    4    0    0  0.30008715004E+03  0.11561051214E+03  0.90772076523E+03  0.96709439290E+03  0.88862191114E+02 0.  0.
          2    1    3    3  502    0  0.94263544689E+02  0.22458374627E+03  0.45058517634E+03  0.51220159711E+03  0.00000000000E+00 0. -1.
         -1    1    3    3    0  502  0.40794190020E+02  0.73406914707E+02  0.83955686541E+02  0.11874888786E+03  0.00000000000E+00 0.  1.
         13    1    5    5    0    0 -0.31452865796E+03 -0.35213930547E+03  0.99236998513E+03  0.10989670398E+04  0.00000000000E+00 0. -1.
        -13    1    5    5    0    0 -0.12061622679E+03 -0.61461867644E+02  0.27929832274E+03  0.31037620467E+03  0.00000000000E+00 0.  1.
          1    1    6    6  503    0  0.12282368214E+03  0.72058825864E+02  0.29176870510E+03  0.32466460933E+03  0.00000000000E+00 0. -1.
         -1    1    6    6    0  503  0.17726346790E+03  0.43551686272E+02  0.61595206014E+03  0.64242978357E+03  0.00000000000E+00 0.  1.
<mgrwt>
<rscale>  0 0.12957498E+04</rscale>
<asrwt>0</asrwt>
<pdfrwt beam="1">  1        2 0.44010135E+00 0.12957498E+04</pdfrwt>
<pdfrwt beam="2">  1       -1 0.22573709E-01 0.12957498E+04</pdfrwt>
<totfact> 0.39923498E+01</totfact>
</mgrwt>
</event>
<event>
12    7  0.1729738E-007  0.2522761E+04  0.7818608E-02  0.8394921E-01
         -1   -1    0    0    0  501 -0.00000000000E+00  0.00000000000E+00  0.14401933147E+04  0.14401933147E+04  0.00000000000E+00 0.  1.
          2   -1    0    0  501    0  0.00000000000E+00 -0.00000000000E+00 -0.11047690310E+04  0.11047690310E+04  0.00000000000E+00 0. -1.
         24    2    1    2    0    0 -0.17729568704E+02 -0.10990621877E+04  0.15884927015E+03  0.11135039276E+04  0.80036716998E+02 0.  0.
        254    2    1    2    0    0  0.17729568704E+02  0.10990621877E+04  0.17657501347E+03  0.14314584181E+04  0.89980133216E+03 0.  0.
         23    2    4    4    0    0 -0.11947876149E+03  0.56453609770E+03  0.51314170952E+03  0.77777378429E+03  0.92959482693E+02 0.  0.
         23    2    4    4    0    0  0.13720833019E+03  0.53452609001E+03 -0.33656669605E+03  0.65368463383E+03  0.97376551807E+02 0.  0.
          2    1    3    3  502    0  0.20304784065E+02 -0.17558554713E+03  0.43883148682E+02  0.18212166086E+03  0.00000000000E+00 0. -1.
         -1    1    3    3    0  502 -0.38034352769E+02 -0.92347664058E+03  0.11496612146E+03  0.93138226673E+03  0.00000000000E+00 0.  1.
         13    1    5    5    0    0 -0.59668800953E+02  0.30187133890E+03  0.33465445223E+03  0.45462102179E+03  0.00000000000E+00 0.  1.
        -13    1    5    5    0    0 -0.59809960534E+02  0.26266475880E+03  0.17848725729E+03  0.32315276250E+03  0.00000000000E+00 0. -1.
          1    1    6    6  503    0  0.16849300149E+02  0.21873861282E+03 -0.99604790321E+02  0.24093898379E+03  0.00000000000E+00 0. -1.
         -1    1    6    6    0  503  0.12035903004E+03  0.31578747719E+03 -0.23696190573E+03  0.41274565004E+03  0.00000000000E+00 0.  1.
<mgrwt>
<rscale>  0 0.25227612E+04</rscale>
<asrwt>0</asrwt>
<pdfrwt beam="1">  1        2 0.16996447E+00 0.25227612E+04</pdfrwt>
<pdfrwt beam="2">  1       -1 0.22156820E+00 0.25227612E+04</pdfrwt>
<totfact> 0.23586212E+00</totfact>
</mgrwt>
</event>
<event>
12    7  0.1729738E-007  0.1303430E+04  0.7818608E-02  0.9026850E-01
         -1   -1    0    0    0  501 -0.00000000000E+00  0.00000000000E+00  0.38614912298E+03  0.38614912298E+03  0.00000000000E+00 0.  1.
          2   -1    0    0  501    0  0.00000000000E+00 -0.00000000000E+00 -0.10999179035E+04  0.10999179035E+04  0.00000000000E+00 0. -1.
         24    2    1    2    0    0  0.47659382063E+02  0.12659373240E+03  0.19301950938E+03  0.24905031774E+03  0.80449611461E+02 0.  0.
        254    2    1    2    0    0 -0.47659382063E+02 -0.12659373240E+03 -0.90678828991E+03  0.12370167088E+04  0.83045044719E+03 0.  0.
         23    2    4    4    0    0 -0.46852623935E+02 -0.22730633304E+03 -0.10264396983E+04  0.10563174737E+04  0.91459355052E+02 0.  0.
         23    2    4    4    0    0 -0.80675812727E+00  0.10071260064E+03  0.11965140841E+03  0.18069923502E+03  0.90510083508E+02 0.  0.
          2    1    3    3  502    0  0.19404909824E+02  0.38393302184E+02  0.10353781840E+02  0.44246999630E+02  0.00000000000E+00 0. -1.
         -1    1    3    3    0  502  0.28254472238E+02  0.88200430215E+02  0.18266572754E+03  0.20480331811E+03  0.00000000000E+00 0.  1.
         13    1    5    5    0    0 -0.35784198290E+02 -0.97223230585E+02 -0.28009427945E+03  0.29863970063E+03  0.00000000000E+00 0. -1.
        -13    1    5    5    0    0 -0.11068425645E+02 -0.13008310245E+03 -0.74634541887E+03  0.75767777310E+03  0.00000000000E+00 0.  1.
          1    1    6    6  503    0  0.23916046924E+02  0.53038361428E+02  0.10596194140E+02  0.59138180677E+02  0.00000000000E+00 0. -1.
         -1    1    6    6    0  503 -0.24722805051E+02  0.47674239209E+02  0.10905521427E+03  0.12156105434E+03  0.00000000000E+00 0.  1.
<mgrwt>
<rscale>  0 0.13034298E+04</rscale>
<asrwt>0</asrwt>
<pdfrwt beam="1">  1        2 0.16921814E+00 0.13034298E+04</pdfrwt>
<pdfrwt beam="2">  1       -1 0.59407558E-01 0.13034298E+04</pdfrwt>
<totfact> 0.69943177E+01</totfact>
</mgrwt>
</event>
<event>
12    7  0.1729738E-007  0.1765020E+04  0.7818608E-02  0.8725126E-01
          2   -1    0    0  501    0  0.00000000000E+00  0.00000000000E+00  0.17001841488E+04  0.17001841488E+04  0.00000000000E+00 0. -1.
         -1   -1    0    0    0  501 -0.00000000000E+00 -0.00000000000E+00 -0.45808216593E+03  0.45808216593E+03  0.00000000000E+00 0.  1.
         24    2    1    2    0    0 -0.75723915835E+01  0.30815972621E+03 -0.24130910854E+03  0.39905844687E+03  0.77445465862E+02 0.  0.
        254    2    1    2    0    0  0.75723915835E+01 -0.30815972621E+03  0.14834110914E+04  0.17592078679E+04  0.89402690021E+03 0.  0.
         23    2    4    4    0    0  0.31885313252E+03 -0.11501235079E+03  0.16575882780E+03  0.38836042401E+03  0.91938397828E+02 0.  0.
         23    2    4    4    0    0 -0.31128074094E+03 -0.19314737542E+03  0.13176522636E+04  0.13708474439E+04  0.93880872529E+02 0.  0.
          4    1    3    3  502    0  0.19727872194E+02  0.25712090653E+02 -0.13268574837E+02  0.35019360720E+02  0.00000000000E+00 0. -1.
         -3    1    3    3    0  502 -0.27300263777E+02  0.28244763556E+03 -0.22804053370E+03  0.36403908615E+03  0.00000000000E+00 0.  1.
         13    1    5    5    0    0  0.20582571609E+02 -0.94630970225E+01  0.43727950113E+02  0.49247599743E+02  0.00000000000E+00 0.  1.
        -13    1    5    5    0    0  0.29827056091E+03 -0.10554925377E+03  0.12203087768E+03  0.33911282427E+03  0.00000000000E+00 0. -1.
          3    1    6    6  503    0 -0.47047460278E+02 -0.69222069716E+02  0.36603812456E+03  0.37548510901E+03  0.00000000000E+00 0.  1.
         -3    1    6    6    0  503 -0.26423328066E+03 -0.12392530570E+03  0.95161413904E+03  0.99536233485E+03  0.00000000000E+00 0. -1.
<mgrwt>
<rscale>  0 0.17650202E+04</rscale>
<asrwt>0</asrwt>
<pdfrwt beam="1">  1        2 0.26156679E+00 0.17650202E+04</pdfrwt>
<pdfrwt beam="2">  1       -1 0.70474180E-01 0.17650202E+04</pdfrwt>
<totfact> 0.21513083E+01</totfact>
</mgrwt>
</event>
<event>
12    7  0.1729738E-007  0.2614188E+04  0.7818608E-02  0.8363398E-01
          2   -1    0    0  501    0  0.00000000000E+00  0.00000000000E+00  0.10889202043E+04  0.10889202043E+04  0.00000000000E+00 0. -1.
         -1   -1    0    0    0  501 -0.00000000000E+00 -0.00000000000E+00 -0.15689801274E+04  0.15689801274E+04  0.00000000000E+00 0.  1.
         24    2    1    2    0    0  0.23315820104E+03  0.49652274723E+03 -0.12407711667E+04  0.13589446033E+04  0.79496928135E+02 0.  0.
        254    2    1    2    0    0 -0.23315820104E+03 -0.49652274723E+03  0.76071124365E+03  0.12989557284E+04  0.89872509864E+03 0.  0.
         23    2    4    4    0    0  0.20845581857E+03 -0.13819500642E+03  0.66354475128E+03  0.71505730798E+03  0.91997981775E+02 0.  0.
         23    2    4    4    0    0 -0.44161401960E+03 -0.35832774081E+03  0.97166492374E+02  0.58389842043E+03  0.89857253472E+02 0.  0.
          2    1    3    3  502    0  0.17367248436E+03  0.30909745228E+03 -0.86478346739E+03  0.93464100718E+03  0.00000000000E+00 0. -1.
         -1    1    3    3    0  502  0.59485716677E+02  0.18742529495E+03 -0.37598769930E+03  0.42430359615E+03  0.00000000000E+00 0.  1.
         13    1    5    5    0    0  0.54123810894E+02  0.46427021506E+01  0.17330849460E+03  0.18162261943E+03  0.00000000000E+00 0. -1.
        -13    1    5    5    0    0  0.15433200767E+03 -0.14283770857E+03  0.49023625668E+03  0.53343468855E+03  0.00000000000E+00 0.  1.
          3    1    6    6  503    0 -0.63369718664E+02 -0.58369661668E+02  0.48080386269E+02  0.98663378163E+02  0.00000000000E+00 0. -1.
         -3    1    6    6    0  503 -0.37824430094E+03 -0.29995807914E+03  0.49086106105E+02  0.48523504227E+03  0.00000000000E+00 0.  1.
<mgrwt>
<rscale>  0 0.26141876E+04</rscale>
<asrwt>0</asrwt>
<pdfrwt beam="1">  1        2 0.16752619E+00 0.26141876E+04</pdfrwt>
<pdfrwt beam="2">  1       -1 0.24138156E+00 0.26141876E+04</pdfrwt>
<totfact> 0.17696008E+00</totfact>
</mgrwt>
</event>
<event>
12    7  0.1729738E-007  0.2674226E+04  0.7818608E-02  0.8343416E-01
          2   -1    0    0  501    0  0.00000000000E+00  0.00000000000E+00  0.13566131723E+04  0.13566131723E+04  0.00000000000E+00 0. -1.
         -1   -1    0    0    0  501 -0.00000000000E+00 -0.00000000000E+00 -0.13178931827E+04  0.13178931827E+04  0.00000000000E+00 0.  1.
         24    2    1    2    0    0  0.96921714149E+02  0.78689823094E+03  0.89917587952E+03  0.12013363655E+04  0.78033045286E+02 0.  0.
        254    2    1    2    0    0 -0.96921714149E+02 -0.78689823094E+03 -0.86045588986E+03  0.14731699895E+04  0.89512168735E+03 0.  0.
         23    2    4    4    0    0 -0.99842916234E+01  0.17549785254E+03 -0.27760927883E+03  0.34099957213E+03  0.91184506193E+02 0.  0.
         23    2    4    4    0    0 -0.86937422525E+02 -0.96239608349E+03 -0.58284661102E+03  0.11321704174E+04  0.91298111373E+02 0.  0.
          4    1    3    3  502    0  0.64764443890E+01  0.23142884511E+03  0.22108392061E+03  0.32012396760E+03  0.00000000000E+00 0. -1.
         -3    1    3    3    0  502  0.90445269760E+02  0.55546938584E+03  0.67809195891E+03  0.88121239787E+03  0.00000000000E+00 0.  1.
         13    1    5    5    0    0  0.35008594899E+02  0.34770754352E+02 -0.55769455620E+02  0.74463677422E+02  0.00000000000E+00 0.  1.
        -13    1    5    5    0    0 -0.44992886522E+02  0.14072709819E+03 -0.22183982321E+03  0.26653589470E+03  0.00000000000E+00 0. -1.
          2    1    6    6  503    0 -0.94462535065E+02 -0.65682802688E+03 -0.42670043843E+03  0.78893567011E+03  0.00000000000E+00 0.  1.
         -2    1    6    6    0  503  0.75251125391E+01 -0.30556805661E+03 -0.15614617260E+03  0.34323474730E+03  0.00000000000E+00 0. -1.
<mgrwt>
<rscale>  0 0.26742261E+04</rscale>
<asrwt>0</asrwt>
<pdfrwt beam="1">  1        2 0.20870972E+00 0.26742261E+04</pdfrwt>
<pdfrwt beam="2">  1       -1 0.20275280E+00 0.26742261E+04</pdfrwt>
<totfact> 0.22115625E+00</totfact>
</mgrwt>
</event>
<event>
12    7  0.1729738E-007  0.1408820E+04  0.7818608E-02  0.8947459E-01
          2   -1    0    0  501    0  0.00000000000E+00  0.00000000000E+00  0.19260373550E+04  0.19260373550E+04  0.00000000000E+00 0. -1.
         -1   -1    0    0    0  501 -0.00000000000E+00 -0.00000000000E+00 -0.25762387481E+03  0.25762387481E+03  0.00000000000E+00 0.  1.
         24    2    1    2    0    0 -0.39649913984E+03  0.50559478436E+02  0.33598389827E+03  0.52846264738E+03  0.81361913874E+02 0.  0.
        254    2    1    2    0    0  0.39649913984E+03 -0.50559478436E+02  0.13324295819E+04  0.16551985824E+04  0.89696484197E+03 0.  0.
         23    2    4    4    0    0  0.65596353852E+03 -0.39588095356E+02  0.11448592546E+04  0.13232584999E+04  0.91950876298E+02 0.  0.
         23    2    4    4    0    0 -0.25946439867E+03 -0.10971383080E+02  0.18757032732E+03  0.33194008249E+03  0.86945070279E+02 0.  0.
          4    1    3    3  502    0 -0.13304614420E+03 -0.26851829613E+01  0.15570158492E+03  0.20482058061E+03  0.00000000000E+00 0. -1.
         -3    1    3    3    0  502 -0.26345299565E+03  0.53244661397E+02  0.18028231335E+03  0.32364206678E+03  0.00000000000E+00 0.  1.
         13    1    5    5    0    0  0.11006953122E+03 -0.70534871109E+01  0.13040978106E+03  0.17079743669E+03  0.00000000000E+00 0. -1.
        -13    1    5    5    0    0  0.54589400730E+03 -0.32534608246E+02  0.10144494735E+04  0.11524610632E+04  0.00000000000E+00 0.  1.
          4    1    6    6  503    0 -0.21453714804E+03  0.24957908992E+02  0.15485028817E+03  0.26575871925E+03  0.00000000000E+00 0.  1.
         -4    1    6    6    0  503 -0.44927250635E+02 -0.35929292072E+02  0.32720039143E+02  0.66181363237E+02  0.00000000000E+00 0. -1.
<mgrwt>
<rscale>  0 0.14088197E+04</rscale>
<asrwt>0</asrwt>
<pdfrwt beam="1">  1        2 0.29631343E+00 0.14088197E+04</pdfrwt>
<pdfrwt beam="2">  1       -1 0.39634444E-01 0.14088197E+04</pdfrwt>
<totfact> 0.50428650E+01</totfact>
</mgrwt>
</event>
<event>
12    7  0.1729738E-007  0.2144294E+04  0.7818608E-02  0.8541979E-01
          2   -1    0    0  501    0  0.00000000000E+00  0.00000000000E+00  0.20113005365E+04  0.20113005365E+04  0.00000000000E+00 0. -1.
         -1   -1    0    0    0  501 -0.00000000000E+00 -0.00000000000E+00 -0.57152030756E+03  0.57152030756E+03  0.00000000000E+00 0.  1.
         24    2    1    2    0    0 -0.35466392844E+03 -0.87502129700E+02 -0.37172358270E+03  0.52715006845E+03  0.79155845583E+02 0.  0.
        254    2    1    2    0    0  0.35466392844E+03  0.87502129700E+02  0.18115038116E+04  0.20556707756E+04  0.90044053291E+03 0.  0.
         23    2    4    4    0    0  0.63840286788E+03  0.84631828590E+02  0.14371085618E+04  0.15772045412E+04  0.87019412755E+02 0.  0.
         23    2    4    4    0    0 -0.28373893943E+03  0.28703011097E+01  0.37439524980E+03  0.47846623441E+03  0.90786067273E+02 0.  0.
          4    1    3    3  502    0 -0.10021236849E+03  0.10508841634E+02 -0.90484368909E+02  0.13542664275E+03  0.00000000000E+00 0. -1.
         -3    1    3    3    0  502 -0.25445155995E+03 -0.98010971334E+02 -0.28123921379E+03  0.39172342570E+03  0.00000000000E+00 0.  1.
         13    1    5    5    0    0  0.56275823085E+03  0.90293109078E+02  0.13184606115E+04  0.14363801920E+04  0.00000000000E+00 0. -1.
        -13    1    5    5    0    0  0.75644637023E+02 -0.56612804874E+01  0.11864795031E+03  0.14082434917E+03  0.00000000000E+00 0.  1.
          3    1    6    6  503    0 -0.26019733554E+03  0.20081718916E+02  0.29490515107E+03  0.39379560306E+03  0.00000000000E+00 0. -1.
         -3    1    6    6    0  503 -0.23541603893E+02 -0.17211417806E+02  0.79490098733E+02  0.84670631351E+02  0.00000000000E+00 0.  1.
<mgrwt>
<rscale>  0 0.21442939E+04</rscale>
<asrwt>0</asrwt>
<pdfrwt beam="1">  1        2 0.30943085E+00 0.21442939E+04</pdfrwt>
<pdfrwt beam="2">  1       -1 0.87926202E-01 0.21442939E+04</pdfrwt>
<totfact> 0.87516774E+00</totfact>
</mgrwt>
</event>
<event>
12    7  0.1729738E-007  0.2162862E+04  0.7818608E-02  0.8534047E-01
         -1   -1    0    0    0  501 -0.00000000000E+00  0.00000000000E+00  0.11107451665E+04  0.11107451665E+04  0.00000000000E+00 0.  1.
          2   -1    0    0  501    0  0.00000000000E+00 -0.00000000000E+00 -0.10528900169E+04  0.10528900169E+04  0.00000000000E+00 0. -1.
         24    2    1    2    0    0 -0.41447233902E+03 -0.33122618876E+03  0.74277506820E+03  0.91624361378E+03  0.79306052192E+02 0.  0.
        254    2    1    2    0    0  0.41447233902E+03  0.33122618876E+03 -0.68491991859E+03  0.12473915696E+04  0.89742538697E+03 0.  0.
         23    2    4    4    0    0  0.38525629676E+03  0.27836411605E+02 -0.81239874854E+03  0.90420864054E+03  0.91674745642E+02 0.  0.
         23    2    4    4    0    0  0.29216042262E+02  0.30338977715E+03  0.12747882996E+03  0.34318292909E+03  0.92869460681E+02 0.  0.
          4    1    3    3  502    0 -0.19640337524E+03 -0.12947282086E+03  0.27250522982E+03  0.35999527417E+03  0.00000000000E+00 0. -1.
         -3    1    3    3    0  502 -0.21806896378E+03 -0.20175336790E+03  0.47026983838E+03  0.55624833961E+03  0.00000000000E+00 0.  1.
         13    1    5    5    0    0  0.13929837278E+03  0.27941061513E+02 -0.21012261073E+03  0.25364591682E+03  0.00000000000E+00 0. -1.
        -13    1    5    5    0    0  0.24595792398E+03 -0.10464990783E+00 -0.60227613781E+03  0.65056272372E+03  0.00000000000E+00 0.  1.
          4    1    6    6  503    0  0.11762356860E+02  0.29441378488E+02 -0.13658609373E+02  0.34521086544E+02  0.00000000000E+00 0. -1.
         -4    1    6    6    0  503  0.17453685402E+02  0.27394839866E+03  0.14113743933E+03  0.30866184255E+03  0.00000000000E+00 0.  1.
<mgrwt>
<rscale>  0 0.21628615E+04</rscale>
<asrwt>0</asrwt>
<pdfrwt beam="1">  1        2 0.16198308E+00 0.21628615E+04</pdfrwt>
<pdfrwt beam="2">  1       -1 0.17088387E+00 0.21628615E+04</pdfrwt>
<totfact> 0.59081367E+00</totfact>
</mgrwt>
</event>
<event>
12    7  0.1729738E-007  0.1633095E+04  0.7818608E-02  0.8800471E-01
         -1   -1    0    0    0  501 -0.00000000000E+00  0.00000000000E+00  0.12300701365E+04  0.12300701365E+04  0.00000000000E+00 0.  1.
          2   -1    0    0  501    0  0.00000000000E+00 -0.00000000000E+00 -0.54204200923E+03  0.54204200923E+03  0.00000000000E+00 0. -1.
         24    2    1    2    0    0 -0.11111769090E+03  0.20111128455E+03  0.81696436866E+03  0.85245038634E+03  0.80299386724E+02 0.  0.
        254    2    1    2    0    0  0.11111769090E+03 -0.20111128455E+03 -0.12893624143E+03  0.91966175934E+03  0.88111310695E+03 0.  0.
         23    2    4    4    0    0 -0.20361431405E+02 -0.79753323185E+02  0.36419159379E+03  0.38543770166E+03  0.95663600331E+02 0.  0.
         23    2    4    4    0    0  0.13147912231E+03 -0.12135796137E+03 -0.49312783521E+03  0.53422405768E+03  0.10102359900E+03 0.  0.
          2    1    3    3  502    0  0.20688441092E+01  0.48262181171E+02  0.24423468746E+03  0.24896606356E+03  0.00000000000E+00 0. -1.
         -1    1    3    3    0  502 -0.11318653501E+03  0.15284910338E+03  0.57272968120E+03  0.60348432278E+03  0.00000000000E+00 0.  1.
         13    1    5    5    0    0 -0.24375431359E+00 -0.48309476666E+02  0.51829764620E+02  0.70853295283E+02  0.00000000000E+00 0. -1.
        -13    1    5    5    0    0 -0.20117677091E+02 -0.31443846519E+02  0.31236182917E+03  0.31458440638E+03  0.00000000000E+00 0.  1.
          2    1    6    6  503    0  0.11089415171E+02 -0.32777590117E+02 -0.24661636835E+02  0.42491668291E+02  0.00000000000E+00 0. -1.
         -2    1    6    6    0  503  0.12038970714E+03 -0.88580371250E+02 -0.46846619838E+03  0.49173238939E+03  0.00000000000E+00 0.  1.
<mgrwt>
<rscale>  0 0.16330948E+04</rscale>
<asrwt>0</asrwt>
<pdfrwt beam="1">  1        2 0.83391079E-01 0.16330948E+04</pdfrwt>
<pdfrwt beam="2">  1       -1 0.18924156E+00 0.16330948E+04</pdfrwt>
<totfact> 0.10950457E+01</totfact>
</mgrwt>
</event>
<event>
12    7  0.1729738E-007  0.2188719E+04  0.7818608E-02  0.8523138E-01
          2   -1    0    0  501    0  0.00000000000E+00  0.00000000000E+00  0.28174208887E+04  0.28174208887E+04  0.00000000000E+00 0. -1.
         -1   -1    0    0    0  501 -0.00000000000E+00 -0.00000000000E+00 -0.42507752020E+03  0.42507752020E+03  0.00000000000E+00 0.  1.
         24    2    1    2    0    0  0.89403528040E+03 -0.25420939210E+02  0.12245258034E+04  0.15185912513E+04  0.81918487126E+02 0.  0.
        254    2    1    2    0    0 -0.89403528040E+03  0.25420939210E+02  0.11678175651E+04  0.17239071576E+04  0.89895089740E+03 0.  0.
         23    2    4    4    0    0 -0.99572491555E+03  0.19656762021E+03  0.79862730002E+03  0.12947601490E+04  0.92148479576E+02 0.  0.
         23    2    4    4    0    0  0.10168963515E+03 -0.17114668100E+03  0.36919026507E+03  0.42914700862E+03  0.90739929852E+02 0.  0.
          4    1    3    3  502    0  0.11944400204E+03  0.24139189975E+02  0.15826501191E+03  0.19974329553E+03  0.00000000000E+00 0. -1.
         -3    1    3    3    0  502  0.77459127836E+03 -0.49560129185E+02  0.10662607915E+04  0.13188479558E+04  0.00000000000E+00 0.  1.
         13    1    5    5    0    0 -0.42725212652E+03  0.48936482454E+02  0.30041848746E+03  0.52458595725E+03  0.00000000000E+00 0.  1.
        -13    1    5    5    0    0 -0.56847278903E+03  0.14763113776E+03  0.49820881256E+03  0.77017419174E+03  0.00000000000E+00 0. -1.
          4    1    6    6  503    0  0.34332363326E+02 -0.13627677172E+03  0.20830078568E+03  0.25127532110E+03  0.00000000000E+00 0. -1.
         -4    1    6    6    0  503  0.67357271823E+02 -0.34869909286E+02  0.16088947939E+03  0.17787168752E+03  0.00000000000E+00 0.  1.
<mgrwt>
<rscale>  0 0.21887186E+04</rscale>
<asrwt>0</asrwt>
<pdfrwt beam="1">  1        2 0.43344936E+00 0.21887186E+04</pdfrwt>
<pdfrwt beam="2">  1       -1 0.65396543E-01 0.21887186E+04</pdfrwt>
<totfact> 0.55733242E+00</totfact>
</mgrwt>
</event>
<event>
12    7  0.1729738E-007  0.1702936E+04  0.7818608E-02  0.8759692E-01
          2   -1    0    0  501    0  0.00000000000E+00  0.00000000000E+00  0.11804082082E+04  0.11804082082E+04  0.00000000000E+00 0. -1.
         -1   -1    0    0    0  501 -0.00000000000E+00 -0.00000000000E+00 -0.61419227709E+03  0.61419227709E+03  0.00000000000E+00 0.  1.
         24    2    1    2    0    0  0.46167509697E+03 -0.39683778504E+03  0.19606298261E+03  0.64457689335E+03  0.80090920199E+02 0.  0.
        254    2    1    2    0    0 -0.46167509697E+03  0.39683778504E+03  0.37015294853E+03  0.11500235920E+04  0.90272749705E+03 0.  0.
         23    2    4    4    0    0 -0.27947681333E+03  0.67106610716E+03  0.33437212557E+03  0.80550233713E+03  0.92694592078E+02 0.  0.
         23    2    4    4    0    0 -0.18219828364E+03 -0.27422832212E+03  0.35780822963E+02  0.34452125482E+03  0.94959151842E+02 0.  0.
          4    1    3    3  502    0  0.19093522969E+03 -0.13832991347E+03  0.11148147871E+03  0.26080557316E+03  0.00000000000E+00 0. -1.
         -3    1    3    3    0  502  0.27073986728E+03 -0.25850787158E+03  0.84581503896E+02  0.38377132019E+03  0.00000000000E+00 0.  1.
         13    1    5    5    0    0 -0.15316334210E+02  0.55880262001E+02  0.55523726828E+02  0.80250096672E+02  0.00000000000E+00 0. -1.
        -13    1    5    5    0    0 -0.26416047912E+03  0.61518584516E+03  0.27884839874E+03  0.72525224046E+03  0.00000000000E+00 0.  1.
          4    1    6    6  503    0 -0.11600998978E+03 -0.89902665977E+02  0.12681513246E+02  0.14731472383E+03  0.00000000000E+00 0. -1.
         -4    1    6    6    0  503 -0.66188293856E+02 -0.18432565614E+03  0.23099309717E+02  0.19720653099E+03  0.00000000000E+00 0.  1.
<mgrwt>
<rscale>  0 0.17029358E+04</rscale>
<asrwt>0</asrwt>
<pdfrwt beam="1">  1        2 0.18160126E+00 0.17029358E+04</pdfrwt>
<pdfrwt beam="2">  1       -1 0.94491120E-01 0.17029358E+04</pdfrwt>
<totfact> 0.22882987E+01</totfact>
</mgrwt>
</event>
<event>
12    7  0.1729738E-007  0.1661966E+04  0.7818608E-02  0.8783359E-01
         -1   -1    0    0    0  501 -0.00000000000E+00  0.00000000000E+00  0.29390101216E+03  0.29390101216E+03  0.00000000000E+00 0.  1.
          2   -1    0    0  501    0  0.00000000000E+00 -0.00000000000E+00 -0.23495417778E+04  0.23495417778E+04  0.00000000000E+00 0. -1.
         24    2    1    2    0    0 -0.58516545108E+02 -0.35922103097E+03 -0.14574001321E+04  0.15042403275E+04  0.79119419434E+02 0.  0.
        254    2    1    2    0    0  0.58516545108E+02  0.35922103097E+03 -0.59824063347E+03  0.11392024624E+04  0.89856911796E+03 0.  0.
         23    2    4    4    0    0  0.52926128655E+02  0.42975898499E+03  0.78905883552E+02  0.45106349199E+03  0.98682192294E+02 0.  0.
         23    2    4    4    0    0  0.55904164528E+01 -0.70537954020E+02 -0.67714651702E+03  0.68813897045E+03  0.10000490700E+03 0.  0.
          4    1    3    3  502    0 -0.20450960458E+01 -0.23469485708E+03 -0.97352226181E+03  0.10014147256E+04  0.00000000000E+00 0. -1.
         -3    1    3    3    0  502 -0.56471449062E+02 -0.12452617389E+03 -0.48387787033E+03  0.50282560191E+03  0.00000000000E+00 0.  1.
         13    1    5    5    0    0  0.71973672939E+02  0.21038445585E+03  0.58489007536E+02  0.22991910069E+03  0.00000000000E+00 0. -1.
        -13    1    5    5    0    0 -0.19047544284E+02  0.21937452913E+03  0.20416876016E+02  0.22114439130E+03  0.00000000000E+00 0.  1.
          4    1    6    6  503    0 -0.45570203051E+02 -0.47492734105E+02 -0.33206833872E+03  0.33852855829E+03  0.00000000000E+00 0. -1.
         -4    1    6    6    0  503  0.51160619504E+02 -0.23045219915E+02 -0.34507817830E+03  0.34961041216E+03  0.00000000000E+00 0.  1.
<mgrwt>
<rscale>  0 0.16619660E+04</rscale>
<asrwt>0</asrwt>
<pdfrwt beam="1">  1        2 0.36146796E+00 0.16619660E+04</pdfrwt>
<pdfrwt beam="2">  1       -1 0.45215541E-01 0.16619660E+04</pdfrwt>
<totfact> 0.22438462E+01</totfact>
</mgrwt>
</event>
<event>
12    7  0.1729738E-007  0.2982336E+04  0.7818608E-02  0.8248793E-01
         -1   -1    0    0    0  501 -0.00000000000E+00  0.00000000000E+00  0.12455484921E+04  0.12455484921E+04  0.00000000000E+00 0.  1.
          2   -1    0    0  501    0  0.00000000000E+00 -0.00000000000E+00 -0.17852232845E+04  0.17852232845E+04  0.00000000000E+00 0. -1.
         24    2    1    2    0    0 -0.70447643812E+03 -0.81393535407E+02 -0.14172736393E+04  0.15868101053E+04  0.79936114112E+02 0.  0.
        254    2    1    2    0    0  0.70447643812E+03  0.81393535407E+02  0.87759884676E+03  0.14439616713E+04  0.90107358901E+03 0.  0.
         23    2    4    4    0    0 -0.15520633786E+03  0.67396388044E+02 -0.27904101614E+02  0.19202618185E+03  0.86395226696E+02 0.  0.
         23    2    4    4    0    0  0.85968277598E+03  0.13997147364E+02  0.90550294838E+03  0.12519354894E+04  0.90313258805E+02 0.  0.
          4    1    3    3  502    0 -0.67787573428E+03 -0.74930309323E+02 -0.13892999241E+04  0.15476706179E+04  0.00000000000E+00 0. -1.
         -3    1    3    3    0  502 -0.26600703838E+02 -0.64632260843E+01 -0.27973715138E+02  0.39139487410E+02  0.00000000000E+00 0.  1.
         13    1    5    5    0    0 -0.80324555624E+00 -0.69938353532E+00 -0.23183383472E+02  0.23207835099E+02  0.00000000000E+00 0. -1.
        -13    1    5    5    0    0 -0.15440309231E+03  0.68095771579E+02 -0.47207181418E+01  0.16881834675E+03  0.00000000000E+00 0.  1.
          3    1    6    6  503    0  0.18420982141E+02 -0.13099138356E+02  0.19332493348E+02  0.29743323751E+02  0.00000000000E+00 0. -1.
         -3    1    6    6    0  503  0.84126179384E+03  0.27096285720E+02  0.88617045503E+03  0.12221921657E+04  0.00000000000E+00 0.  1.
<mgrwt>
<rscale>  0 0.29823361E+04</rscale>
<asrwt>0</asrwt>
<pdfrwt beam="1">  1        2 0.27464974E+00 0.29823361E+04</pdfrwt>
<pdfrwt beam="2">  1       -1 0.19162284E+00 0.29823361E+04</pdfrwt>
<totfact> 0.14766749E+00</totfact>
</mgrwt>
</event>
<event>
12    7  0.1729738E-007  0.2470521E+04  0.7818608E-02  0.8413563E-01
          2   -1    0    0  501    0  0.00000000000E+00  0.00000000000E+00  0.32373850692E+04  0.32373850692E+04  0.00000000000E+00 0. -1.
         -1   -1    0    0    0  501 -0.00000000000E+00 -0.00000000000E+00 -0.47132756848E+03  0.47132756848E+03  0.00000000000E+00 0.  1.
         24    2    1    2    0    0  0.62224987641E+03 -0.63089279742E+03  0.30005295354E+03  0.93922305847E+03  0.82991253204E+02 0.  0.
        254    2    1    2    0    0 -0.62224987641E+03  0.63089279742E+03  0.24660045471E+04  0.27694895792E+04  0.89647837234E+03 0.  0.
         23    2    4    4    0    0 -0.42798928878E+03  0.59498251658E+03  0.79708896274E+03  0.10864969973E+04  0.89139690216E+02 0.  0.
         23    2    4    4    0    0 -0.19426058763E+03  0.35910280834E+02  0.16689155844E+04  0.16829925818E+04  0.90322081663E+02 0.  0.
          2    1    3    3  502    0  0.79550582876E+02 -0.80027231893E+02  0.98308904670E+01  0.11326649764E+03  0.00000000000E+00 0. -1.
         -1    1    3    3    0  502  0.54269929353E+03 -0.55086556553E+03  0.29022206308E+03  0.82595656083E+03  0.00000000000E+00 0.  1.
         13    1    5    5    0    0 -0.43416630424E+02  0.26611967206E+02  0.71577771668E+02  0.87844054967E+02  0.00000000000E+00 0.  1.
        -13    1    5    5    0    0 -0.38457265835E+03  0.56837054938E+03  0.72551119107E+03  0.99865294238E+03  0.00000000000E+00 0. -1.
          1    1    6    6  503    0 -0.17050318075E+03  0.41999221672E+02  0.16042592432E+04  0.16138410667E+04  0.00000000000E+00 0. -1.
         -1    1    6    6    0  503 -0.23757406880E+02 -0.60889408384E+01  0.64656341194E+02  0.69151515086E+02  0.00000000000E+00 0.  1.
<mgrwt>
<rscale>  0 0.24705213E+04</rscale>
<asrwt>0</asrwt>
<pdfrwt beam="1">  1        2 0.49805923E+00 0.24705213E+04</pdfrwt>
<pdfrwt beam="2">  1       -1 0.72511936E-01 0.24705213E+04</pdfrwt>
<totfact> 0.23921608E+00</totfact>
</mgrwt>
</event>
<event>
12    7  0.1729738E-007  0.1489897E+04  0.7818608E-02  0.8891199E-01
          2   -1    0    0  501    0  0.00000000000E+00  0.00000000000E+00  0.11071398311E+04  0.11071398311E+04  0.00000000000E+00 0. -1.
         -1   -1    0    0    0  501 -0.00000000000E+00 -0.00000000000E+00 -0.50124484416E+03  0.50124484416E+03  0.00000000000E+00 0.  1.
         24    2    1    2    0    0 -0.31081202620E+03  0.19454358299E+03  0.49716381045E+03  0.62317442011E+03  0.81995012900E+02 0.  0.
        254    2    1    2    0    0  0.31081202620E+03 -0.19454358299E+03  0.10873117646E+03  0.98521025513E+03  0.90794573448E+03 0.  0.
         23    2    4    4    0    0  0.10211345412E+03  0.34837702657E+03 -0.44552094762E+02  0.37678057587E+03  0.90471006705E+02 0.  0.
         23    2    4    4    0    0  0.20869857208E+03 -0.54292060956E+03  0.15328327122E+03  0.60842967926E+03  0.91504268175E+02 0.  0.
          2    1    3    3  502    0 -0.31350367329E+03  0.18462940499E+03  0.49128729929E+03  0.61133933359E+03  0.00000000000E+00 0. -1.
         -1    1    3    3    0  502  0.26916470832E+01  0.99141780020E+01  0.58765111596E+01  0.11835086518E+02  0.00000000000E+00 0.  1.
         13    1    5    5    0    0 -0.76401318308E+01  0.25123672157E+02  0.15008735261E+02  0.30246200607E+02  0.00000000000E+00 0. -1.
        -13    1    5    5    0    0  0.10975358595E+03  0.32325335441E+03 -0.59560830023E+02  0.34653437526E+03  0.00000000000E+00 0.  1.
          4    1    6    6  503    0  0.17633702117E+02 -0.15262278523E+03  0.27933198560E+02  0.15615673409E+03  0.00000000000E+00 0. -1.
         -4    1    6    6    0  503  0.19106486996E+03 -0.39029782433E+03  0.12535007266E+03  0.45227294516E+03  0.00000000000E+00 0.  1.
<mgrwt>
<rscale>  0 0.14898968E+04</rscale>
<asrwt>0</asrwt>
<pdfrwt beam="1">  1        2 0.17032920E+00 0.14898968E+04</pdfrwt>
<pdfrwt beam="2">  1       -1 0.77114592E-01 0.14898968E+04</pdfrwt>
<totfact> 0.40113863E+01</totfact>
</mgrwt>
</event>
<event>
12    7  0.1729738E-007  0.1654164E+04  0.7818608E-02  0.8787947E-01
          2   -1    0    0  501    0  0.00000000000E+00  0.00000000000E+00  0.30293955203E+04  0.30293955203E+04  0.00000000000E+00 0. -1.
         -1   -1    0    0    0  501 -0.00000000000E+00 -0.00000000000E+00 -0.22580904681E+03  0.22580904681E+03  0.00000000000E+00 0.  1.
         24    2    1    2    0    0  0.22207918114E+03  0.53493848376E+03  0.98011889240E+03  0.11413331977E+04  0.80808914836E+02 0.  0.
        254    2    1    2    0    0 -0.22207918114E+03 -0.53493848376E+03  0.18234675811E+04  0.21138713695E+04  0.89885471756E+03 0.  0.
         23    2    4    4    0    0  0.31440086392E+03 -0.12897724168E+03  0.90738639548E+03  0.97352484474E+03  0.94432624297E+02 0.  0.
         23    2    4    4    0    0 -0.53648004506E+03 -0.40596124208E+03  0.91608118563E+03  0.11403465247E+04  0.92574775230E+02 0.  0.
          2    1    3    3  502    0  0.73486912310E+02  0.23573489272E+03  0.35310392614E+03  0.43087544439E+03  0.00000000000E+00 0. -1.
         -1    1    3    3    0  502  0.14859226883E+03  0.29920359104E+03  0.62701496627E+03  0.71045775326E+03  0.00000000000E+00 0.  1.
         13    1    5    5    0    0  0.17985494571E+02 -0.25820393663E+02  0.15742845312E+03  0.16054248222E+03  0.00000000000E+00 0. -1.
        -13    1    5    5    0    0  0.29641536935E+03 -0.10315684802E+03  0.74995794236E+03  0.81298236253E+03  0.00000000000E+00 0.  1.
          1    1    6    6  503    0 -0.35024239935E+03 -0.29557951683E+03  0.56011598613E+03  0.72371742206E+03  0.00000000000E+00 0. -1.
         -1    1    6    6    0  503 -0.18623764570E+03 -0.11038172525E+03  0.35596519950E+03  0.41662910268E+03  0.00000000000E+00 0.  1.
<mgrwt>
<rscale>  0 0.16541643E+04</rscale>
<asrwt>0</asrwt>
<pdfrwt beam="1">  1        2 0.46606082E+00 0.16541643E+04</pdfrwt>
<pdfrwt beam="2">  1       -1 0.34739856E-01 0.16541643E+04</pdfrwt>
<totfact> 0.14348484E+01</totfact>
</mgrwt>
</event>
<event>
12    7  0.1729738E-007  0.4280640E+04  0.7818608E-02  0.7950208E-01
         -1   -1    0    0    0  501 -0.00000000000E+00  0.00000000000E+00  0.11736110624E+04  0.11736110624E+04  0.00000000000E+00 0.  1.
          2   -1    0    0  501    0  0.00000000000E+00 -0.00000000000E+00 -0.39033122931E+04  0.39033122931E+04  0.00000000000E+00 0. -1.
         24    2    1    2    0    0 -0.15947373383E+04  0.33092614008E+03  0.16216368146E+03  0.16387464897E+04  0.80583557037E+02 0.  0.
        254    2    1    2    0    0  0.15947373383E+04 -0.33092614008E+03 -0.28918649121E+04  0.34381768657E+04  0.89748437426E+03 0.  0.
         23    2    4    4    0    0  0.86259015708E+03  0.37638333839E+02 -0.76507668991E+03  0.11572102456E+04  0.91185457970E+02 0.  0.
         23    2    4    4    0    0  0.73214718122E+03 -0.36856447392E+03 -0.21267882222E+04  0.22809666202E+04  0.87757130486E+02 0.  0.
          2    1    3    3  502    0 -0.33684975284E+03  0.89254669637E+02  0.61967451175E+02  0.35394083834E+03  0.00000000000E+00 0. -1.
         -1    1    3    3    0  502 -0.12578875855E+04  0.24167147044E+03  0.10019623029E+03  0.12848056514E+04  0.00000000000E+00 0.  1.
         13    1    5    5    0    0  0.57205474981E+03  0.68052586863E+02 -0.50859893464E+03  0.76847294531E+03  0.00000000000E+00 0.  1.
        -13    1    5    5    0    0  0.29053540727E+03 -0.30414253024E+02 -0.25647775527E+03  0.38873730026E+03  0.00000000000E+00 0. -1.
          3    1    6    6  503    0  0.25914208775E+03 -0.12683516150E+03 -0.86780391626E+03  0.91450829242E+03  0.00000000000E+00 0. -1.
         -3    1    6    6    0  503  0.47300509347E+03 -0.24172931242E+03 -0.12589843059E+04  0.13664583278E+04  0.00000000000E+00 0.  1.
<mgrwt>
<rscale>  0 0.42806404E+04</rscale>
<asrwt>0</asrwt>
<pdfrwt beam="1">  1        2 0.60050958E+00 0.42806404E+04</pdfrwt>
<pdfrwt beam="2">  1       -1 0.18055555E+00 0.42806404E+04</pdfrwt>
<totfact> 0.73461694E-02</totfact>
</mgrwt>
</event>
<event>
12    7  0.1729738E-007  0.1013935E+04  0.7818608E-02  0.9293392E-01
          2   -1    0    0  501    0  0.00000000000E+00  0.00000000000E+00  0.15025316498E+04  0.15025316498E+04  0.00000000000E+00 0. -1.
         -1   -1    0    0    0  501 -0.00000000000E+00 -0.00000000000E+00 -0.17105516271E+03  0.17105516271E+03  0.00000000000E+00 0.  1.
         24    2    1    2    0    0  0.67945057163E+01  0.14713010542E+02  0.32443827600E+03  0.33526233968E+03  0.82933729497E+02 0.  0.
        254    2    1    2    0    0 -0.67945057163E+01 -0.14713010542E+02  0.10070382111E+04  0.13383244728E+04  0.88131935074E+03 0.  0.
         23    2    4    4    0    0 -0.30256141063E+03 -0.29651381400E+03  0.68485089175E+03  0.81053819507E+03  0.92128023087E+02 0.  0.
         23    2    4    4    0    0  0.29576690492E+03  0.28180080345E+03  0.32218731936E+03  0.52778627777E+03  0.88678810205E+02 0.  0.
          2    1    3    3  502    0  0.11718659519E+02  0.48233437027E+02  0.21719353694E+03  0.22279323131E+03  0.00000000000E+00 0. -1.
         -1    1    3    3    0  502 -0.49241538029E+01 -0.33520426484E+02  0.10724473906E+03  0.11246910837E+03  0.00000000000E+00 0.  1.
         13    1    5    5    0    0 -0.17948159193E+03 -0.11588185911E+03  0.37007295534E+03  0.42731281210E+03  0.00000000000E+00 0. -1.
        -13    1    5    5    0    0 -0.12307981870E+03 -0.18063195489E+03  0.31477793640E+03  0.38322538296E+03  0.00000000000E+00 0.  1.
          3    1    6    6  503    0  0.27496571657E+02 -0.19006933402E+01  0.20046440676E+02  0.34081283306E+02  0.00000000000E+00 0. -1.
         -3    1    6    6    0  503  0.26827033326E+03  0.28370149679E+03  0.30214087868E+03  0.49370499447E+03  0.00000000000E+00 0.  1.
<mgrwt>
<rscale>  0 0.10139345E+04</rscale>
<asrwt>0</asrwt>
<pdfrwt beam="1">  1        2 0.23115871E+00 0.10139345E+04</pdfrwt>
<pdfrwt beam="2">  1       -1 0.26316180E-01 0.10139345E+04</pdfrwt>
<totfact> 0.18425075E+02</totfact>
</mgrwt>
</event>
<event>
12    7  0.1729738E-007  0.1611528E+04  0.7818608E-02  0.8813497E-01
          2   -1    0    0  501    0  0.00000000000E+00  0.00000000000E+00  0.29385404597E+04  0.29385404597E+04  0.00000000000E+00 0. -1.
         -1   -1    0    0    0  501 -0.00000000000E+00 -0.00000000000E+00 -0.22094505749E+03  0.22094505749E+03  0.00000000000E+00 0.  1.
         24    2    1    2    0    0 -0.34940426133E+03 -0.42127074961E+03  0.69088938532E+03  0.88519481561E+03  0.81788364212E+02 0.  0.
        254    2    1    2    0    0  0.34940426133E+03  0.42127074961E+03  0.20267060169E+04  0.22742907016E+04  0.87481914367E+03 0.  0.
         23    2    4    4    0    0 -0.10963866201E+03  0.50564712210E+03  0.13289238272E+04  0.14290897063E+04  0.92515954970E+02 0.  0.
         23    2    4    4    0    0  0.45904292334E+03 -0.84376372490E+02  0.69778218971E+03  0.84520099529E+03  0.98106882766E+02 0.  0.
          4    1    3    3  502    0 -0.14975660686E+03 -0.17791711345E+03  0.35931701421E+03  0.42800730981E+03  0.00000000000E+00 0. -1.
         -3    1    3    3    0  502 -0.19964765447E+03 -0.24335363617E+03  0.33157237112E+03  0.45718750580E+03  0.00000000000E+00 0.  1.
         13    1    5    5    0    0 -0.80222280389E+02  0.36219487326E+03  0.83026241958E+03  0.90937144548E+03  0.00000000000E+00 0.  1.
        -13    1    5    5    0    0 -0.29416381624E+02  0.14345224885E+03  0.49866140764E+03  0.51971826086E+03  0.00000000000E+00 0. -1.
          1    1    6    6  503    0  0.91894140250E+02  0.82170840648E+01  0.88485416907E+02  0.12783474679E+03  0.00000000000E+00 0. -1.
         -1    1    6    6    0  503  0.36714878309E+03 -0.92593456555E+02  0.60929677280E+03  0.71736624849E+03  0.00000000000E+00 0.  1.
<mgrwt>
<rscale>  0 0.16115285E+04</rscale>
<asrwt>0</asrwt>
<pdfrwt beam="1">  1        2 0.45208312E+00 0.16115285E+04</pdfrwt>
<pdfrwt beam="2">  1       -1 0.33991549E-01 0.16115285E+04</pdfrwt>
<totfact> 0.17055534E+01</totfact>
</mgrwt>
</event>
<event>
12    7  0.1729738E-007  0.2022259E+04  0.7818608E-02  0.8596284E-01
          2   -1    0    0  501    0  0.00000000000E+00  0.00000000000E+00  0.18785661505E+04  0.18785661505E+04  0.00000000000E+00 0. -1.
         -1   -1    0    0    0  501 -0.00000000000E+00 -0.00000000000E+00 -0.54423553892E+03  0.54423553892E+03  0.00000000000E+00 0.  1.
         24    2    1    2    0    0  0.72191732083E+03  0.34605898483E+03  0.70133916907E+03  0.10671978176E+04  0.78186396683E+02 0.  0.
        254    2    1    2    0    0 -0.72191732083E+03 -0.34605898483E+03  0.63299144249E+03  0.13556038719E+04  0.89222320752E+03 0.  0.
         23    2    4    4    0    0 -0.82579718295E+03 -0.37773228800E+03  0.24925683001E+03  0.94602481627E+03  0.90616317083E+02 0.  0.
         23    2    4    4    0    0  0.10387986212E+03  0.31673303173E+02  0.38373461248E+03  0.40957905559E+03  0.93319483875E+02 0.  0.
          2    1    3    3  502    0  0.68670297112E+03  0.32056681089E+03  0.63950006462E+03  0.99160697025E+03  0.00000000000E+00 0. -1.
         -1    1    3    3    0  502  0.35214349706E+02  0.25492173934E+02  0.61839104453E+02  0.75590847307E+02  0.00000000000E+00 0.  1.
         13    1    5    5    0    0 -0.18458934966E+03 -0.44106417962E+02  0.52662563820E+02  0.19695672048E+03  0.00000000000E+00 0. -1.
        -13    1    5    5    0    0 -0.64120783329E+03 -0.33362587004E+03  0.19659426619E+03  0.74906809579E+03  0.00000000000E+00 0.  1.
          1    1    6    6  503    0  0.40719908896E+02  0.60465494070E+02  0.21912443385E+03  0.23093225081E+03  0.00000000000E+00 0. -1.
         -1    1    6    6    0  503  0.63159953228E+02 -0.28792190897E+02  0.16461017863E+03  0.17864680478E+03  0.00000000000E+00 0.  1.
<mgrwt>
<rscale>  0 0.20222586E+04</rscale>
<asrwt>0</asrwt>
<pdfrwt beam="1">  1        2 0.28901017E+00 0.20222586E+04</pdfrwt>
<pdfrwt beam="2">  1       -1 0.83728545E-01 0.20222586E+04</pdfrwt>
<totfact> 0.11656909E+01</totfact>
</mgrwt>
</event>
<event>
12    7  0.1729738E-007  0.2419204E+04  0.7818608E-02  0.8432349E-01
         -1   -1    0    0    0  501 -0.00000000000E+00  0.00000000000E+00  0.64507288648E+03  0.64507288648E+03  0.00000000000E+00 0.  1.
          2   -1    0    0  501    0  0.00000000000E+00 -0.00000000000E+00 -0.22681728213E+04  0.22681728213E+04  0.00000000000E+00 0. -1.
         24    2    1    2    0    0  0.34060560956E+03  0.47235619708E+03  0.33578126993E+03  0.67690634909E+03  0.79502113368E+02 0.  0.
        254    2    1    2    0    0 -0.34060560956E+03 -0.47235619708E+03 -0.19588812047E+04  0.22363393587E+04  0.90822111555E+03 0.  0.
         23    2    4    4    0    0 -0.53927647038E+03 -0.49735324066E+03 -0.18467669650E+04  0.19892052982E+04  0.90609812478E+02 0.  0.
         23    2    4    4    0    0  0.19867086083E+03  0.24997043585E+02 -0.11211423978E+03  0.24713406046E+03  0.91709748379E+02 0.  0.
          2    1    3    3  502    0  0.71398132346E+02  0.55758321778E+02  0.67640371631E+02  0.11305708127E+03  0.00000000000E+00 0. -1.
         -1    1    3    3    0  502  0.26920747721E+03  0.41659787530E+03  0.26814089830E+03  0.56384926783E+03  0.00000000000E+00 0.  1.
         13    1    5    5    0    0 -0.99124809344E+02 -0.51864418560E+02 -0.31987804099E+03  0.33887697893E+03  0.00000000000E+00 0. -1.
        -13    1    5    5    0    0 -0.44015166104E+03 -0.44548882210E+03 -0.15268889240E+04  0.16503283193E+04  0.00000000000E+00 0.  1.
          2    1    6    6  503    0  0.58776759756E+02  0.65864156152E+01 -0.84841290909E+02  0.10342211079E+03  0.00000000000E+00 0.  1.
         -2    1    6    6    0  503  0.13989410107E+03  0.18410627970E+02 -0.27272948876E+02  0.14371194967E+03  0.00000000000E+00 0. -1.
<mgrwt>
<rscale>  0 0.24192038E+04</rscale>
<asrwt>0</asrwt>
<pdfrwt beam="1">  1        2 0.34894967E+00 0.24192038E+04</pdfrwt>
<pdfrwt beam="2">  1       -1 0.99241982E-01 0.24192038E+04</pdfrwt>
<totfact> 0.46809306E+00</totfact>
</mgrwt>
</event>
<event>
12    7  0.1729738E-007  0.1582452E+04  0.7818608E-02  0.8831401E-01
          2   -1    0    0  501    0  0.00000000000E+00  0.00000000000E+00  0.56687669738E+03  0.56687669738E+03  0.00000000000E+00 0. -1.
         -3   -1    0    0    0  501 -0.00000000000E+00 -0.00000000000E+00 -0.11043652841E+04  0.11043652841E+04  0.00000000000E+00 0.  1.
         24    2    1    2    0    0  0.26111250907E+03  0.25859462925E+03  0.22169939256E+03  0.43669842897E+03  0.80647210317E+02 0.  0.
        254    2    1    2    0    0 -0.26111250907E+03 -0.25859462925E+03 -0.75918797933E+03  0.12345435525E+04  0.90148792033E+03 0.  0.
         23    2    4    4    0    0 -0.18426288008E+03 -0.27002151301E+03  0.11033096616E+03  0.35688545686E+03  0.91268180445E+02 0.  0.
         23    2    4    4    0    0 -0.76849628984E+02  0.11426883756E+02 -0.86951894548E+03  0.87765809568E+03  0.90466000337E+02 0.  0.
          2    1    3    3  502    0  0.16425290399E+03  0.10937695282E+03  0.10066066389E+03  0.22152856144E+03  0.00000000000E+00 0. -1.
         -1    1    3    3    0  502  0.96859605078E+02  0.14921767643E+03  0.12103872867E+03  0.21516986753E+03  0.00000000000E+00 0.  1.
         13    1    5    5    0    0 -0.13875675951E+03 -0.23509984017E+03  0.12088568380E+03  0.29856108539E+03  0.00000000000E+00 0. -1.
        -13    1    5    5    0    0 -0.45506120570E+02 -0.34921672831E+02 -0.10554717646E+02  0.58324371469E+02  0.00000000000E+00 0.  1.
          4    1    6    6  503    0 -0.71825743958E+02 -0.25435724740E+02 -0.44165107082E+03  0.44817583820E+03  0.00000000000E+00 0.  1.
         -4    1    6    6    0  503 -0.50238850267E+01  0.36862608496E+02 -0.42786787467E+03  0.42948225749E+03  0.00000000000E+00 0. -1.
<mgrwt>
<rscale>  0 0.15824525E+04</rscale>
<asrwt>0</asrwt>
<pdfrwt beam="1">  1        2 0.87211800E-01 0.15824525E+04</pdfrwt>
<pdfrwt beam="2">  1       -3 0.16990235E+00 0.15824525E+04</pdfrwt>
<totfact> 0.74108993E+00</totfact>
</mgrwt>
</event>
<event>
12    7  0.1729738E-007  0.2386295E+04  0.7818608E-02  0.8444652E-01
          2   -1    0    0  501    0  0.00000000000E+00  0.00000000000E+00  0.13184094457E+04  0.13184094457E+04  0.00000000000E+00 0. -1.
         -1   -1    0    0    0  501 -0.00000000000E+00 -0.00000000000E+00 -0.10797865899E+04  0.10797865899E+04  0.00000000000E+00 0.  1.
         24    2    1    2    0    0 -0.10039992852E+04 -0.85452183448E+02  0.22979960035E+03  0.10364124381E+04  0.77628893407E+02 0.  0.
        254    2    1    2    0    0  0.10039992852E+04  0.85452183448E+02  0.88232554440E+01  0.13617835975E+04  0.91600222497E+03 0.  0.
         23    2    4    4    0    0  0.79020119631E+03  0.36680414741E+02  0.40931864243E+03  0.89605576386E+03  0.98034674605E+02 0.  0.
         23    2    4    4    0    0  0.21379808889E+03  0.48771768707E+02 -0.40049538699E+03  0.46572783361E+03  0.91747216666E+02 0.  0.
          4    1    3    3  502    0 -0.36285037869E+03 -0.51651966442E+02  0.11551384405E+03  0.38428084928E+03  0.00000000000E+00 0. -1.
         -3    1    3    3    0  502 -0.64114890651E+03 -0.33800217006E+02  0.11428575630E+03  0.65213158878E+03  0.00000000000E+00 0.  1.
         13    1    5    5    0    0  0.66223522135E+02 -0.18765645756E+02  0.17652163676E+02  0.71058449372E+02  0.00000000000E+00 0. -1.
        -13    1    5    5    0    0  0.72397767417E+03  0.55446060497E+02  0.39166647875E+03  0.82499731448E+03  0.00000000000E+00 0.  1.
          3    1    6    6  503    0  0.43173502558E+02  0.49814950249E+02 -0.91830836345E+02  0.11304151050E+03  0.00000000000E+00 0. -1.
         -3    1    6    6    0  503  0.17062458634E+03 -0.10431815426E+01 -0.30866455064E+03  0.35268632312E+03  0.00000000000E+00 0.  1.
<mgrwt>
<rscale>  0 0.23862949E+04</rscale>
<asrwt>0</asrwt>
<pdfrwt beam="1">  1        2 0.20283222E+00 0.23862949E+04</pdfrwt>
<pdfrwt beam="2">  1       -1 0.16612101E+00 0.23862949E+04</pdfrwt>
<totfact> 0.43495028E+00</totfact>
</mgrwt>
</event>
<event>
12    7  0.1729738E-007  0.1340918E+04  0.7818608E-02  0.8997732E-01
         -1   -1    0    0    0  501 -0.00000000000E+00  0.00000000000E+00  0.27050289227E+03  0.27050289227E+03  0.00000000000E+00 0.  1.
          2   -1    0    0  501    0  0.00000000000E+00 -0.00000000000E+00 -0.16617756662E+04  0.16617756662E+04  0.00000000000E+00 0. -1.
         24    2    1    2    0    0 -0.34485865922E+03 -0.10896883182E+03 -0.44414926277E+03  0.57831731751E+03  0.79878976985E+02 0.  0.
        254    2    1    2    0    0  0.34485865922E+03  0.10896883182E+03 -0.94712351115E+03  0.13539612410E+04  0.89742208325E+03 0.  0.
         23    2    4    4    0    0 -0.26553934954E+03  0.57810351593E+02 -0.97927450603E+02  0.30314921610E+03  0.91959114456E+02 0.  0.
         23    2    4    4    0    0  0.61039800876E+03  0.51158480225E+02 -0.84919606055E+03  0.10508120249E+04  0.88707627361E+02 0.  0.
          2    1    3    3  502    0 -0.27606356278E+03 -0.11699838592E+03 -0.34099632700E+03  0.45406850588E+03  0.00000000000E+00 0. -1.
         -1    1    3    3    0  502 -0.68795096438E+02  0.80295541070E+01 -0.10315293577E+03  0.12424881163E+03  0.00000000000E+00 0.  1.
         13    1    5    5    0    0 -0.91969357389E+02  0.44365075780E+02  0.25528230117E+01  0.10214274107E+03  0.00000000000E+00 0.  1.
        -13    1    5    5    0    0 -0.17356999215E+03  0.13445275813E+02 -0.10048027361E+03  0.20100647503E+03  0.00000000000E+00 0. -1.
          3    1    6    6  503    0  0.57288388506E+03  0.28264158215E+02 -0.76884727227E+03  0.95922934509E+03  0.00000000000E+00 0. -1.
         -3    1    6    6    0  503  0.37514123700E+02  0.22894322010E+02 -0.80348788276E+02  0.91582679775E+02  0.00000000000E+00 0.  1.
<mgrwt>
<rscale>  0 0.13409178E+04</rscale>
<asrwt>0</asrwt>
<pdfrwt beam="1">  1        2 0.25565780E+00 0.13409178E+04</pdfrwt>
<pdfrwt beam="2">  1       -1 0.41615829E-01 0.13409178E+04</pdfrwt>
<totfact> 0.64943466E+01</totfact>
</mgrwt>
</event>
<event>
12    7  0.1729738E-007  0.1060808E+04  0.7818608E-02  0.9244256E-01
         -1   -1    0    0    0  501 -0.00000000000E+00  0.00000000000E+00  0.33903613996E+03  0.33903613996E+03  0.00000000000E+00 0.  1.
          2   -1    0    0  501    0  0.00000000000E+00 -0.00000000000E+00 -0.82978844689E+03  0.82978844689E+03  0.00000000000E+00 0. -1.
         24    2    1    2    0    0 -0.39669768574E+02 -0.55646220385E+02 -0.18422840451E+03  0.21299666144E+03  0.82202678627E+02 0.  0.
        254    2    1    2    0    0  0.39669768574E+02  0.55646220385E+02 -0.30652390242E+03  0.95582792540E+03  0.90276238726E+03 0.  0.
         23    2    4    4    0    0  0.44519418081E+03  0.67034671190E+02 -0.28284719059E+03  0.53946520129E+03  0.91261516607E+02 0.  0.
         23    2    4    4    0    0 -0.40552441223E+03 -0.11388450804E+02 -0.23676711830E+02  0.41636272411E+03  0.90650899704E+02 0.  0.
          4    1    3    3  502    0  0.44461177592E+01 -0.54662039666E+02 -0.14071306464E+03  0.15102275691E+03  0.00000000000E+00 0. -1.
         -3    1    3    3    0  502 -0.44115886334E+02 -0.98418071960E+00 -0.43515339870E+02  0.61973904530E+02  0.00000000000E+00 0.  1.
         13    1    5    5    0    0  0.36339575227E+03  0.21841778636E+02 -0.20477108342E+03  0.41768975648E+03  0.00000000000E+00 0. -1.
        -13    1    5    5    0    0  0.81798428534E+02  0.45192892554E+02 -0.78076107165E+02  0.12177544481E+03  0.00000000000E+00 0.  1.
          4    1    6    6  503    0 -0.25555451205E+03  0.36299971813E+02 -0.84454434186E+01  0.25825785970E+03  0.00000000000E+00 0. -1.
         -4    1    6    6    0  503 -0.14996990018E+03 -0.47688422617E+02 -0.15231268411E+02  0.15810486441E+03  0.00000000000E+00 0.  1.
<mgrwt>
<rscale>  0 0.10608078E+04</rscale>
<asrwt>0</asrwt>
<pdfrwt beam="1">  1        2 0.12765976E+00 0.10608078E+04</pdfrwt>
<pdfrwt beam="2">  1       -1 0.52159406E-01 0.10608078E+04</pdfrwt>
<totfact> 0.13783478E+02</totfact>
</mgrwt>
</event>
<event>
12    7  0.1729738E-007  0.2183930E+04  0.7818608E-02  0.8525147E-01
          2   -1    0    0  501    0  0.00000000000E+00  0.00000000000E+00  0.22495250316E+04  0.22495250316E+04  0.00000000000E+00 0. -1.
         -3   -1    0    0    0  501 -0.00000000000E+00 -0.00000000000E+00 -0.53006174262E+03  0.53006174262E+03  0.00000000000E+00 0.  1.
         24    2    1    2    0    0 -0.83683248889E+02  0.84713850437E+03  0.31799921215E+03  0.91242838919E+03  0.82192060095E+02 0.  0.
        254    2    1    2    0    0  0.83683248889E+02 -0.84713850437E+03  0.14014640768E+04  0.18671583850E+04  0.89304666415E+03 0.  0.
         23    2    4    4    0    0 -0.31293079554E+03 -0.73870271785E+03  0.84262951808E+03  0.11672246273E+04  0.93709324935E+02 0.  0.
         23    2    4    4    0    0  0.39661404443E+03 -0.10843578652E+03  0.55883455871E+03  0.69993375773E+03  0.92467189643E+02 0.  0.
          2    1    3    3  502    0 -0.81653633612E+02  0.51900423044E+03  0.16769043789E+03  0.55150048962E+03  0.00000000000E+00 0. -1.
         -1    1    3    3    0  502 -0.20296152769E+01  0.32813427393E+03  0.15030877426E+03  0.36092789957E+03  0.00000000000E+00 0.  1.
         13    1    5    5    0    0 -0.24071461020E+03 -0.45926938148E+03  0.56204620040E+03  0.76470113097E+03  0.00000000000E+00 0. -1.
        -13    1    5    5    0    0 -0.72216185342E+02 -0.27943333637E+03  0.28058331768E+03  0.40252349629E+03  0.00000000000E+00 0.  1.
          2    1    6    6  503    0  0.37836055848E+03 -0.96013602687E+02  0.55335736902E+03  0.67718513123E+03  0.00000000000E+00 0. -1.
         -2    1    6    6    0  503  0.18253485955E+02 -0.12422183835E+02  0.54771896940E+01  0.22748626501E+02  0.00000000000E+00 0.  1.
<mgrwt>
<rscale>  0 0.21839296E+04</rscale>
<asrwt>0</asrwt>
<pdfrwt beam="1">  1        2 0.34608077E+00 0.21839296E+04</pdfrwt>
<pdfrwt beam="2">  1       -3 0.81547962E-01 0.21839296E+04</pdfrwt>
<totfact> 0.39508989E+00</totfact>
</mgrwt>
</event>
<event>
12    7  0.1729738E-007  0.1767090E+04  0.7818608E-02  0.8723999E-01
         -1   -1    0    0    0  501 -0.00000000000E+00  0.00000000000E+00  0.21146126810E+03  0.21146126810E+03  0.00000000000E+00 0.  1.
          2   -1    0    0  501    0  0.00000000000E+00 -0.00000000000E+00 -0.36917024627E+04  0.36917024627E+04  0.00000000000E+00 0. -1.
         24    2    1    2    0    0 -0.29356137515E+03  0.45717367582E+03 -0.52086160497E+03  0.75659992898E+03  0.77204858371E+02 0.  0.
        254    2    1    2    0    0  0.29356137515E+03 -0.45717367582E+03 -0.29593795896E+04  0.31465638018E+04  0.92073348614E+03 0.  0.
         23    2    4    4    0    0 -0.21853466103E+03  0.84609545726E+02 -0.13157603782E+04  0.13394769792E+04  0.89760969346E+02 0.  0.
         23    2    4    4    0    0  0.51209603618E+03 -0.54178322154E+03 -0.16436192114E+04  0.18070868226E+04  0.91144187528E+02 0.  0.
          2    1    3    3  502    0 -0.78166745192E+02  0.15999600013E+03 -0.21236833701E+03  0.27714449422E+03  0.00000000000E+00 0. -1.
         -1    1    3    3    0  502 -0.21539462996E+03  0.29717767569E+03 -0.30849326795E+03  0.47945543475E+03  0.00000000000E+00 0.  1.
         13    1    5    5    0    0 -0.16349505432E+02 -0.30313909778E+01 -0.24894181647E+02  0.29936865885E+02  0.00000000000E+00 0. -1.
        -13    1    5    5    0    0 -0.20218515560E+03  0.87640936704E+02 -0.12908661966E+04  0.13095401133E+04  0.00000000000E+00 0.  1.
          4    1    6    6  503    0  0.37858243024E+03 -0.34414112529E+03 -0.11618510837E+04  0.12695100280E+04  0.00000000000E+00 0.  1.
         -4    1    6    6    0  503  0.13351360594E+03 -0.19764209625E+03 -0.48176812770E+03  0.53757679456E+03  0.00000000000E+00 0. -1.
<mgrwt>
<rscale>  0 0.17670904E+04</rscale>
<asrwt>0</asrwt>
<pdfrwt beam="1">  1        2 0.56795423E+00 0.17670904E+04</pdfrwt>
<pdfrwt beam="2">  1       -1 0.32532502E-01 0.17670904E+04</pdfrwt>
<totfact> 0.57036478E+00</totfact>
</mgrwt>
</event>
<event>
12    7  0.1729738E-007  0.1431731E+04  0.7818608E-02  0.8931165E-01
         -1   -1    0    0    0  501 -0.00000000000E+00  0.00000000000E+00  0.27893082179E+03  0.27893082179E+03  0.00000000000E+00 0.  1.
          2   -1    0    0  501    0  0.00000000000E+00 -0.00000000000E+00 -0.18372407656E+04  0.18372407656E+04  0.00000000000E+00 0. -1.
         24    2    1    2    0    0  0.41282957272E+03  0.17315506068E+03 -0.40150560661E+03  0.60674438239E+03  0.80753094521E+02 0.  0.
        254    2    1    2    0    0 -0.41282957272E+03 -0.17315506068E+03 -0.11568043372E+04  0.15094272050E+04  0.86009492584E+03 0.  0.
         23    2    4    4    0    0 -0.49562692415E+02  0.21973395709E+03 -0.85442075527E+03  0.88829421934E+03  0.91062180419E+02 0.  0.
         23    2    4    4    0    0 -0.36326688031E+03 -0.39288901777E+03 -0.30238358196E+03  0.62113298567E+03  0.89698097206E+02 0.  0.
          4    1    3    3  502    0  0.39749565974E+02  0.26891724323E+02 -0.15731880160E+02  0.50504305614E+02  0.00000000000E+00 0. -1.
         -1    1    3    3    0  502  0.37308000675E+03  0.14626333636E+03 -0.38577372645E+03  0.55624007678E+03  0.00000000000E+00 0.  1.
         13    1    5    5    0    0 -0.10599760631E+01 -0.84080072047E+01 -0.16949962538E+02  0.18950444967E+02  0.00000000000E+00 0. -1.
        -13    1    5    5    0    0 -0.48502716352E+02  0.22814196429E+03 -0.83747079273E+03  0.86934377438E+03  0.00000000000E+00 0.  1.
          1    1    6    6  503    0 -0.19266007949E+03 -0.14544466023E+03 -0.12015412162E+03  0.26964619107E+03  0.00000000000E+00 0. -1.
         -1    1    6    6    0  503 -0.17060680082E+03 -0.24744435754E+03 -0.18222946034E+03  0.35148679460E+03  0.00000000000E+00 0.  1.
<mgrwt>
<rscale>  0 0.14317305E+04</rscale>
<asrwt>0</asrwt>
<pdfrwt beam="1">  1        2 0.28265242E+00 0.14317305E+04</pdfrwt>
<pdfrwt beam="2">  1       -1 0.42912434E-01 0.14317305E+04</pdfrwt>
<totfact> 0.48704727E+01</totfact>
</mgrwt>
</event>
<event>
12    7  0.1729738E-007  0.2207067E+04  0.7818608E-02  0.8515492E-01
          2   -1    0    0  501    0  0.00000000000E+00  0.00000000000E+00  0.21988388504E+04  0.21988388504E+04  0.00000000000E+00 0. -1.
         -1   -1    0    0    0  501 -0.00000000000E+00 -0.00000000000E+00 -0.55383141578E+03  0.55383141578E+03  0.00000000000E+00 0.  1.
         24    2    1    2    0    0 -0.21313936682E+03 -0.88619905824E+03  0.57665205635E+03  0.10807193363E+04  0.68187455975E+02 0.  0.
        254    2    1    2    0    0  0.21313936682E+03  0.88619905824E+03  0.10683553782E+04  0.16719509299E+04  0.90733650715E+03 0.  0.
         23    2    4    4    0    0 -0.20270610375E+03  0.12441840073E+03 -0.42450431418E+02  0.25915021325E+03  0.93739484536E+02 0.  0.
         23    2    4    4    0    0  0.41584547057E+03  0.76178065751E+03  0.11108058096E+04  0.14128007166E+04  0.94228937263E+02 0.  0.
          4    1    3    3  502    0 -0.17023819270E+03 -0.76667677854E+03  0.51832962941E+03  0.94097817707E+03  0.00000000000E+00 0. -1.
         -3    1    3    3    0  502 -0.42901174122E+02 -0.11952227970E+03  0.58322426948E+02  0.13974115919E+03  0.00000000000E+00 0.  1.
         13    1    5    5    0    0 -0.18980351741E+03  0.89804609791E+02 -0.59817692995E+02  0.21833094045E+03  0.00000000000E+00 0.  1.
        -13    1    5    5    0    0 -0.12902586341E+02  0.34613790938E+02  0.17367261577E+02  0.40819272802E+02  0.00000000000E+00 0. -1.
          3    1    6    6  503    0  0.24469292092E+03  0.51079980261E+03  0.66777941401E+03  0.87562572465E+03  0.00000000000E+00 0. -1.
         -3    1    6    6    0  503  0.17115254965E+03  0.25098085490E+03  0.44302639563E+03  0.53717499197E+03  0.00000000000E+00 0.  1.
<mgrwt>
<rscale>  0 0.22070669E+04</rscale>
<asrwt>0</asrwt>
<pdfrwt beam="1">  1        2 0.33828290E+00 0.22070669E+04</pdfrwt>
<pdfrwt beam="2">  1       -1 0.85204834E-01 0.22070669E+04</pdfrwt>
<totfact> 0.73219445E+00</totfact>
</mgrwt>
</event>
<event>
12    7  0.1729738E-007  0.1145066E+04  0.7818608E-02  0.9162347E-01
          2   -1    0    0  501    0  0.00000000000E+00  0.00000000000E+00  0.13241048878E+04  0.13241048878E+04  0.00000000000E+00 0. -1.
         -1   -1    0    0    0  501 -0.00000000000E+00 -0.00000000000E+00 -0.24755906204E+03  0.24755906204E+03  0.00000000000E+00 0.  1.
         24    2    1    2    0    0 -0.10961213326E+03 -0.15250650714E+03  0.98048467432E+02  0.22587381182E+03  0.78309784969E+02 0.  0.
        254    2    1    2    0    0  0.10961213326E+03  0.15250650714E+03  0.97849735837E+03  0.13457901381E+04  0.90466621517E+03 0.  0.
         23    2    4    4    0    0  0.37835968660E+03 -0.20023081376E+03  0.65832457575E+03  0.79069020848E+03  0.92473388214E+02 0.  0.
         23    2    4    4    0    0 -0.26874755334E+03  0.35273732090E+03  0.32017278262E+03  0.55509992958E+03  0.94744161326E+02 0.  0.
          4    1    3    3  502    0 -0.16643700673E+02 -0.53613090207E+01  0.37866616353E+02  0.41708956359E+02  0.00000000000E+00 0. -1.
         -3    1    3    3    0  502 -0.92968432587E+02 -0.14714519812E+03  0.60181851079E+02  0.18416485546E+03  0.00000000000E+00 0.  1.
         13    1    5    5    0    0  0.49576801319E+02 -0.19118094476E+01  0.44385364035E+02  0.66570074245E+02  0.00000000000E+00 0.  1.
        -13    1    5    5    0    0  0.32878288528E+03 -0.19831900431E+03  0.61393921171E+03  0.72412013423E+03  0.00000000000E+00 0. -1.
          3    1    6    6  503    0 -0.25431748164E+03  0.30086640158E+03  0.30758722470E+03  0.49980783694E+03  0.00000000000E+00 0. -1.
         -3    1    6    6    0  503 -0.14430071704E+02  0.51870919317E+02  0.12585557919E+02  0.55292092638E+02  0.00000000000E+00 0.  1.
<mgrwt>
<rscale>  0 0.11450662E+04</rscale>
<asrwt>0</asrwt>
<pdfrwt beam="1">  1        2 0.20370844E+00 0.11450662E+04</pdfrwt>
<pdfrwt beam="2">  1       -1 0.38086010E-01 0.11450662E+04</pdfrwt>
<totfact> 0.12022428E+02</totfact>
</mgrwt>
</event>
<event>
12    7  0.1729738E-007  0.1480238E+04  0.7818608E-02  0.8897702E-01
          2   -1    0    0  501    0  0.00000000000E+00  0.00000000000E+00  0.18810240804E+04  0.18810240804E+04  0.00000000000E+00 0. -1.
         -1   -1    0    0    0  501 -0.00000000000E+00 -0.00000000000E+00 -0.29121155566E+03  0.29121155566E+03  0.00000000000E+00 0.  1.
         24    2    1    2    0    0 -0.20083753088E+03 -0.37337327493E+03  0.25433855889E+03  0.50092337475E+03  0.80577965933E+02 0.  0.
        254    2    1    2    0    0  0.20083753088E+03  0.37337327493E+03  0.13354739659E+04  0.16713122613E+04  0.91107115259E+03 0.  0.
         23    2    4    4    0    0 -0.27421811382E+03  0.36065538252E+03  0.93910027759E+03  0.10467068829E+04  0.91750140894E+02 0.  0.
         23    2    4    4    0    0  0.47505564471E+03  0.12717892410E+02  0.39637368829E+03  0.62460537848E+03  0.84735870216E+02 0.  0.
          4    1    3    3  502    0 -0.97687227998E+02 -0.18791329378E+03  0.17368236247E+03  0.27389735947E+03  0.00000000000E+00 0. -1.
         -3    1    3    3    0  502 -0.10315030289E+03 -0.18545998115E+03  0.80656196418E+02  0.22702601528E+03  0.00000000000E+00 0.  1.
         13    1    5    5    0    0 -0.22529752698E+02  0.89245235664E+02  0.19424062632E+03  0.21494586007E+03  0.00000000000E+00 0.  1.
        -13    1    5    5    0    0 -0.25168836112E+03  0.27141014685E+03  0.74485965127E+03  0.83176102279E+03  0.00000000000E+00 0. -1.
          2    1    6    6  503    0  0.27243454595E+03  0.44633184032E+02  0.20260275542E+03  0.34243332117E+03  0.00000000000E+00 0. -1.
         -2    1    6    6    0  503  0.20262109876E+03 -0.31915291622E+02  0.19377093287E+03  0.28217205731E+03  0.00000000000E+00 0.  1.
<mgrwt>
<rscale>  0 0.14802377E+04</rscale>
<asrwt>0</asrwt>
<pdfrwt beam="1">  1        2 0.28938831E+00 0.14802377E+04</pdfrwt>
<pdfrwt beam="2">  1       -1 0.44801779E-01 0.14802377E+04</pdfrwt>
<totfact> 0.42352350E+01</totfact>
</mgrwt>
</event>
<event>
12    7  0.1729738E-007  0.2198960E+04  0.7818608E-02  0.8518861E-01
         -1   -1    0    0    0  501 -0.00000000000E+00  0.00000000000E+00  0.69793752264E+03  0.69793752264E+03  0.00000000000E+00 0.  1.
          2   -1    0    0  501    0  0.00000000000E+00 -0.00000000000E+00 -0.17320409180E+04  0.17320409180E+04  0.00000000000E+00 0. -1.
         24    2    1    2    0    0  0.79488970890E+03 -0.28486110215E+03 -0.36758296185E+02  0.84835297313E+03  0.73185366343E+02 0.  0.
        254    2    1    2    0    0 -0.79488970890E+03  0.28486110215E+03 -0.99734509915E+03  0.15816254675E+04  0.89098056981E+03 0.  0.
         23    2    4    4    0    0 -0.23899064521E+03  0.26780276506E+03 -0.94660598384E+03  0.10164064389E+04  0.90467180945E+02 0.  0.
         23    2    4    4    0    0 -0.55589906368E+03  0.17058337091E+02 -0.50739115309E+02  0.56521902863E+03  0.87082355509E+02 0.  0.
          2    1    3    3  502    0  0.65995976014E+03 -0.22406424424E+03 -0.55555575646E+02  0.69916957352E+03  0.00000000000E+00 0. -1.
         -1    1    3    3    0  502  0.13492994876E+03 -0.60796857906E+02  0.18797279461E+02  0.14918339961E+03  0.00000000000E+00 0.  1.
         13    1    5    5    0    0 -0.24023934151E+03  0.26830558978E+03 -0.89443696169E+03  0.96422005225E+03  0.00000000000E+00 0. -1.
        -13    1    5    5    0    0  0.12486962950E+01 -0.50282471962E+00 -0.52169022147E+02  0.52186386605E+02  0.00000000000E+00 0.  1.
          1    1    6    6  503    0 -0.52755196615E+03  0.13386044968E+01 -0.61358254395E+02  0.53110987963E+03  0.00000000000E+00 0. -1.
         -1    1    6    6    0  503 -0.28347097530E+02  0.15719732594E+02  0.10619139086E+02  0.34109149010E+02  0.00000000000E+00 0.  1.
<mgrwt>
<rscale>  0 0.21989601E+04</rscale>
<asrwt>0</asrwt>
<pdfrwt beam="1">  1        2 0.26646783E+00 0.21989601E+04</pdfrwt>
<pdfrwt beam="2">  1       -1 0.10737500E+00 0.21989601E+04</pdfrwt>
<totfact> 0.79154213E+00</totfact>
</mgrwt>
</event>
<event>
12    7  0.1729738E-007  0.3086332E+04  0.7818608E-02  0.8219499E-01
          2   -1    0    0  501    0  0.00000000000E+00  0.00000000000E+00  0.38869801711E+04  0.38869801711E+04  0.00000000000E+00 0. -1.
         -1   -1    0    0    0  501 -0.00000000000E+00 -0.00000000000E+00 -0.61265071702E+03  0.61265071702E+03  0.00000000000E+00 0.  1.
         24    2    1    2    0    0  0.22821313064E+03 -0.11175547434E+04  0.28923790208E+03  0.11793795818E+04  0.79169415923E+02 0.  0.
        254    2    1    2    0    0 -0.22821313064E+03  0.11175547434E+04  0.29850915520E+04  0.33202513063E+04  0.90126984085E+03 0.  0.
         23    2    4    4    0    0 -0.36403368772E+03  0.94624011303E+03  0.14777788673E+04  0.17944463378E+04  0.91194305415E+02 0.  0.
         23    2    4    4    0    0  0.13582055708E+03  0.17131463036E+03  0.15073126847E+04  0.15258049685E+04  0.91067811395E+02 0.  0.
          4    1    3    3  502    0  0.11929659979E+03 -0.58780312943E+03  0.19282850267E+03  0.63002145132E+03  0.00000000000E+00 0. -1.
         -3    1    3    3    0  502  0.10891653086E+03 -0.52975161396E+03  0.96409399406E+02  0.54935813044E+03  0.00000000000E+00 0.  1.
         13    1    5    5    0    0 -0.35216717671E+03  0.91914298202E+03  0.14013422994E+04  0.17124852647E+04  0.00000000000E+00 0. -1.
        -13    1    5    5    0    0 -0.11866511015E+02  0.27097131011E+02  0.76436567878E+02  0.81961073088E+02  0.00000000000E+00 0.  1.
          3    1    6    6  503    0  0.10777532856E+03  0.12586262342E+03  0.82931508543E+03  0.84570706060E+03  0.00000000000E+00 0. -1.
         -3    1    6    6    0  503  0.28045228512E+02  0.45452006938E+02  0.67799759923E+03  0.68009790791E+03  0.00000000000E+00 0.  1.
<mgrwt>
<rscale>  0 0.30863319E+04</rscale>
<asrwt>0</asrwt>
<pdfrwt beam="1">  1        2 0.59799693E+00 0.30863319E+04</pdfrwt>
<pdfrwt beam="2">  1       -1 0.94253959E-01 0.30863319E+04</pdfrwt>
<totfact> 0.44232382E-01</totfact>
</mgrwt>
</event>
<event>
12    7  0.1729738E-007  0.1885920E+04  0.7818608E-02  0.8661897E-01
         -1   -1    0    0    0  501 -0.00000000000E+00  0.00000000000E+00  0.39623071465E+03  0.39623071465E+03  0.00000000000E+00 0.  1.
          2   -1    0    0  501    0  0.00000000000E+00 -0.00000000000E+00 -0.22440805597E+04  0.22440805597E+04  0.00000000000E+00 0. -1.
         24    2    1    2    0    0  0.39801406350E+03  0.28805653266E+03  0.31035503758E+02  0.49879478900E+03  0.80257574669E+02 0.  0.
        254    2    1    2    0    0 -0.39801406350E+03 -0.28805653266E+03 -0.18788853488E+04  0.21415164853E+04  0.90249151921E+03 0.  0.
         23    2    4    4    0    0 -0.53041007148E+02 -0.16220805983E+03 -0.17208528219E+04  0.17316561386E+04  0.90408765390E+02 0.  0.
         23    2    4    4    0    0 -0.34497305635E+03 -0.12584847283E+03 -0.15803252692E+03  0.40986034668E+03  0.90371325595E+02 0.  0.
          4    1    3    3  502    0  0.12671326235E+03  0.50174421135E+02 -0.34510960361E+01  0.13632913649E+03  0.00000000000E+00 0. -1.
         -3    1    3    3    0  502  0.27130080115E+03  0.23788211153E+03  0.34486599794E+02  0.36246565251E+03  0.00000000000E+00 0.  1.
         13    1    5    5    0    0  0.19773435345E+02 -0.61256611942E+02 -0.42617602830E+03  0.43100970795E+03  0.00000000000E+00 0. -1.
        -13    1    5    5    0    0 -0.72814442493E+02 -0.10095144788E+03 -0.12946767936E+04  0.13006464307E+04  0.00000000000E+00 0.  1.
          4    1    6    6  503    0 -0.10784437144E+03  0.32172195746E+01 -0.52527312801E+02  0.11999948976E+03  0.00000000000E+00 0. -1.
         -4    1    6    6    0  503 -0.23712868491E+03 -0.12906569241E+03 -0.10550521412E+03  0.28986085691E+03  0.00000000000E+00 0.  1.
<mgrwt>
<rscale>  0 0.18859201E+04</rscale>
<asrwt>0</asrwt>
<pdfrwt beam="1">  1        2 0.34524316E+00 0.18859201E+04</pdfrwt>
<pdfrwt beam="2">  1       -1 0.60958571E-01 0.18859201E+04</pdfrwt>
<totfact> 0.14211837E+01</totfact>
</mgrwt>
</event>
<event>
12    7  0.1729738E-007  0.1625366E+04  0.7818608E-02  0.8805115E-01
          2   -1    0    0  501    0  0.00000000000E+00  0.00000000000E+00  0.81982786933E+03  0.81982786933E+03  0.00000000000E+00 0. -1.
         -1   -1    0    0    0  501 -0.00000000000E+00 -0.00000000000E+00 -0.80560003341E+03  0.80560003341E+03  0.00000000000E+00 0.  1.
         24    2    1    2    0    0  0.92318294518E+02  0.11558847615E+03 -0.47003983571E+03  0.49947781671E+03  0.81592149801E+02 0.  0.
        254    2    1    2    0    0 -0.92318294518E+02 -0.11558847615E+03  0.48426767162E+03  0.11259500860E+04  0.10056664731E+04 0.  0.
         23    2    4    4    0    0 -0.33939585380E+03 -0.41766118666E+03  0.71538343889E+02  0.55038299842E+03  0.90406293424E+02 0.  0.
         23    2    4    4    0    0  0.24707755928E+03  0.30207271051E+03  0.41272932773E+03  0.57556708761E+03  0.92934017645E+02 0.  0.
          2    1    3    3  502    0  0.80199240675E+02  0.10356630915E+03 -0.28509461344E+03  0.31374645370E+03  0.00000000000E+00 0. -1.
         -1    1    3    3    0  502  0.12119053844E+02  0.12022166997E+02 -0.18494522226E+03  0.18573136300E+03  0.00000000000E+00 0.  1.
         13    1    5    5    0    0 -0.76692909567E+02 -0.14906274313E+03 -0.14889375966E+01  0.16764164370E+03  0.00000000000E+00 0. -1.
        -13    1    5    5    0    0 -0.26270294423E+03 -0.26859844352E+03  0.73027281486E+02  0.38274135472E+03  0.00000000000E+00 0.  1.
          4    1    6    6  503    0  0.86450517326E+02  0.13732171262E+03  0.23132126265E+03  0.28256056210E+03  0.00000000000E+00 0. -1.
         -4    1    6    6    0  503  0.16062704195E+03  0.16475099789E+03  0.18140806509E+03  0.29300652551E+03  0.00000000000E+00 0.  1.
<mgrwt>
<rscale>  0 0.16253656E+04</rscale>
<asrwt>0</asrwt>
<pdfrwt beam="1">  1        2 0.12612736E+00 0.16253656E+04</pdfrwt>
<pdfrwt beam="2">  1       -1 0.12393847E+00 0.16253656E+04</pdfrwt>
<totfact> 0.20823509E+01</totfact>
</mgrwt>
</event>
<event>
12    7  0.1729738E-007  0.2624529E+04  0.7818608E-02  0.8359917E-01
          2   -1    0    0  501    0  0.00000000000E+00  0.00000000000E+00  0.32063658162E+04  0.32063658162E+04  0.00000000000E+00 0. -1.
         -1   -1    0    0    0  501 -0.00000000000E+00 -0.00000000000E+00 -0.53706834613E+03  0.53706834613E+03  0.00000000000E+00 0.  1.
         24    2    1    2    0    0 -0.48078935694E+03  0.98366912944E+03  0.65724102692E+03  0.12794978129E+04  0.79909472892E+02 0.  0.
        254    2    1    2    0    0  0.48078935694E+03 -0.98366912944E+03  0.20120564431E+04  0.24639363494E+04  0.90766064227E+03 0.  0.
         23    2    4    4    0    0  0.67995399736E+03 -0.40918188960E+03  0.12698787203E+04  0.15001380836E+04  0.89749921198E+02 0.  0.
         23    2    4    4    0    0 -0.19916464042E+03 -0.57448723985E+03  0.74217772280E+03  0.96379826574E+03  0.91526947338E+02 0.  0.
          2    1    3    3  502    0 -0.24370531073E+03  0.45990617623E+03  0.35444235778E+03  0.62971053223E+03  0.00000000000E+00 0. -1.
         -1    1    3    3    0  502 -0.23708404621E+03  0.52376295321E+03  0.30279866913E+03  0.64978728070E+03  0.00000000000E+00 0.  1.
         13    1    5    5    0    0  0.63530312544E+03 -0.36089789254E+03  0.11311365200E+04  0.13465983725E+04  0.00000000000E+00 0. -1.
        -13    1    5    5    0    0  0.44650871914E+02 -0.48283997061E+02  0.13874220034E+03  0.15353971112E+03  0.00000000000E+00 0.  1.
          2    1    6    6  503    0 -0.19005169603E+03 -0.52211132037E+03  0.71033318009E+03  0.90182764693E+03  0.00000000000E+00 0. -1.
         -2    1    6    6    0  503 -0.91129443894E+01 -0.52375919473E+02  0.31844542713E+02  0.61970618818E+02  0.00000000000E+00 0.  1.
<mgrwt>
<rscale>  0 0.26245286E+04</rscale>
<asrwt>0</asrwt>
<pdfrwt beam="1">  1        2 0.49328704E+00 0.26245286E+04</pdfrwt>
<pdfrwt beam="2">  1       -1 0.82625901E-01 0.26245286E+04</pdfrwt>
<totfact> 0.18765012E+00</totfact>
</mgrwt>
</event>
<event>
12    7  0.1729738E-007  0.2475016E+04  0.7818608E-02  0.8411941E-01
          2   -1    0    0  501    0  0.00000000000E+00  0.00000000000E+00  0.24833468615E+04  0.24833468615E+04  0.00000000000E+00 0. -1.
         -1   -1    0    0    0  501 -0.00000000000E+00 -0.00000000000E+00 -0.61667824193E+03  0.61667824193E+03  0.00000000000E+00 0.  1.
         24    2    1    2    0    0 -0.98874654148E+03  0.40741789593E+03  0.85211645274E+03  0.13705361542E+04  0.93047491168E+02 0.  0.
        254    2    1    2    0    0  0.98874654148E+03 -0.40741789593E+03  0.10145521669E+04  0.17294889493E+04  0.90454787671E+03 0.  0.
         23    2    4    4    0    0  0.20248165055E+03  0.25968374530E+03  0.12209397636E+03  0.36266113899E+03  0.90452729593E+02 0.  0.
         23    2    4    4    0    0  0.78626489094E+03 -0.66710164123E+03  0.89245819049E+03  0.13668278103E+04  0.92193073503E+02 0.  0.
          4    1    3    3  502    0 -0.70463979254E+03  0.26317261317E+03  0.64155945402E+03  0.98862308015E+03  0.00000000000E+00 0. -1.
         -3    1    3    3    0  502 -0.28410674894E+03  0.14424528276E+03  0.21055699872E+03  0.38191307402E+03  0.00000000000E+00 0.  1.
         13    1    5    5    0    0  0.12614368818E+03  0.92377739620E+02  0.40749018214E+02  0.16157462465E+03  0.00000000000E+00 0.  1.
        -13    1    5    5    0    0  0.76337962365E+02  0.16730600568E+03  0.81344958148E+02  0.20108651434E+03  0.00000000000E+00 0. -1.
          4    1    6    6  503    0  0.21265940373E+03 -0.16801992267E+03  0.18395732122E+03  0.32755917395E+03  0.00000000000E+00 0. -1.
         -4    1    6    6    0  503  0.57360548721E+03 -0.49908171857E+03  0.70850086928E+03  0.10392686364E+04  0.00000000000E+00 0.  1.
<mgrwt>
<rscale>  0 0.24750159E+04</rscale>
<asrwt>0</asrwt>
<pdfrwt beam="1">  1        2 0.38205336E+00 0.24750159E+04</pdfrwt>
<pdfrwt beam="2">  1       -1 0.94873577E-01 0.24750159E+04</pdfrwt>
<totfact> 0.38851998E+00</totfact>
</mgrwt>
</event>
<event>
12    7  0.1729738E-007  0.1791930E+04  0.7818608E-02  0.8710603E-01
          2   -1    0    0  501    0  0.00000000000E+00  0.00000000000E+00  0.14025926954E+04  0.14025926954E+04  0.00000000000E+00 0. -1.
         -1   -1    0    0    0  501 -0.00000000000E+00 -0.00000000000E+00 -0.57233530969E+03  0.57233530969E+03  0.00000000000E+00 0.  1.
         24    2    1    2    0    0 -0.17268111621E+03 -0.61503302689E+03  0.10790026366E+03  0.65271232404E+03  0.79413594472E+02 0.  0.
        254    2    1    2    0    0  0.17268111621E+03  0.61503302689E+03  0.72235712204E+03  0.13222156810E+04  0.90463810628E+03 0.  0.
         23    2    4    4    0    0  0.34367894457E+03  0.70806962687E+03  0.29578699935E+03  0.84586352973E+03  0.92289482082E+02 0.  0.
         23    2    4    4    0    0 -0.17099782836E+03 -0.93036599975E+02  0.42657012268E+03  0.47635215130E+03  0.83983547455E+02 0.  0.
          2    1    3    3  502    0 -0.41350921584E+02 -0.22514953063E+03  0.70900300414E+02  0.23964361551E+03  0.00000000000E+00 0. -1.
         -1    1    3    3    0  502 -0.13133019463E+03 -0.38988349627E+03  0.36999963244E+02  0.41306870853E+03  0.00000000000E+00 0.  1.
         13    1    5    5    0    0  0.60162800594E+02  0.11286964727E+03  0.13217236799E+02  0.12858388390E+03  0.00000000000E+00 0.  1.
        -13    1    5    5    0    0  0.28351614398E+03  0.59519997960E+03  0.28256976256E+03  0.71727964583E+03  0.00000000000E+00 0. -1.
          4    1    6    6  503    0  0.11659423557E+01  0.10621221407E+02  0.16023540934E+02  0.19259377711E+02  0.00000000000E+00 0.  1.
         -4    1    6    6    0  503 -0.17216377072E+03 -0.10365782138E+03  0.41054658175E+03  0.45709277359E+03  0.00000000000E+00 0. -1.
<mgrwt>
<rscale>  0 0.17919300E+04</rscale>
<asrwt>0</asrwt>
<pdfrwt beam="1">  1        2 0.21578349E+00 0.17919300E+04</pdfrwt>
<pdfrwt beam="2">  1       -1 0.88051587E-01 0.17919300E+04</pdfrwt>
<totfact> 0.19682261E+01</totfact>
</mgrwt>
</event>
<event>
12    7  0.1729738E-007  0.1503013E+04  0.7818608E-02  0.8882452E-01
         -1   -1    0    0    0  501 -0.00000000000E+00  0.00000000000E+00  0.65730986734E+03  0.65730986734E+03  0.00000000000E+00 0.  1.
          2   -1    0    0  501    0  0.00000000000E+00 -0.00000000000E+00 -0.85920212687E+03  0.85920212687E+03  0.00000000000E+00 0. -1.
         24    2    1    2    0    0 -0.72882636144E+02 -0.29152432067E+03 -0.43799350622E+03  0.53729674829E+03  0.80939335538E+02 0.  0.
        254    2    1    2    0    0  0.72882636144E+02  0.29152432067E+03  0.23610124669E+03  0.97921524592E+03  0.90156552227E+03 0.  0.
         23    2    4    4    0    0 -0.28319364846E+03 -0.49635517645E+02  0.35183641446E+03  0.46397105548E+03  0.93903943704E+02 0.  0.
         23    2    4    4    0    0  0.35607628460E+03  0.34115983832E+03 -0.11573516777E+03  0.51524419044E+03  0.94348243177E+02 0.  0.
          2    1    3    3  502    0 -0.35438327945E+02 -0.25345787012E+03 -0.38308066212E+03  0.46070333263E+03  0.00000000000E+00 0. -1.
         -1    1    3    3    0  502 -0.37444308199E+02 -0.38066450558E+02 -0.54912844101E+02  0.76593415656E+02  0.00000000000E+00 0.  1.
         13    1    5    5    0    0 -0.27107670186E+03 -0.29174045071E+02  0.29156970033E+03  0.39918240611E+03  0.00000000000E+00 0.  1.
        -13    1    5    5    0    0 -0.12116946595E+02 -0.20461472574E+02  0.60266714133E+02  0.64788649369E+02  0.00000000000E+00 0. -1.
          2    1    6    6  503    0  0.26317250745E+02  0.94958772224E+01  0.11959231877E+02  0.30426840094E+02  0.00000000000E+00 0. -1.
         -2    1    6    6    0  503  0.32975903385E+03  0.33166396110E+03 -0.12769439964E+03  0.48481735035E+03  0.00000000000E+00 0.  1.
<mgrwt>
<rscale>  0 0.15030130E+04</rscale>
<asrwt>0</asrwt>
<pdfrwt beam="1">  1        2 0.13218494E+00 0.15030130E+04</pdfrwt>
<pdfrwt beam="2">  1       -1 0.10112460E+00 0.15030130E+04</pdfrwt>
<totfact> 0.32042701E+01</totfact>
</mgrwt>
</event>
<event>
12    7  0.1729738E-007  0.1048350E+04  0.7818608E-02  0.9257049E-01
         -1   -1    0    0    0  501 -0.00000000000E+00  0.00000000000E+00  0.22463838187E+03  0.22463838187E+03  0.00000000000E+00 0.  1.
          2   -1    0    0  501    0  0.00000000000E+00 -0.00000000000E+00 -0.12231184304E+04  0.12231184304E+04  0.00000000000E+00 0. -1.
         24    2    1    2    0    0  0.25720021931E+02  0.40845788242E+02 -0.35580045754E+03  0.36814064345E+03  0.81262967127E+02 0.  0.
        254    2    1    2    0    0 -0.25720021931E+02 -0.40845788242E+02 -0.64267959094E+03  0.10796161688E+04  0.86614324296E+03 0.  0.
         23    2    4    4    0    0  0.25413463634E+02 -0.32058250452E+03  0.38016780685E+02  0.33627957265E+03  0.90662500710E+02 0.  0.
         23    2    4    4    0    0 -0.51133485565E+02  0.27973671627E+03 -0.68069637163E+03  0.74333659612E+03  0.91293378796E+02 0.  0.
          4    1    3    3  502    0  0.54751834291E+02  0.34734826195E+02 -0.24647902468E+03  0.25486502529E+03  0.00000000000E+00 0. -1.
         -3    1    3    3    0  502 -0.29031812361E+02  0.61109620477E+01 -0.10932143286E+03  0.11327561816E+03  0.00000000000E+00 0.  1.
         13    1    5    5    0    0 -0.25653847499E+02 -0.36860633623E+02 -0.34044270304E+01  0.45037943181E+02  0.00000000000E+00 0.  1.
        -13    1    5    5    0    0  0.51067311133E+02 -0.28372187089E+03  0.41421207715E+02  0.29124162947E+03  0.00000000000E+00 0. -1.
          2    1    6    6  503    0 -0.56534717050E+02  0.13742954185E+03 -0.26364473819E+03  0.30264104345E+03  0.00000000000E+00 0. -1.
         -2    1    6    6    0  503  0.54012314851E+01  0.14230717443E+03 -0.41705163344E+03  0.44069555267E+03  0.00000000000E+00 0.  1.
<mgrwt>
<rscale>  0 0.10483498E+04</rscale>
<asrwt>0</asrwt>
<pdfrwt beam="1">  1        2 0.18817207E+00 0.10483498E+04</pdfrwt>
<pdfrwt beam="2">  1       -1 0.34559751E-01 0.10483498E+04</pdfrwt>
<totfact> 0.16511818E+02</totfact>
</mgrwt>
</event>
<event>
12    7  0.1729738E-007  0.2262720E+04  0.7818608E-02  0.8492767E-01
         -1   -1    0    0    0  501 -0.00000000000E+00  0.00000000000E+00  0.16585674847E+04  0.16585674847E+04  0.00000000000E+00 0.  1.
          2   -1    0    0  501    0  0.00000000000E+00 -0.00000000000E+00 -0.77173572463E+03  0.77173572463E+03  0.00000000000E+00 0. -1.
         24    2    1    2    0    0  0.11018975085E+02 -0.65535348218E+03 -0.36414475743E+03  0.75445880313E+03  0.83648531655E+02 0.  0.
        254    2    1    2    0    0 -0.11018975085E+02  0.65535348218E+03  0.12509765175E+04  0.16758444062E+04  0.90216551809E+03 0.  0.
         23    2    4    4    0    0  0.32172782263E+03  0.52231365980E+03  0.37303322700E+03  0.72379415373E+03  0.91672446569E+02 0.  0.
         23    2    4    4    0    0 -0.33274679771E+03  0.13303982238E+03  0.87794329045E+03  0.95205025243E+03  0.84824737966E+02 0.  0.
          4    1    3    3  502    0 -0.21126937719E+02 -0.43113329930E+03 -0.20660350424E+03  0.47854704808E+03  0.00000000000E+00 0. -1.
         -3    1    3    3    0  502  0.32145912804E+02 -0.22422018288E+03 -0.15754125319E+03  0.27591175506E+03  0.00000000000E+00 0.  1.
         13    1    5    5    0    0  0.63756464483E+02  0.16938697966E+03  0.82548771141E+02  0.19892494881E+03  0.00000000000E+00 0.  1.
        -13    1    5    5    0    0  0.25797135815E+03  0.35292668014E+03  0.29048445586E+03  0.52486920492E+03  0.00000000000E+00 0. -1.
          1    1    6    6  503    0 -0.28806996823E+03  0.99452261606E+02  0.80045683712E+03  0.85650814767E+03  0.00000000000E+00 0. -1.
         -1    1    6    6    0  503 -0.44676829486E+02  0.33587560771E+02  0.77486453330E+02  0.95542104756E+02  0.00000000000E+00 0.  1.
<mgrwt>
<rscale>  0 0.22627203E+04</rscale>
<asrwt>0</asrwt>
<pdfrwt beam="1">  1        2 0.11872857E+00 0.22627203E+04</pdfrwt>
<pdfrwt beam="2">  1       -1 0.25516423E+00 0.22627203E+04</pdfrwt>
<totfact> 0.24180126E+00</totfact>
</mgrwt>
</event>
<event>
12    7  0.1729738E-007  0.2253152E+04  0.7818608E-02  0.8496625E-01
          2   -1    0    0  501    0  0.00000000000E+00  0.00000000000E+00  0.56152954293E+03  0.56152954293E+03  0.00000000000E+00 0. -1.
         -1   -1    0    0    0  501 -0.00000000000E+00 -0.00000000000E+00 -0.22602081639E+04  0.22602081639E+04  0.00000000000E+00 0.  1.
         24    2    1    2    0    0  0.58084537757E+03  0.53997465599E+03 -0.13686017653E+04  0.15839149817E+04  0.82230746444E+02 0.  0.
        254    2    1    2    0    0 -0.58084537757E+03 -0.53997465599E+03 -0.33007685568E+03  0.12378227251E+04  0.89123531478E+03 0.  0.
         23    2    4    4    0    0 -0.29062565911E+03 -0.65506928768E+02  0.27163396036E+03  0.41349156211E+03  0.91846785811E+02 0.  0.
         23    2    4    4    0    0 -0.29021971846E+03 -0.47446772723E+03 -0.60171081604E+03  0.82433116297E+03  0.90104666647E+02 0.  0.
          2    1    3    3  502    0  0.95617395211E+02  0.11672741654E+03 -0.21284783005E+03  0.26090644836E+03  0.00000000000E+00 0. -1.
         -1    1    3    3    0  502  0.48522798236E+03  0.42324723946E+03 -0.11557539352E+04  0.13230085334E+04  0.00000000000E+00 0.  1.
         13    1    5    5    0    0 -0.25365426938E+03 -0.55661594322E+02  0.27083936754E+03  0.37522348603E+03  0.00000000000E+00 0.  1.
        -13    1    5    5    0    0 -0.36971389734E+02 -0.98453344464E+01  0.79459281717E+00  0.38268076081E+02  0.00000000000E+00 0. -1.
          4    1    6    6  503    0 -0.10801601742E+03 -0.21481014237E+03 -0.31869941932E+03  0.39922446964E+03  0.00000000000E+00 0. -1.
         -4    1    6    6    0  503 -0.18220370104E+03 -0.25965758485E+03 -0.28301139672E+03  0.42510669333E+03  0.00000000000E+00 0.  1.
<mgrwt>
<rscale>  0 0.22531522E+04</rscale>
<asrwt>0</asrwt>
<pdfrwt beam="1">  1        2 0.86389160E-01 0.22531522E+04</pdfrwt>
<pdfrwt beam="2">  1       -1 0.34772433E+00 0.22531522E+04</pdfrwt>
<totfact> 0.89834001E-01</totfact>
</mgrwt>
</event>
<event>
12    7  0.1729738E-007  0.1802485E+04  0.7818608E-02  0.8704979E-01
         -1   -1    0    0    0  501 -0.00000000000E+00  0.00000000000E+00  0.31601616590E+03  0.31601616590E+03  0.00000000000E+00 0.  1.
          2   -1    0    0  501    0  0.00000000000E+00 -0.00000000000E+00 -0.25702420631E+04  0.25702420631E+04  0.00000000000E+00 0. -1.
         24    2    1    2    0    0  0.62910471233E+03  0.81458118636E+02 -0.48514828539E+03  0.80250510982E+03  0.78977391029E+02 0.  0.
        254    2    1    2    0    0 -0.62910471233E+03 -0.81458118636E+02 -0.17690776118E+04  0.20837531192E+04  0.89999072269E+03 0.  0.
         23    2    4    4    0    0 -0.82265273257E+03 -0.87643892742E+02 -0.10888030676E+04  0.13706717883E+04  0.93861924227E+02 0.  0.
         23    2    4    4    0    0  0.19354802024E+03  0.61857741060E+01 -0.68027454417E+03  0.71308133088E+03  0.90622453382E+02 0.  0.
          4    1    3    3  502    0  0.71255896962E+02  0.19173323328E+02 -0.88296047542E+02  0.11507046185E+03  0.00000000000E+00 0. -1.
         -3    1    3    3    0  502  0.55784881537E+03  0.62284795307E+02 -0.39685223785E+03  0.68743464797E+03  0.00000000000E+00 0.  1.
         13    1    5    5    0    0 -0.73975913704E+02  0.18184032115E+02 -0.11093230957E+03  0.13456995258E+03  0.00000000000E+00 0. -1.
        -13    1    5    5    0    0 -0.74867681887E+03 -0.10582792486E+03 -0.97787075806E+03  0.12361018357E+04  0.00000000000E+00 0.  1.
          3    1    6    6  503    0  0.13010899415E+03 -0.39098959038E+02 -0.43077257242E+03  0.45168804290E+03  0.00000000000E+00 0. -1.
         -3    1    6    6    0  503  0.63439026085E+02  0.45284733144E+02 -0.24950197176E+03  0.26139328797E+03  0.00000000000E+00 0.  1.
<mgrwt>
<rscale>  0 0.18024850E+04</rscale>
<asrwt>0</asrwt>
<pdfrwt beam="1">  1        2 0.39542186E+00 0.18024850E+04</pdfrwt>
<pdfrwt beam="2">  1       -1 0.48617871E-01 0.18024850E+04</pdfrwt>
<totfact> 0.14434956E+01</totfact>
</mgrwt>
</event>
<event>
12    7  0.1729738E-007  0.1834593E+04  0.7818608E-02  0.8688116E-01
         -1   -1    0    0    0  501 -0.00000000000E+00  0.00000000000E+00  0.11573097136E+04  0.11573097136E+04  0.00000000000E+00 0.  1.
          2   -1    0    0  501    0  0.00000000000E+00 -0.00000000000E+00 -0.72705961330E+03  0.72705961330E+03  0.00000000000E+00 0. -1.
         24    2    1    2    0    0 -0.33392175162E+03  0.56320415812E+03 -0.72735358507E+02  0.66347297513E+03  0.78761008339E+02 0.  0.
        254    2    1    2    0    0  0.33392175162E+03 -0.56320415812E+03  0.50298545880E+03  0.12208963518E+04  0.89938360562E+03 0.  0.
         23    2    4    4    0    0 -0.37628490069E+02  0.43538351824E+02 -0.19291749178E+03  0.22180072450E+03  0.93096248087E+02 0.  0.
         23    2    4    4    0    0  0.37155024169E+03 -0.60674250994E+03  0.69590295058E+03  0.99909562727E+03  0.87892549936E+02 0.  0.
          2    1    3    3  502    0 -0.12708419274E+03  0.15588316003E+03 -0.43074636328E+02  0.20568270691E+03  0.00000000000E+00 0. -1.
         -1    1    3    3    0  502 -0.20683755887E+03  0.40732099809E+03 -0.29660722179E+02  0.45779026823E+03  0.00000000000E+00 0.  1.
         13    1    5    5    0    0 -0.33299236899E+02  0.65330476588E+02 -0.18361222418E+03  0.19771282007E+03  0.00000000000E+00 0.  1.
        -13    1    5    5    0    0 -0.43292531698E+01 -0.21792124765E+02 -0.93052675983E+01  0.24087904430E+02  0.00000000000E+00 0. -1.
          3    1    6    6  503    0  0.24707190368E+02 -0.93418772444E+02  0.10981342384E+03  0.14627542636E+03  0.00000000000E+00 0. -1.
         -3    1    6    6    0  503  0.34684305132E+03 -0.51332373750E+03  0.58608952674E+03  0.85282020091E+03  0.00000000000E+00 0.  1.
<mgrwt>
<rscale>  0 0.18345933E+04</rscale>
<asrwt>0</asrwt>
<pdfrwt beam="1">  1        2 0.11185532E+00 0.18345933E+04</pdfrwt>
<pdfrwt beam="2">  1       -1 0.17804765E+00 0.18345933E+04</pdfrwt>
<totfact> 0.90189037E+00</totfact>
</mgrwt>
</event>
<event>
12    7  0.1729738E-007  0.1988197E+04  0.7818608E-02  0.8612159E-01
         -1   -1    0    0    0  501 -0.00000000000E+00  0.00000000000E+00  0.14198716191E+04  0.14198716191E+04  0.00000000000E+00 0.  1.
          2   -1    0    0  501    0  0.00000000000E+00 -0.00000000000E+00 -0.69600056190E+03  0.69600056190E+03  0.00000000000E+00 0. -1.
         24    2    1    2    0    0 -0.88771862166E+02  0.30685534598E+03  0.10603828428E+04  0.11103108863E+04  0.79610578157E+02 0.  0.
        254    2    1    2    0    0  0.88771862166E+02 -0.30685534598E+03 -0.33651178557E+03  0.10055612947E+04  0.89211697029E+03 0.  0.
         23    2    4    4    0    0 -0.30100622124E+03 -0.18782658702E+03 -0.44282919987E+03  0.57449249584E+03  0.89779482597E+02 0.  0.
         23    2    4    4    0    0  0.38977808341E+03 -0.11902875896E+03  0.10631741430E+03  0.43106879885E+03  0.91772092672E+02 0.  0.
          4    1    3    3  502    0 -0.73896062812E+02  0.12875920624E+03  0.54313560291E+03  0.56305936138E+03  0.00000000000E+00 0. -1.
         -3    1    3    3    0  502 -0.14875799354E+02  0.17809613974E+03  0.51724723986E+03  0.54725152494E+03  0.00000000000E+00 0.  1.
         13    1    5    5    0    0 -0.21949017525E+03 -0.15737126473E+03 -0.27499226827E+03  0.38543793224E+03  0.00000000000E+00 0. -1.
        -13    1    5    5    0    0 -0.81516045987E+02 -0.30455322283E+02 -0.16783693160E+03  0.18905456360E+03  0.00000000000E+00 0.  1.
          1    1    6    6  503    0  0.24806321472E+03 -0.49831431471E+02  0.26755842807E+02  0.25442956822E+03  0.00000000000E+00 0. -1.
         -1    1    6    6    0  503  0.14171486869E+03 -0.69197327493E+02  0.79561571497E+02  0.17663923063E+03  0.00000000000E+00 0.  1.
<mgrwt>
<rscale>  0 0.19881966E+04</rscale>
<asrwt>0</asrwt>
<pdfrwt beam="1">  1        2 0.10707701E+00 0.19881966E+04</pdfrwt>
<pdfrwt beam="2">  1       -1 0.21844179E+00 0.19881966E+04</pdfrwt>
<totfact> 0.49387836E+00</totfact>
</mgrwt>
</event>
<event>
12    7  0.1729738E-007  0.1361662E+04  0.7818608E-02  0.8982047E-01
         -1   -1    0    0    0  501 -0.00000000000E+00  0.00000000000E+00  0.51040534186E+03  0.51040534186E+03  0.00000000000E+00 0.  1.
          2   -1    0    0  501    0  0.00000000000E+00 -0.00000000000E+00 -0.90816191099E+03  0.90816191099E+03  0.00000000000E+00 0. -1.
         24    2    1    2    0    0  0.29760257171E+02  0.16089864325E+03  0.22549579386E+03  0.29037623314E+03  0.81828829984E+02 0.  0.
        254    2    1    2    0    0 -0.29760257171E+02 -0.16089864325E+03 -0.62325236298E+03  0.11281910197E+04  0.92606556069E+03 0.  0.
         23    2    4    4    0    0 -0.55041561654E+02  0.36032064595E+03 -0.40807002068E+03  0.55583163228E+03  0.97811657017E+02 0.  0.
         23    2    4    4    0    0  0.25281304483E+02 -0.52121928920E+03 -0.21518234230E+03  0.57235938744E+03  0.94779407886E+02 0.  0.
          2    1    3    3  502    0 -0.14123939902E+02  0.75518318088E+02  0.14894951868E+03  0.16759612514E+03  0.00000000000E+00 0. -1.
         -1    1    3    3    0  502  0.43884197073E+02  0.85380325159E+02  0.76546275179E+02  0.12278010800E+03  0.00000000000E+00 0.  1.
         13    1    5    5    0    0  0.10033122741E+02  0.24018248516E+03 -0.24819280629E+03  0.34552562687E+03  0.00000000000E+00 0. -1.
        -13    1    5    5    0    0 -0.65074684395E+02  0.12013816080E+03 -0.15987721439E+03  0.21030600541E+03  0.00000000000E+00 0.  1.
          3    1    6    6  503    0  0.54920225351E+02 -0.44830237248E+03 -0.18414008547E+03  0.48774872568E+03  0.00000000000E+00 0. -1.
         -3    1    6    6    0  503 -0.29638920869E+02 -0.72916916721E+02 -0.31042256829E+02  0.84610661760E+02  0.00000000000E+00 0.  1.
<mgrwt>
<rscale>  0 0.13616618E+04</rscale>
<asrwt>0</asrwt>
<pdfrwt beam="1">  1        2 0.13971722E+00 0.13616618E+04</pdfrwt>
<pdfrwt beam="2">  1       -1 0.78523899E-01 0.13616618E+04</pdfrwt>
<totfact> 0.52350223E+01</totfact>
</mgrwt>
</event>
<event>
12    7  0.1729738E-007  0.1183624E+04  0.7818608E-02  0.9127313E-01
          2   -1    0    0  501    0  0.00000000000E+00  0.00000000000E+00  0.32426834778E+04  0.32426834778E+04  0.00000000000E+00 0. -1.
         -1   -1    0    0    0  501 -0.00000000000E+00 -0.00000000000E+00 -0.10800967128E+03  0.10800967128E+03  0.00000000000E+00 0.  1.
         24    2    1    2    0    0 -0.75457949052E+02 -0.17631871826E+03  0.11145809095E+04  0.11337879248E+04  0.80014136992E+02 0.  0.
        254    2    1    2    0    0  0.75457949052E+02  0.17631871826E+03  0.20200928970E+04  0.22169052243E+04  0.89281088051E+03 0.  0.
         23    2    4    4    0    0  0.30545317558E+03  0.43282113746E+03  0.14317998164E+04  0.15292798684E+04  0.89500961396E+02 0.  0.
         23    2    4    4    0    0 -0.22999522652E+03 -0.25650241920E+03  0.58829308056E+03  0.68762535584E+03  0.89713912424E+02 0.  0.
          2    1    3    3  502    0 -0.26115321508E+02 -0.12405299206E+03  0.85854725138E+03  0.86785628863E+03  0.00000000000E+00 0. -1.
         -1    1    3    3    0  502 -0.49342627544E+02 -0.52265726194E+02  0.25603365811E+03  0.26593163617E+03  0.00000000000E+00 0.  1.
         13    1    5    5    0    0  0.21466141221E+03  0.26465819816E+03  0.80964124177E+03  0.87843179822E+03  0.00000000000E+00 0.  1.
        -13    1    5    5    0    0  0.90791763370E+02  0.16816293929E+03  0.62215857466E+03  0.65084807019E+03  0.00000000000E+00 0. -1.
          4    1    6    6  503    0 -0.20373897865E+03 -0.16967203503E+03  0.44701910853E+03  0.51973479225E+03  0.00000000000E+00 0.  1.
         -4    1    6    6    0  503 -0.26256247875E+02 -0.86830384169E+02  0.14127397204E+03  0.16789056359E+03  0.00000000000E+00 0. -1.
<mgrwt>
<rscale>  0 0.11836235E+04</rscale>
<asrwt>0</asrwt>
<pdfrwt beam="1">  1        2 0.49887431E+00 0.11836235E+04</pdfrwt>
<pdfrwt beam="2">  1       -1 0.16616875E-01 0.11836235E+04</pdfrwt>
<totfact> 0.38841876E+01</totfact>
</mgrwt>
</event>
<event>
12    7  0.1729738E-007  0.1762356E+04  0.7818608E-02  0.8726578E-01
         -1   -1    0    0    0  501 -0.00000000000E+00  0.00000000000E+00  0.80516226445E+03  0.80516226445E+03  0.00000000000E+00 0.  1.
          2   -1    0    0  501    0  0.00000000000E+00 -0.00000000000E+00 -0.96436998439E+03  0.96436998439E+03  0.00000000000E+00 0. -1.
         24    2    1    2    0    0 -0.28921593462E+03 -0.42120905842E+03  0.32334655097E+03  0.60989509860E+03  0.79725225247E+02 0.  0.
        254    2    1    2    0    0  0.28921593462E+03  0.42120905842E+03 -0.48255427091E+03  0.11596371502E+04  0.92240813533E+03 0.  0.
         23    2    4    4    0    0  0.46776035444E+03 -0.33134382048E+02 -0.13813365853E+02  0.47663296687E+03  0.84205341744E+02 0.  0.
         23    2    4    4    0    0 -0.17854441982E+03  0.45434344046E+03 -0.46874090506E+03  0.68300418337E+03  0.92035898902E+02 0.  0.
          4    1    3    3  502    0 -0.22321202441E+03 -0.32248752211E+03  0.28600853004E+03  0.48540981553E+03  0.00000000000E+00 0. -1.
         -3    1    3    3    0  502 -0.66003910211E+02 -0.98721536306E+02  0.37338020931E+02  0.12448528307E+03  0.00000000000E+00 0.  1.
         13    1    5    5    0    0  0.33398555100E+03  0.66060843413E+01 -0.33382437039E+02  0.33571472373E+03  0.00000000000E+00 0. -1.
        -13    1    5    5    0    0  0.13377480343E+03 -0.39740466389E+02  0.19569071185E+02  0.14091824314E+03  0.00000000000E+00 0.  1.
          3    1    6    6  503    0 -0.13766768492E+03  0.24735412982E+03 -0.30335154525E+03  0.41492001279E+03  0.00000000000E+00 0. -1.
         -3    1    6    6    0  503 -0.40876734894E+02  0.20698931064E+03 -0.16538935981E+03  0.26808417058E+03  0.00000000000E+00 0.  1.
<mgrwt>
<rscale>  0 0.17623556E+04</rscale>
<asrwt>0</asrwt>
<pdfrwt beam="1">  1        2 0.14836461E+00 0.17623556E+04</pdfrwt>
<pdfrwt beam="2">  1       -1 0.12387112E+00 0.17623556E+04</pdfrwt>
<totfact> 0.16431602E+01</totfact>
</mgrwt>
</event>
<event>
12    7  0.1729738E-007  0.1666343E+04  0.7818608E-02  0.8780796E-01
         -1   -1    0    0    0  501 -0.00000000000E+00  0.00000000000E+00  0.37510516292E+03  0.37510516292E+03  0.00000000000E+00 0.  1.
          2   -1    0    0  501    0  0.00000000000E+00 -0.00000000000E+00 -0.18506136954E+04  0.18506136954E+04  0.00000000000E+00 0. -1.
         24    2    1    2    0    0 -0.47982292882E+03  0.80528432810E+02 -0.91038871193E+03  0.10353103840E+04  0.79656217352E+02 0.  0.
        254    2    1    2    0    0  0.47982292882E+03 -0.80528432810E+02 -0.56511982058E+03  0.11904084743E+04  0.92789926855E+03 0.  0.
         23    2    4    4    0    0  0.73891805288E+03 -0.91480133643E+02 -0.51998596204E+03  0.91217857659E+03  0.85532748927E+02 0.  0.
         23    2    4    4    0    0 -0.25909512406E+03  0.10951700834E+02 -0.45133858542E+02  0.27822989773E+03  0.90136495057E+02 0.  0.
          4    1    3    3  502    0 -0.23403874593E+03  0.52001496360E+01 -0.47877124600E+03  0.53293815978E+03  0.00000000000E+00 0. -1.
         -3    1    3    3    0  502 -0.24578418289E+03  0.75328283174E+02 -0.43161746593E+03  0.50237222425E+03  0.00000000000E+00 0.  1.
         13    1    5    5    0    0  0.66340429016E+03 -0.99351385884E+02 -0.48926988419E+03  0.83027764613E+03  0.00000000000E+00 0.  1.
        -13    1    5    5    0    0  0.75513762716E+02  0.78712522407E+01 -0.30716077854E+02  0.81900930459E+02  0.00000000000E+00 0. -1.
          3    1    6    6  503    0 -0.54503121946E+02  0.37496910392E+02  0.35695398233E+01  0.66252171325E+02  0.00000000000E+00 0. -1.
         -3    1    6    6    0  503 -0.20459200211E+03 -0.26545209558E+02 -0.48703398365E+02  0.21197772640E+03  0.00000000000E+00 0.  1.
<mgrwt>
<rscale>  0 0.16663430E+04</rscale>
<asrwt>0</asrwt>
<pdfrwt beam="1">  1        2 0.28470979E+00 0.16663430E+04</pdfrwt>
<pdfrwt beam="2">  1       -1 0.57708489E-01 0.16663430E+04</pdfrwt>
<totfact> 0.26734286E+01</totfact>
</mgrwt>
</event>
<event>
12    7  0.1729738E-007  0.1882517E+04  0.7818608E-02  0.8663608E-01
         -1   -1    0    0    0  501 -0.00000000000E+00  0.00000000000E+00  0.34942686723E+03  0.34942686723E+03  0.00000000000E+00 0.  1.
          2   -1    0    0  501    0  0.00000000000E+00 -0.00000000000E+00 -0.25354867019E+04  0.25354867019E+04  0.00000000000E+00 0. -1.
         24    2    1    2    0    0  0.43116102478E+03  0.33704668580E+03 -0.12202851583E+03  0.56656480646E+03  0.81267604550E+02 0.  0.
        254    2    1    2    0    0 -0.43116102478E+03 -0.33704668580E+03 -0.20640313189E+04  0.23183487627E+04  0.90278203489E+03 0.  0.
         23    2    4    4    0    0 -0.74100585430E+02 -0.10417115169E+03  0.45865013419E+02  0.16344908294E+03  0.90936668370E+02 0.  0.
         23    2    4    4    0    0 -0.35706043935E+03 -0.23287553411E+03 -0.21098963323E+04  0.21548996797E+04  0.10102932765E+03 0.  0.
          2    1    3    3  502    0  0.67025393018E+02  0.93900261828E+02 -0.28458913341E+02  0.11882580624E+03  0.00000000000E+00 0. -1.
         -1    1    3    3    0  502  0.36413563176E+03  0.24314642397E+03 -0.93569602490E+02  0.44773900022E+03  0.00000000000E+00 0.  1.
         13    1    5    5    0    0 -0.84300358564E+02 -0.80447391619E+02  0.62991683257E+02  0.13246239252E+03  0.00000000000E+00 0.  1.
        -13    1    5    5    0    0  0.10199773134E+02 -0.23723760069E+02 -0.17126669838E+02  0.30986690425E+02  0.00000000000E+00 0. -1.
          4    1    6    6  503    0 -0.27137456206E+03 -0.21360453422E+03 -0.17983338247E+04  0.18311951275E+04  0.00000000000E+00 0.  1.
         -4    1    6    6    0  503 -0.85685877284E+02 -0.19270999893E+02 -0.31156250761E+03  0.32370455225E+03  0.00000000000E+00 0. -1.
<mgrwt>
<rscale>  0 0.18825166E+04</rscale>
<asrwt>0</asrwt>
<pdfrwt beam="1">  1        2 0.39007487E+00 0.18825166E+04</pdfrwt>
<pdfrwt beam="2">  1       -1 0.53757980E-01 0.18825166E+04</pdfrwt>
<totfact> 0.12391181E+01</totfact>
</mgrwt>
</event>
<event>
12    7  0.1729738E-007  0.2363053E+04  0.7818608E-02  0.8453467E-01
          2   -1    0    0  501    0  0.00000000000E+00  0.00000000000E+00  0.99677659117E+03  0.99677659117E+03  0.00000000000E+00 0. -1.
         -3   -1    0    0    0  501 -0.00000000000E+00 -0.00000000000E+00 -0.14005198449E+04  0.14005198449E+04  0.00000000000E+00 0.  1.
         24    2    1    2    0    0 -0.76923671014E+03 -0.62268408194E+03 -0.34958536133E+03  0.10527957457E+04  0.81904671461E+02 0.  0.
        254    2    1    2    0    0  0.76923671014E+03  0.62268408194E+03 -0.54157892369E+02  0.13445006903E+04  0.90845387712E+03 0.  0.
         23    2    4    4    0    0  0.72073690370E+03  0.37769256398E+03  0.32516761997E+03  0.88135071101E+03  0.94507869958E+02 0.  0.
         23    2    4    4    0    0  0.48499806439E+02  0.24499151796E+03 -0.37932551234E+03  0.46314997931E+03  0.90812906183E+02 0.  0.
          4    1    3    3  502    0 -0.17934716414E+02 -0.53260335201E+01 -0.16420372535E+02  0.24892756378E+02  0.00000000000E+00 0. -1.
         -1    1    3    3    0  502 -0.75130199372E+03 -0.61735804842E+03 -0.33316498880E+03  0.10279029893E+04  0.00000000000E+00 0.  1.
         13    1    5    5    0    0  0.42023683431E+03  0.17164312580E+03  0.20060577161E+03  0.49628926559E+03  0.00000000000E+00 0. -1.
        -13    1    5    5    0    0  0.30050006939E+03  0.20604943818E+03  0.12456184837E+03  0.38506144542E+03  0.00000000000E+00 0.  1.
          3    1    6    6  503    0  0.40843401499E+02  0.30474908193E+02 -0.78626352950E+02  0.93696354538E+02  0.00000000000E+00 0.  1.
         -3    1    6    6    0  503  0.76564049398E+01  0.21451660976E+03 -0.30069915939E+03  0.36945362477E+03  0.00000000000E+00 0. -1.
<mgrwt>
<rscale>  0 0.23630534E+04</rscale>
<asrwt>0</asrwt>
<pdfrwt beam="1">  1        2 0.15335024E+00 0.23630534E+04</pdfrwt>
<pdfrwt beam="2">  1       -3 0.21546459E+00 0.23630534E+04</pdfrwt>
<totfact> 0.16839970E+00</totfact>
</mgrwt>
</event>
<event>
12    7  0.1729738E-007  0.1287228E+04  0.7818608E-02  0.9039755E-01
         -1   -1    0    0    0  501 -0.00000000000E+00  0.00000000000E+00  0.35143917568E+03  0.35143917568E+03  0.00000000000E+00 0.  1.
          2   -1    0    0  501    0  0.00000000000E+00 -0.00000000000E+00 -0.11786938234E+04  0.11786938234E+04  0.00000000000E+00 0. -1.
         24    2    1    2    0    0  0.10843288194E+03 -0.29127987052E+03 -0.11152086847E+03  0.33978050870E+03  0.80076445526E+02 0.  0.
        254    2    1    2    0    0 -0.10843288194E+03  0.29127987052E+03 -0.71573377929E+03  0.11903524904E+04  0.89892299768E+03 0.  0.
         23    2    4    4    0    0  0.25854251370E+03  0.32089118491E+03 -0.69247154820E+03  0.81091646935E+03  0.90847626559E+02 0.  0.
         23    2    4    4    0    0 -0.36697539564E+03 -0.29611314385E+02 -0.23262231082E+02  0.37943602106E+03  0.88785087371E+02 0.  0.
          2    1    3    3  502    0  0.50652558397E+02 -0.11163417128E+03 -0.85099541604E+02  0.14923070010E+03  0.00000000000E+00 0. -1.
         -1    1    3    3    0  502  0.57780323540E+02 -0.17964569924E+03 -0.26421326870E+02  0.19054980860E+03  0.00000000000E+00 0.  1.
         13    1    5    5    0    0  0.17084376142E+03  0.17666163196E+03 -0.48272289604E+03  0.54168101074E+03  0.00000000000E+00 0.  1.
        -13    1    5    5    0    0  0.87698752279E+02  0.14422955295E+03 -0.20974865216E+03  0.26923545862E+03  0.00000000000E+00 0. -1.
          1    1    6    6  503    0 -0.12281409608E+03 -0.51761811326E+02 -0.15189686878E+02  0.13413915869E+03  0.00000000000E+00 0. -1.
         -1    1    6    6    0  503 -0.24416129956E+03  0.22150496941E+02 -0.80725442044E+01  0.24529686237E+03  0.00000000000E+00 0.  1.
<mgrwt>
<rscale>  0 0.12872283E+04</rscale>
<asrwt>0</asrwt>
<pdfrwt beam="1">  1        2 0.18133751E+00 0.12872283E+04</pdfrwt>
<pdfrwt beam="2">  1       -1 0.54067566E-01 0.12872283E+04</pdfrwt>
<totfact> 0.75347769E+01</totfact>
</mgrwt>
</event>
<event>
12    7  0.1729738E-007  0.1783754E+04  0.7818608E-02  0.8714987E-01
         -1   -1    0    0    0  501 -0.00000000000E+00  0.00000000000E+00  0.63932356321E+03  0.63932356321E+03  0.00000000000E+00 0.  1.
          2   -1    0    0  501    0  0.00000000000E+00 -0.00000000000E+00 -0.12441970411E+04  0.12441970411E+04  0.00000000000E+00 0. -1.
         24    2    1    2    0    0 -0.91262086549E+02 -0.31527450966E+03 -0.83410495013E+03  0.89998090053E+03  0.80670741991E+02 0.  0.
        254    2    1    2    0    0  0.91262086549E+02  0.31527450966E+03  0.22923147227E+03  0.98353970374E+03  0.89837436299E+03 0.  0.
         23    2    4    4    0    0 -0.28597258104E+02 -0.24137973652E+03 -0.14316046486E+03  0.29661884502E+03  0.91683368971E+02 0.  0.
         23    2    4    4    0    0  0.11985934465E+03  0.55665424618E+03  0.37239193713E+03  0.68692085872E+03  0.94627157958E+02 0.  0.
          2    1    3    3  502    0 -0.59779557644E+02 -0.22417809348E+03 -0.67715365711E+03  0.71579779857E+03  0.00000000000E+00 0. -1.
         -1    1    3    3    0  502 -0.31482528905E+02 -0.91096416174E+02 -0.15695129302E+03  0.18418310196E+03  0.00000000000E+00 0.  1.
         13    1    5    5    0    0 -0.41079863019E+02 -0.22602346505E+03 -0.10282162732E+03  0.25168720457E+03  0.00000000000E+00 0.  1.
        -13    1    5    5    0    0  0.12482604915E+02 -0.15356271470E+02 -0.40338837546E+02  0.44931640449E+02  0.00000000000E+00 0. -1.
          4    1    6    6  503    0  0.45678618141E+02  0.95034423964E+02  0.10259832711E+03  0.14712068046E+03  0.00000000000E+00 0. -1.
         -4    1    6    6    0  503  0.74180726513E+02  0.46161982221E+03  0.26979361002E+03  0.53980017826E+03  0.00000000000E+00 0.  1.
<mgrwt>
<rscale>  0 0.17837539E+04</rscale>
<asrwt>0</asrwt>
<pdfrwt beam="1">  1        2 0.19141493E+00 0.17837539E+04</pdfrwt>
<pdfrwt beam="2">  1       -1 0.98357473E-01 0.17837539E+04</pdfrwt>
<totfact> 0.19020829E+01</totfact>
</mgrwt>
</event>
<event>
12    7  0.1729738E-007  0.1098074E+04  0.7818608E-02  0.9207071E-01
          2   -1    0    0  501    0  0.00000000000E+00  0.00000000000E+00  0.91291479472E+03  0.91291479472E+03  0.00000000000E+00 0. -1.
         -1   -1    0    0    0  501 -0.00000000000E+00 -0.00000000000E+00 -0.33019710645E+03  0.33019710645E+03  0.00000000000E+00 0.  1.
         24    2    1    2    0    0  0.17158542976E+03 -0.65142099012E+02  0.24590678545E+02  0.20123063539E+03  0.78765565943E+02 0.  0.
        254    2    1    2    0    0 -0.17158542976E+03  0.65142099012E+02  0.55812700973E+03  0.10418812658E+04  0.86042185017E+03 0.  0.
         23    2    4    4    0    0  0.24590216708E+03  0.20210039294E+03  0.48447940712E+03  0.58682067499E+03  0.91245624923E+02 0.  0.
         23    2    4    4    0    0 -0.41748759684E+03 -0.13695829393E+03  0.73647602605E+02  0.45506059080E+03  0.92750763559E+02 0.  0.
          2    1    3    3  502    0  0.13227325825E+02 -0.31239502843E+02  0.19659109569E+02  0.39209045836E+02  0.00000000000E+00 0. -1.
         -1    1    3    3    0  502  0.15835810393E+03 -0.33902596169E+02  0.49315689766E+01  0.16202158955E+03  0.00000000000E+00 0.  1.
         13    1    5    5    0    0  0.52944419219E+01 -0.40636201680E+01 -0.13394231545E+01  0.68072151811E+01  0.00000000000E+00 0. -1.
        -13    1    5    5    0    0  0.24060772516E+03  0.20616401311E+03  0.48581883028E+03  0.58001345981E+03  0.00000000000E+00 0.  1.
          1    1    6    6  503    0 -0.20823872531E+03 -0.10459663673E+03  0.69904708657E+02  0.24329096043E+03  0.00000000000E+00 0. -1.
         -1    1    6    6    0  503 -0.20924887152E+03 -0.32361657195E+02  0.37428939476E+01  0.21176963036E+03  0.00000000000E+00 0.  1.
<mgrwt>
<rscale>  0 0.10980744E+04</rscale>
<asrwt>0</asrwt>
<pdfrwt beam="1">  1        2 0.14044843E+00 0.10980744E+04</pdfrwt>
<pdfrwt beam="2">  1       -1 0.50799555E-01 0.10980744E+04</pdfrwt>
<totfact> 0.12674281E+02</totfact>
</mgrwt>
</event>
<event>
12    7  0.1729738E-007  0.2227285E+04  0.7818608E-02  0.8507157E-01
         -1   -1    0    0    0  501 -0.00000000000E+00  0.00000000000E+00  0.13364980575E+04  0.13364980575E+04  0.00000000000E+00 0.  1.
          2   -1    0    0  501    0  0.00000000000E+00 -0.00000000000E+00 -0.92794688446E+03  0.92794688446E+03  0.00000000000E+00 0. -1.
         24    2    1    2    0    0  0.41194390932E+03 -0.81581237726E+03 -0.43475691719E+01  0.91757537004E+03  0.81719269564E+02 0.  0.
        254    2    1    2    0    0 -0.41194390932E+03  0.81581237726E+03  0.41289874221E+03  0.13468695719E+04  0.89906876998E+03 0.  0.
         23    2    4    4    0    0 -0.11770023331E+03  0.92363205325E+03  0.40632603346E+03  0.10204736248E+04  0.96519732037E+02 0.  0.
         23    2    4    4    0    0 -0.29424367601E+03 -0.10781967599E+03  0.65727087520E+01  0.32639594716E+03  0.91031260647E+02 0.  0.
          2    1    3    3  502    0  0.29448921772E+03 -0.62331525261E+03  0.26980550846E+02  0.68990851104E+03  0.00000000000E+00 0. -1.
         -1    1    3    3    0  502  0.11745469161E+03 -0.19249712465E+03 -0.31328120018E+02  0.22766685899E+03  0.00000000000E+00 0.  1.
         13    1    5    5    0    0 -0.24584807727E+02  0.17771445040E+03  0.38035466864E+02  0.18339448026E+03  0.00000000000E+00 0. -1.
        -13    1    5    5    0    0 -0.93115425582E+02  0.74591760285E+03  0.36829056660E+03  0.83707914451E+03  0.00000000000E+00 0.  1.
          2    1    6    6  503    0 -0.16175023716E+03 -0.85154850219E+02  0.41639971331E+02  0.18747899869E+03  0.00000000000E+00 0.  1.
         -2    1    6    6    0  503 -0.13249343886E+03 -0.22664825773E+02 -0.35067262579E+02  0.13891694847E+03  0.00000000000E+00 0. -1.
<mgrwt>
<rscale>  0 0.22272846E+04</rscale>
<asrwt>0</asrwt>
<pdfrwt beam="1">  1        2 0.14276106E+00 0.22272846E+04</pdfrwt>
<pdfrwt beam="2">  1       -1 0.20561509E+00 0.22272846E+04</pdfrwt>
<totfact> 0.40222585E+00</totfact>
</mgrwt>
</event>
<event>
12    7  0.1729738E-007  0.2434030E+04  0.7818608E-02  0.8426872E-01
         -1   -1    0    0    0  501 -0.00000000000E+00  0.00000000000E+00  0.50669756557E+03  0.50669756557E+03  0.00000000000E+00 0.  1.
          2   -1    0    0  501    0  0.00000000000E+00 -0.00000000000E+00 -0.29230959127E+04  0.29230959127E+04  0.00000000000E+00 0. -1.
         24    2    1    2    0    0 -0.53523255842E+03 -0.62484727327E+03 -0.19693508138E+04  0.21355327980E+04  0.72454792093E+02 0.  0.
        254    2    1    2    0    0  0.53523255842E+03  0.62484727327E+03 -0.44704753333E+03  0.12942606803E+04  0.89350501116E+03 0.  0.
         23    2    4    4    0    0  0.32080980316E+03 -0.15836297518E+03 -0.11767233200E+02  0.36840186954E+03  0.87084487656E+02 0.  0.
         23    2    4    4    0    0  0.21442275527E+03  0.78321024845E+03 -0.43528030013E+03  0.92585881075E+03  0.91379354936E+02 0.  0.
          2    1    3    3  502    0 -0.44464668748E+03 -0.49159088225E+03 -0.16396123603E+04  0.17685307360E+04  0.00000000000E+00 0. -1.
         -1    1    3    3    0  502 -0.90585870946E+02 -0.13325639102E+03 -0.32973845352E+03  0.36700206198E+03  0.00000000000E+00 0.  1.
         13    1    5    5    0    0  0.20132967489E+03 -0.51272945778E+02 -0.53462125667E+01  0.20782476982E+03  0.00000000000E+00 0.  1.
        -13    1    5    5    0    0  0.11948012826E+03 -0.10709002940E+03 -0.64210206335E+01  0.16057709972E+03  0.00000000000E+00 0. -1.
          1    1    6    6  503    0  0.18741833537E+03  0.75114652937E+03 -0.40194325400E+03  0.87229875642E+03  0.00000000000E+00 0. -1.
         -1    1    6    6    0  503  0.27004419899E+02  0.32063719087E+02 -0.33337046128E+02  0.53560054335E+02  0.00000000000E+00 0.  1.
<mgrwt>
<rscale>  0 0.24340301E+04</rscale>
<asrwt>0</asrwt>
<pdfrwt beam="1">  1        2 0.44970707E+00 0.24340301E+04</pdfrwt>
<pdfrwt beam="2">  1       -1 0.77953471E-01 0.24340301E+04</pdfrwt>
<totfact> 0.32690539E+00</totfact>
</mgrwt>
</event>
<event>
12    7  0.1729738E-007  0.2199611E+04  0.7818608E-02  0.8518590E-01
         -3   -1    0    0    0  501 -0.00000000000E+00  0.00000000000E+00  0.52981076267E+03  0.52981076267E+03  0.00000000000E+00 0.  1.
          4   -1    0    0  501    0  0.00000000000E+00 -0.00000000000E+00 -0.22830263946E+04  0.22830263946E+04  0.00000000000E+00 0. -1.
         24    2    1    2    0    0 -0.55858232732E+03  0.68447767050E+03 -0.42493943496E+03  0.98365552068E+03  0.80503181116E+02 0.  0.
        254    2    1    2    0    0  0.55858232732E+03 -0.68447767050E+03 -0.13282761969E+04  0.18291816365E+04  0.89502173514E+03 0.  0.
         23    2    4    4    0    0 -0.18888767690E+03 -0.28141113308E+03 -0.17041715338E+03  0.39032888012E+03  0.91890414005E+02 0.  0.
         23    2    4    4    0    0  0.74747000422E+03 -0.40306653742E+03 -0.11578590435E+04  0.14388527564E+04  0.92117583390E+02 0.  0.
          2    1    3    3  502    0 -0.12476756471E+03  0.17326816424E+03 -0.67938509042E+02  0.22406347974E+03  0.00000000000E+00 0. -1.
         -1    1    3    3    0  502 -0.43381476262E+03  0.51120950626E+03 -0.35700092592E+03  0.75959204094E+03  0.00000000000E+00 0.  1.
         13    1    5    5    0    0 -0.87172959968E+02 -0.19717525641E+03 -0.78538193833E+02  0.22944597312E+03  0.00000000000E+00 0. -1.
        -13    1    5    5    0    0 -0.10171471693E+03 -0.84235876671E+02 -0.91878959548E+02  0.16088290701E+03  0.00000000000E+00 0.  1.
          2    1    6    6  503    0  0.31383659216E+03 -0.13054270184E+03 -0.51229799739E+03  0.61480406774E+03  0.00000000000E+00 0. -1.
         -2    1    6    6    0  503  0.43363341206E+03 -0.27252383558E+03 -0.64556104614E+03  0.82404868868E+03  0.00000000000E+00 0.  1.
<mgrwt>
<rscale>  0 0.21996108E+04</rscale>
<asrwt>0</asrwt>
<pdfrwt beam="1">  1        4 0.35123483E+00 0.21996108E+04</pdfrwt>
<pdfrwt beam="2">  1       -3 0.81509348E-01 0.21996108E+04</pdfrwt>
<totfact> 0.42331402E-02</totfact>
</mgrwt>
</event>
<event>
12    7  0.1729738E-007  0.1207671E+04  0.7818608E-02  0.9106168E-01
          2   -1    0    0  501    0  0.00000000000E+00  0.00000000000E+00  0.38238782072E+04  0.38238782072E+04  0.00000000000E+00 0. -1.
         -1   -1    0    0    0  501 -0.00000000000E+00 -0.00000000000E+00 -0.95352818339E+02  0.95352818339E+02  0.00000000000E+00 0.  1.
         24    2    1    2    0    0  0.74947778685E+02  0.24426215914E+03  0.10618410136E+04  0.10950849700E+04  0.80147249334E+02 0.  0.
        254    2    1    2    0    0 -0.74947778685E+02 -0.24426215914E+03  0.26666843752E+04  0.28241460555E+04  0.89404374249E+03 0.  0.
         23    2    4    4    0    0 -0.35771453504E+03 -0.43143884966E+03  0.18443361560E+04  0.19298292653E+04  0.92552509437E+02 0.  0.
         23    2    4    4    0    0  0.28276675635E+03  0.18717669052E+03  0.82234821921E+03  0.89431679021E+03  0.92486624096E+02 0.  0.
          2    1    3    3  502    0  0.20558514503E+02  0.44811059263E+02  0.36218533325E+03  0.36552551097E+03  0.00000000000E+00 0. -1.
         -1    1    3    3    0  502  0.54389264182E+02  0.19945109987E+03  0.69965568034E+03  0.72955945908E+03  0.00000000000E+00 0.  1.
         13    1    5    5    0    0 -0.22846591303E+03 -0.31294042910E+03  0.11422424674E+04  0.12061700709E+04  0.00000000000E+00 0. -1.
        -13    1    5    5    0    0 -0.12924862200E+03 -0.11849842056E+03  0.70209368861E+03  0.72365919434E+03  0.00000000000E+00 0.  1.
          2    1    6    6  503    0  0.18592568438E+03  0.94469732254E+02  0.59371058008E+03  0.62927350439E+03  0.00000000000E+00 0. -1.
         -2    1    6    6    0  503  0.96841071968E+02  0.92706958267E+02  0.22863763913E+03  0.26504328582E+03  0.00000000000E+00 0.  1.
<mgrwt>
<rscale>  0 0.12076714E+04</rscale>
<asrwt>0</asrwt>
<pdfrwt beam="1">  1        2 0.58828884E+00 0.12076714E+04</pdfrwt>
<pdfrwt beam="2">  1       -1 0.14669667E-01 0.12076714E+04</pdfrwt>
<totfact> 0.18676328E+01</totfact>
</mgrwt>
</event>
<event>
12    7  0.1729738E-007  0.3860741E+04  0.7818608E-02  0.8033244E-01
         -1   -1    0    0    0  501 -0.00000000000E+00  0.00000000000E+00  0.19785146976E+04  0.19785146976E+04  0.00000000000E+00 0.  1.
          2   -1    0    0  501    0  0.00000000000E+00 -0.00000000000E+00 -0.18833974889E+04  0.18833974889E+04  0.00000000000E+00 0. -1.
         24    2    1    2    0    0  0.66837436498E+03 -0.39457550990E+03 -0.16103883492E+04  0.17893835602E+04  0.78286432562E+02 0.  0.
        254    2    1    2    0    0 -0.66837436498E+03  0.39457550990E+03  0.17055055579E+04  0.20725286262E+04  0.88555721086E+03 0.  0.
         23    2    4    4    0    0 -0.34892454994E+03 -0.22800316054E+03  0.38127273985E+03  0.57182893551E+03  0.88801163062E+02 0.  0.
         23    2    4    4    0    0 -0.31944981504E+03  0.62257867043E+03  0.13242328181E+04  0.15006996907E+04  0.94098990990E+02 0.  0.
          4    1    3    3  502    0  0.40556755072E+03 -0.26430933021E+03 -0.92957794326E+03  0.10480742401E+04  0.00000000000E+00 0. -1.
         -3    1    3    3    0  502  0.26280681427E+03 -0.13026617969E+03 -0.68081040596E+03  0.74130932009E+03  0.00000000000E+00 0.  1.
         13    1    5    5    0    0 -0.14697159319E+03 -0.14251372496E+03  0.21277913216E+03  0.29527236594E+03  0.00000000000E+00 0. -1.
        -13    1    5    5    0    0 -0.20195295675E+03 -0.85489435581E+02  0.16849360770E+03  0.27655656957E+03  0.00000000000E+00 0.  1.
          2    1    6    6  503    0 -0.23159777060E+03  0.52721436083E+03  0.10573160308E+04  0.12039558541E+04  0.00000000000E+00 0. -1.
         -2    1    6    6    0  503 -0.87852044443E+02  0.95364309601E+02  0.26691678728E+03  0.29674383665E+03  0.00000000000E+00 0.  1.
<mgrwt>
<rscale>  0 0.38607407E+04</rscale>
<asrwt>0</asrwt>
<pdfrwt beam="1">  1        2 0.28975346E+00 0.38607407E+04</pdfrwt>
<pdfrwt beam="2">  1       -1 0.30438687E+00 0.38607407E+04</pdfrwt>
<totfact> 0.21777656E-01</totfact>
</mgrwt>
</event>
<event>
12    7  0.1729738E-007  0.1877196E+04  0.7818608E-02  0.8666292E-01
         -1   -1    0    0    0  501 -0.00000000000E+00  0.00000000000E+00  0.14620904967E+04  0.14620904967E+04  0.00000000000E+00 0.  1.
          2   -1    0    0  501    0  0.00000000000E+00 -0.00000000000E+00 -0.60253845676E+03  0.60253845676E+03  0.00000000000E+00 0. -1.
         24    2    1    2    0    0 -0.14496631838E+03 -0.18246328416E+03  0.10839678837E+04  0.11120621861E+04  0.85952598911E+02 0.  0.
        254    2    1    2    0    0  0.14496631838E+03  0.18246328416E+03 -0.22441584376E+03  0.95256676739E+03  0.89594246014E+03 0.  0.
         23    2    4    4    0    0 -0.37886309997E+02  0.48257552154E+03 -0.30675986043E+03  0.58009518061E+03  0.89968328392E+02 0.  0.
         23    2    4    4    0    0  0.18285262837E+03 -0.30011223738E+03  0.82344016675E+02  0.37247158678E+03  0.91935342193E+02 0.  0.
          4    1    3    3  502    0 -0.29623490726E+02  0.32093754751E+01  0.12728515526E+03  0.13072628673E+03  0.00000000000E+00 0. -1.
         -3    1    3    3    0  502 -0.11534282765E+03 -0.18567265963E+03  0.95668272843E+03  0.98133589932E+03  0.00000000000E+00 0.  1.
         13    1    5    5    0    0 -0.64617644879E+02  0.40826939357E+03 -0.25992427422E+03  0.48828267027E+03  0.00000000000E+00 0.  1.
        -13    1    5    5    0    0  0.26731334881E+02  0.74306127973E+02 -0.46835586210E+02  0.91812510337E+02  0.00000000000E+00 0. -1.
          2    1    6    6  503    0  0.18442074555E+03 -0.24833231988E+03  0.55984772397E+02  0.31434733533E+03  0.00000000000E+00 0.  1.
         -2    1    6    6    0  503 -0.15681171732E+01 -0.51779917501E+02  0.26359244279E+02  0.58124251451E+02  0.00000000000E+00 0. -1.
<mgrwt>
<rscale>  0 0.18771955E+04</rscale>
<asrwt>0</asrwt>
<pdfrwt beam="1">  1        2 0.92698224E-01 0.18771955E+04</pdfrwt>
<pdfrwt beam="2">  1       -1 0.22493700E+00 0.18771955E+04</pdfrwt>
<totfact> 0.53926949E+00</totfact>
</mgrwt>
</event>
<event>
12    7  0.1729738E-007  0.1427283E+04  0.7818608E-02  0.8934303E-01
          2   -1    0    0  501    0  0.00000000000E+00  0.00000000000E+00  0.47012107847E+03  0.47012107847E+03  0.00000000000E+00 0. -1.
         -1   -1    0    0    0  501 -0.00000000000E+00 -0.00000000000E+00 -0.10833039258E+04  0.10833039258E+04  0.00000000000E+00 0.  1.
         24    2    1    2    0    0 -0.39500739426E+02 -0.29677366184E+03  0.14628241779E+03  0.34140596146E+03  0.74327451098E+02 0.  0.
        254    2    1    2    0    0  0.39500739426E+02  0.29677366184E+03 -0.75946526514E+03  0.12120190428E+04  0.89586146052E+03 0.  0.
         23    2    4    4    0    0  0.17638522273E+03  0.27609670593E+03 -0.92037338737E+03  0.98127625164E+03  0.92058525068E+02 0.  0.
         23    2    4    4    0    0 -0.13688448330E+03  0.20676955914E+02  0.16090812222E+03  0.23074279119E+03  0.90476038905E+02 0.  0.
          4    1    3    3  502    0  0.11819503675E+02 -0.13857216281E+03  0.90740103356E+02  0.16605936086E+03  0.00000000000E+00 0. -1.
         -3    1    3    3    0  502 -0.51320243101E+02 -0.15820149904E+03  0.55542314435E+02  0.17534660060E+03  0.00000000000E+00 0.  1.
         13    1    5    5    0    0  0.77053432141E+02  0.19958834988E+03 -0.54347200495E+03  0.58406725724E+03  0.00000000000E+00 0.  1.
        -13    1    5    5    0    0  0.99331790588E+02  0.76508356050E+02 -0.37690138242E+03  0.39720899440E+03  0.00000000000E+00 0. -1.
          3    1    6    6  503    0 -0.19052849122E+02  0.35834466685E+02  0.16663722343E+02  0.43872539299E+02  0.00000000000E+00 0. -1.
         -3    1    6    6    0  503 -0.11783163418E+03 -0.15157510771E+02  0.14424439988E+03  0.18687025189E+03  0.00000000000E+00 0.  1.
<mgrwt>
<rscale>  0 0.14272827E+04</rscale>
<asrwt>0</asrwt>
<pdfrwt beam="1">  1        2 0.72326320E-01 0.14272827E+04</pdfrwt>
<pdfrwt beam="2">  1       -1 0.16666214E+00 0.14272827E+04</pdfrwt>
<totfact> 0.19134905E+01</totfact>
</mgrwt>
</event>
<event>
12    7  0.1729738E-007  0.2229689E+04  0.7818608E-02  0.8506172E-01
         -1   -1    0    0    0  501 -0.00000000000E+00  0.00000000000E+00  0.48814392157E+03  0.48814392157E+03  0.00000000000E+00 0.  1.
          2   -1    0    0  501    0  0.00000000000E+00 -0.00000000000E+00 -0.25461308753E+04  0.25461308753E+04  0.00000000000E+00 0. -1.
         24    2    1    2    0    0 -0.49567890331E+01  0.91905025368E+03 -0.10773694831E+04  0.14181894153E+04  0.76539374783E+02 0.  0.
        254    2    1    2    0    0  0.49567890331E+01 -0.91905025368E+03 -0.98061747056E+03  0.16160853816E+04  0.89746498447E+03 0.  0.
         23    2    4    4    0    0  0.17212250642E+03 -0.10078374899E+04 -0.95975213160E+03  0.14053256396E+04  0.91942568346E+02 0.  0.
         23    2    4    4    0    0 -0.16716571739E+03  0.88787236227E+02 -0.20865338964E+02  0.21075974197E+03  0.90314761141E+02 0.  0.
          2    1    3    3  502    0  0.13807536031E+02  0.17852568149E+03 -0.17070548006E+03  0.24739124464E+03  0.00000000000E+00 0. -1.
         -1    1    3    3    0  502 -0.18764325064E+02  0.74052457218E+03 -0.90666400307E+03  0.11707981706E+04  0.00000000000E+00 0.  1.
         13    1    5    5    0    0  0.12830474241E+03 -0.86093672731E+03 -0.77699560509E+03  0.11667888951E+04  0.00000000000E+00 0.  1.
        -13    1    5    5    0    0  0.43817764012E+02 -0.14690076260E+03 -0.18275652651E+03  0.23853674450E+03  0.00000000000E+00 0. -1.
          1    1    6    6  503    0 -0.16448503618E+03  0.53705830111E+02 -0.77275891246E+01  0.17320323019E+03  0.00000000000E+00 0. -1.
         -1    1    6    6    0  503 -0.26806812141E+01  0.35081406115E+02 -0.13137749839E+02  0.37556511788E+02  0.00000000000E+00 0.  1.
<mgrwt>
<rscale>  0 0.22296890E+04</rscale>
<asrwt>0</asrwt>
<pdfrwt beam="1">  1        2 0.39171243E+00 0.22296890E+04</pdfrwt>
<pdfrwt beam="2">  1       -1 0.75099067E-01 0.22296890E+04</pdfrwt>
<totfact> 0.60545212E+00</totfact>
</mgrwt>
</event>
<event>
12    7  0.1729738E-007  0.2224622E+04  0.7818608E-02  0.8508249E-01
          2   -1    0    0  501    0  0.00000000000E+00  0.00000000000E+00  0.15446024333E+04  0.15446024333E+04  0.00000000000E+00 0. -1.
         -1   -1    0    0    0  501 -0.00000000000E+00 -0.00000000000E+00 -0.80100561502E+03  0.80100561502E+03  0.00000000000E+00 0.  1.
         24    2    1    2    0    0 -0.70502457622E+03 -0.23387487083E+02 -0.34051425803E+03  0.78752299852E+03  0.81460945527E+02 0.  0.
        254    2    1    2    0    0  0.70502457622E+03  0.23387487083E+02  0.10841110763E+04  0.15580850498E+04  0.86874942819E+03 0.  0.
         23    2    4    4    0    0  0.36389917075E+03 -0.33057155057E+03  0.89111591994E+03  0.10219401820E+04  0.92595876661E+02 0.  0.
         23    2    4    4    0    0  0.34112540547E+03  0.35395903766E+03  0.19299515632E+03  0.53614486772E+03  0.92469704352E+02 0.  0.
          2    1    3    3  502    0 -0.38992022458E+03 -0.12837789017E+02 -0.14316563294E+03  0.41557067848E+03  0.00000000000E+00 0. -1.
         -1    1    3    3    0  502 -0.31510435164E+03 -0.10549698066E+02 -0.19734862509E+03  0.37195232003E+03  0.00000000000E+00 0.  1.
         13    1    5    5    0    0  0.15948884130E+03 -0.15875558101E+03  0.31689285115E+03  0.38866580003E+03  0.00000000000E+00 0.  1.
        -13    1    5    5    0    0  0.20441032946E+03 -0.17181596957E+03  0.57422306879E+03  0.63327438201E+03  0.00000000000E+00 0. -1.
          3    1    6    6  503    0  0.32812773827E+03  0.35729577914E+03  0.19449193253E+03  0.52264251476E+03  0.00000000000E+00 0. -1.
         -3    1    6    6    0  503  0.12997667197E+02 -0.33367414859E+01 -0.14967762145E+01  0.13502352956E+02  0.00000000000E+00 0.  1.
<mgrwt>
<rscale>  0 0.22246215E+04</rscale>
<asrwt>0</asrwt>
<pdfrwt beam="1">  1        2 0.23763114E+00 0.22246215E+04</pdfrwt>
<pdfrwt beam="2">  1       -1 0.12323163E+00 0.22246215E+04</pdfrwt>
<totfact> 0.72173862E+00</totfact>
</mgrwt>
</event>
<event>
12    7  0.1729738E-007  0.1526029E+04  0.7818608E-02  0.8867326E-01
          2   -1    0    0  501    0  0.00000000000E+00  0.00000000000E+00  0.64398383197E+03  0.64398383197E+03  0.00000000000E+00 0. -1.
         -1   -1    0    0    0  501 -0.00000000000E+00 -0.00000000000E+00 -0.90404590951E+03  0.90404590951E+03  0.00000000000E+00 0.  1.
         24    2    1    2    0    0  0.23661917530E+03 -0.33530984429E+03  0.19583828710E+03  0.46271646408E+03  0.85630401369E+02 0.  0.
        254    2    1    2    0    0 -0.23661917530E+03  0.33530984429E+03 -0.45590036464E+03  0.10853132774E+04  0.89534263934E+03 0.  0.
         23    2    4    4    0    0 -0.30510979393E+03  0.22503118837E+02  0.18131494678E+03  0.36678167927E+03  0.89751398952E+02 0.  0.
         23    2    4    4    0    0  0.68490618630E+02  0.31280672546E+03 -0.63721531142E+03  0.71853159813E+03  0.87779793011E+02 0.  0.
          2    1    3    3  502    0  0.10308228079E+03 -0.14236127167E+03  0.13118194246E+03  0.21932029161E+03  0.00000000000E+00 0. -1.
         -1    1    3    3    0  502  0.13353689451E+03 -0.19294857262E+03  0.64656344645E+02  0.24339617247E+03  0.00000000000E+00 0.  1.
         13    1    5    5    0    0 -0.22464765975E+03  0.43158243399E+02  0.16517837278E+03  0.28215793421E+03  0.00000000000E+00 0. -1.
        -13    1    5    5    0    0 -0.80462134179E+02 -0.20655124562E+02  0.16136574001E+02  0.84623745059E+02  0.00000000000E+00 0.  1.
          2    1    6    6  503    0  0.18196636528E+02  0.23894243252E+02 -0.12258343980E+03  0.12620916034E+03  0.00000000000E+00 0. -1.
         -2    1    6    6    0  503  0.50293982103E+02  0.28891248220E+03 -0.51463187163E+03  0.59232243778E+03  0.00000000000E+00 0.  1.
<mgrwt>
<rscale>  0 0.15260288E+04</rscale>
<asrwt>0</asrwt>
<pdfrwt beam="1">  1        2 0.99074436E-01 0.15260288E+04</pdfrwt>
<pdfrwt beam="2">  1       -1 0.13908399E+00 0.15260288E+04</pdfrwt>
<totfact> 0.21369479E+01</totfact>
</mgrwt>
</event>
<event>
12    7  0.1729738E-007  0.1200621E+04  0.7818608E-02  0.9112313E-01
         -1   -1    0    0    0  501 -0.00000000000E+00  0.00000000000E+00  0.31948417089E+03  0.31948417089E+03  0.00000000000E+00 0.  1.
          2   -1    0    0  501    0  0.00000000000E+00 -0.00000000000E+00 -0.11279832096E+04  0.11279832096E+04  0.00000000000E+00 0. -1.
         24    2    1    2    0    0  0.83543634430E+02  0.32871914626E+02 -0.47706596940E+03  0.49186716042E+03  0.79254417607E+02 0.  0.
        254    2    1    2    0    0 -0.83543634430E+02 -0.32871914626E+02 -0.33143306930E+03  0.95560022007E+03  0.89177564418E+03 0.  0.
         23    2    4    4    0    0 -0.26292380745E+03  0.34803481208E+03 -0.26036085457E+03  0.51692174997E+03  0.95724406805E+02 0.  0.
         23    2    4    4    0    0  0.17938017302E+03 -0.38090672670E+03 -0.71072214731E+02  0.43867847010E+03  0.10059999755E+03 0.  0.
          2    1    3    3  502    0  0.57077981738E+02  0.18101354283E+02 -0.43968170907E+03  0.44374041997E+03  0.00000000000E+00 0. -1.
         -1    1    3    3    0  502  0.26465652692E+02  0.14770560343E+02 -0.37384260331E+02  0.48126740445E+02  0.00000000000E+00 0.  1.
         13    1    5    5    0    0 -0.31350046736E+02  0.70098511854E+01 -0.33445515014E+02  0.46374194533E+02  0.00000000000E+00 0.  1.
        -13    1    5    5    0    0 -0.23157376071E+03  0.34102496089E+03 -0.22691533956E+03  0.47054755544E+03  0.00000000000E+00 0. -1.
          2    1    6    6  503    0  0.23288414625E+02 -0.47219324621E+02 -0.45181930035E+02  0.69378827282E+02  0.00000000000E+00 0.  1.
         -2    1    6    6    0  503  0.15609175839E+03 -0.33368740208E+03 -0.25890284695E+02  0.36929964282E+03  0.00000000000E+00 0. -1.
<mgrwt>
<rscale>  0 0.12006211E+04</rscale>
<asrwt>0</asrwt>
<pdfrwt beam="1">  1        2 0.17353588E+00 0.12006211E+04</pdfrwt>
<pdfrwt beam="2">  1       -1 0.49151411E-01 0.12006211E+04</pdfrwt>
<totfact> 0.97660921E+01</totfact>
</mgrwt>
</event>
<event>
12    7  0.1729738E-007  0.1514191E+04  0.7818608E-02  0.8875070E-01
         -1   -1    0    0    0  501 -0.00000000000E+00  0.00000000000E+00  0.19243128595E+03  0.19243128595E+03  0.00000000000E+00 0.  1.
          2   -1    0    0  501    0  0.00000000000E+00 -0.00000000000E+00 -0.29786938438E+04  0.29786938438E+04  0.00000000000E+00 0. -1.
         24    2    1    2    0    0 -0.11745137805E+03 -0.12834870507E+03 -0.18591392812E+04  0.18689354780E+04  0.79074255679E+02 0.  0.
        254    2    1    2    0    0  0.11745137805E+03  0.12834870507E+03 -0.92712327666E+03  0.13021896517E+04  0.89770379446E+03 0.  0.
         23    2    4    4    0    0 -0.35234973479E+02  0.31914856314E+03 -0.98016925436E+03  0.10360418581E+04  0.97742804076E+02 0.  0.
         23    2    4    4    0    0  0.15268635153E+03 -0.19079985808E+03  0.53045977695E+02  0.26614779365E+03  0.91121153031E+02 0.  0.
          4    1    3    3  502    0 -0.94176754982E+02 -0.47869909099E+02 -0.11579407705E+04  0.11627500236E+04  0.00000000000E+00 0. -1.
         -3    1    3    3    0  502 -0.23274623072E+02 -0.80478795967E+02 -0.70119851065E+03  0.70618545441E+03  0.00000000000E+00 0.  1.
         13    1    5    5    0    0 -0.68291914973E+02  0.19769933824E+03 -0.58136521309E+03  0.61784652219E+03  0.00000000000E+00 0. -1.
        -13    1    5    5    0    0  0.33056941494E+02  0.12144922490E+03 -0.39880404127E+03  0.41819533586E+03  0.00000000000E+00 0.  1.
          3    1    6    6  503    0  0.14611580486E+03 -0.13057637854E+03  0.60557646667E+02  0.20510301712E+03  0.00000000000E+00 0. -1.
         -3    1    6    6    0  503  0.65705466723E+01 -0.60223479532E+02 -0.75116689721E+01  0.61044776527E+02  0.00000000000E+00 0.  1.
<mgrwt>
<rscale>  0 0.15141914E+04</rscale>
<asrwt>0</asrwt>
<pdfrwt beam="1">  1        2 0.45826055E+00 0.15141914E+04</pdfrwt>
<pdfrwt beam="2">  1       -1 0.29604816E-01 0.15141914E+04</pdfrwt>
<totfact> 0.20752675E+01</totfact>
</mgrwt>
</event>
<event>
12    7  0.1729738E-007  0.2248180E+04  0.7818608E-02  0.8498638E-01
          2   -1    0    0  501    0  0.00000000000E+00  0.00000000000E+00  0.21761103883E+04  0.21761103883E+04  0.00000000000E+00 0. -1.
         -1   -1    0    0    0  501 -0.00000000000E+00 -0.00000000000E+00 -0.58065885915E+03  0.58065885915E+03  0.00000000000E+00 0.  1.
         24    2    1    2    0    0 -0.13761353306E+03 -0.89462549517E+03  0.99136316106E+03  0.13449364506E+04  0.82224557620E+02 0.  0.
        254    2    1    2    0    0  0.13761353306E+03  0.89462549517E+03  0.60408836813E+03  0.14118327969E+04  0.89947586343E+03 0.  0.
         23    2    4    4    0    0 -0.28043287102E+03  0.60926373670E+03  0.86138013307E+02  0.68228638742E+03  0.90829847051E+02 0.  0.
         23    2    4    4    0    0  0.41804640407E+03  0.28536175847E+03  0.51795035482E+03  0.72954640951E+03  0.88154775359E+02 0.  0.
          2    1    3    3  502    0 -0.14161530355E+03 -0.80953980466E+03  0.92181275406E+03  0.12349689644E+04  0.00000000000E+00 0. -1.
         -1    1    3    3    0  502  0.40017704907E+01 -0.85085690504E+02  0.69550406991E+02  0.10996748614E+03  0.00000000000E+00 0.  1.
         13    1    5    5    0    0 -0.73682309846E+01  0.50108823451E+02  0.26512900586E+02  0.57167463761E+02  0.00000000000E+00 0. -1.
        -13    1    5    5    0    0 -0.27306464003E+03  0.55915491325E+03  0.59625112721E+02  0.62511892365E+03  0.00000000000E+00 0.  1.
          3    1    6    6  503    0  0.17243182590E+03  0.16100534617E+03  0.27548077536E+03  0.36269148552E+03  0.00000000000E+00 0. -1.
         -3    1    6    6    0  503  0.24561457817E+03  0.12435641230E+03  0.24246957946E+03  0.36685492399E+03  0.00000000000E+00 0.  1.
<mgrwt>
<rscale>  0 0.22481795E+04</rscale>
<asrwt>0</asrwt>
<pdfrwt beam="1">  1        2 0.33478621E+00 0.22481795E+04</pdfrwt>
<pdfrwt beam="2">  1       -1 0.89332134E-01 0.22481795E+04</pdfrwt>
<totfact> 0.67756792E+00</totfact>
</mgrwt>
</event>
<event>
12    7  0.1729738E-007  0.2860577E+04  0.7818608E-02  0.8284705E-01
          2   -1    0    0  501    0  0.00000000000E+00  0.00000000000E+00  0.11272148882E+04  0.11272148882E+04  0.00000000000E+00 0. -1.
         -1   -1    0    0    0  501 -0.00000000000E+00 -0.00000000000E+00 -0.18148494297E+04  0.18148494297E+04  0.00000000000E+00 0.  1.
         24    2    1    2    0    0 -0.87976912279E+03  0.75707763733E+03 -0.87815876751E+03  0.14579880174E+04  0.86058000634E+02 0.  0.
        254    2    1    2    0    0  0.87976912279E+03 -0.75707763733E+03  0.19052422595E+03  0.14840763005E+04  0.90499874407E+03 0.  0.
         23    2    4    4    0    0  0.56436735105E+03 -0.33985901001E+03 -0.32832286620E+03  0.74174714484E+03  0.91532883667E+02 0.  0.
         23    2    4    4    0    0  0.31540177174E+03 -0.41721862732E+03  0.51884709215E+03  0.74232915569E+03  0.91107682233E+02 0.  0.
          4    1    3    3  502    0 -0.43286438986E+02  0.52959349976E+02 -0.73702553137E+02  0.10055085723E+03  0.00000000000E+00 0. -1.
         -3    1    3    3    0  502 -0.83648268380E+03  0.70411828736E+03 -0.80445621437E+03  0.13574371601E+04  0.00000000000E+00 0.  1.
         13    1    5    5    0    0  0.93991718593E+02 -0.30376698845E+02 -0.76526047076E+02  0.12495368293E+03  0.00000000000E+00 0. -1.
        -13    1    5    5    0    0  0.47037563246E+03 -0.30948231117E+03 -0.25179681912E+03  0.61679346191E+03  0.00000000000E+00 0.  1.
          4    1    6    6  503    0  0.19853991858E+03 -0.20375771153E+03  0.23981158081E+03  0.37208184391E+03  0.00000000000E+00 0. -1.
         -4    1    6    6    0  503  0.11686185316E+03 -0.21346091579E+03  0.27903551134E+03  0.37024731178E+03  0.00000000000E+00 0.  1.
<mgrwt>
<rscale>  0 0.28605771E+04</rscale>
<asrwt>0</asrwt>
<pdfrwt beam="1">  1        2 0.17341768E+00 0.28605771E+04</pdfrwt>
<pdfrwt beam="2">  1       -1 0.27920760E+00 0.28605771E+04</pdfrwt>
<totfact> 0.93139650E-01</totfact>
</mgrwt>
</event>
<event>
12    7  0.1729738E-007  0.3132236E+04  0.7818608E-02  0.8206946E-01
         -1   -1    0    0    0  501 -0.00000000000E+00  0.00000000000E+00  0.89378531623E+03  0.89378531623E+03  0.00000000000E+00 0.  1.
          2   -1    0    0  501    0  0.00000000000E+00 -0.00000000000E+00 -0.27441994015E+04  0.27441994015E+04  0.00000000000E+00 0. -1.
         24    2    1    2    0    0 -0.13067542460E+04 -0.10014351832E+03 -0.15364454408E+04  0.20210805340E+04  0.80414852894E+02 0.  0.
        254    2    1    2    0    0  0.13067542460E+04  0.10014351832E+03 -0.31396864452E+03  0.16169041838E+04  0.89340217486E+03 0.  0.
         23    2    4    4    0    0  0.24463298850E+01 -0.21794569411E+03 -0.22862995092E+01  0.23566676045E+03  0.89595115426E+02 0.  0.
         23    2    4    4    0    0  0.13043079161E+04  0.31808921242E+03 -0.31168234501E+03  0.13812374233E+04  0.90945303725E+02 0.  0.
          4    1    3    3  502    0 -0.12097557412E+04 -0.99185725432E+02 -0.14514981942E+04  0.18921399972E+04  0.00000000000E+00 0. -1.
         -3    1    3    3    0  502 -0.96998504843E+02 -0.95779288333E+00 -0.84947246598E+02  0.12894053674E+03  0.00000000000E+00 0.  1.
         13    1    5    5    0    0 -0.37070583256E+02 -0.12343065538E+03  0.21086003552E+02  0.13059086635E+03  0.00000000000E+00 0.  1.
        -13    1    5    5    0    0  0.39516913141E+02 -0.94515038731E+02 -0.23372303061E+02  0.10507589410E+03  0.00000000000E+00 0. -1.
          3    1    6    6  503    0  0.12907449476E+04  0.32235390738E+03 -0.30260647595E+03  0.13643699061E+04  0.00000000000E+00 0. -1.
         -3    1    6    6    0  503  0.13562968484E+02 -0.42646949548E+01 -0.90758690545E+01  0.16867517193E+02  0.00000000000E+00 0.  1.
<mgrwt>
<rscale>  0 0.31322357E+04</rscale>
<asrwt>0</asrwt>
<pdfrwt beam="1">  1        2 0.42218451E+00 0.31322357E+04</pdfrwt>
<pdfrwt beam="2">  1       -1 0.13750544E+00 0.31322357E+04</pdfrwt>
<totfact> 0.10555935E+00</totfact>
</mgrwt>
</event>
<event>
12    7  0.1729738E-007  0.2493738E+04  0.7818608E-02  0.8405220E-01
         -1   -1    0    0    0  501 -0.00000000000E+00  0.00000000000E+00  0.54460726877E+03  0.54460726877E+03  0.00000000000E+00 0.  1.
          2   -1    0    0  501    0  0.00000000000E+00 -0.00000000000E+00 -0.28546862379E+04  0.28546862379E+04  0.00000000000E+00 0. -1.
         24    2    1    2    0    0  0.91077412030E+03  0.56816089139E+03 -0.99760288423E+03  0.14675123860E+04  0.77876772195E+02 0.  0.
        254    2    1    2    0    0 -0.91077412030E+03 -0.56816089139E+03 -0.13124760849E+04  0.19317811206E+04  0.92567193327E+03 0.  0.
         23    2    4    4    0    0 -0.51890637392E+03 -0.45460659847E+03 -0.17084745362E+03  0.71598605727E+03  0.86696006465E+02 0.  0.
         23    2    4    4    0    0 -0.39186774639E+03 -0.11355429293E+03 -0.11416286312E+04  0.12157950634E+04  0.91579453842E+02 0.  0.
          4    1    3    3  502    0  0.25745934506E+03  0.17141416316E+03 -0.24196666883E+03  0.39270344857E+03  0.00000000000E+00 0. -1.
         -3    1    3    3    0  502  0.65331477525E+03  0.39674672823E+03 -0.75563621540E+03  0.10748089374E+04  0.00000000000E+00 0.  1.
         13    1    5    5    0    0 -0.62054986688E+02 -0.90590883939E+02 -0.10922427401E+02  0.11034867034E+03  0.00000000000E+00 0.  1.
        -13    1    5    5    0    0 -0.45685138723E+03 -0.36401571453E+03 -0.15992502622E+03  0.60563738693E+03  0.00000000000E+00 0. -1.
          2    1    6    6  503    0 -0.30490129215E+03 -0.12632679697E+03 -0.91675771024E+03  0.97435514926E+03  0.00000000000E+00 0. -1.
         -2    1    6    6    0  503 -0.86966454237E+02  0.12772504043E+02 -0.22487092100E+03  0.24143991412E+03  0.00000000000E+00 0.  1.
<mgrwt>
<rscale>  0 0.24937385E+04</rscale>
<asrwt>0</asrwt>
<pdfrwt beam="1">  1        2 0.43918251E+00 0.24937385E+04</pdfrwt>
<pdfrwt beam="2">  1       -1 0.83785731E-01 0.24937385E+04</pdfrwt>
<totfact> 0.30702074E+00</totfact>
</mgrwt>
</event>
<event>
12    7  0.1729738E-007  0.1034852E+04  0.7818608E-02  0.9271125E-01
         -1   -1    0    0    0  501 -0.00000000000E+00  0.00000000000E+00  0.62675328071E+03  0.62675328071E+03  0.00000000000E+00 0.  1.
          2   -1    0    0  501    0  0.00000000000E+00 -0.00000000000E+00 -0.42716878667E+03  0.42716878667E+03  0.00000000000E+00 0. -1.
         24    2    1    2    0    0 -0.49293982784E+02 -0.41835396112E+02 -0.54210033867E+02  0.11423222170E+03  0.77007633357E+02 0.  0.
        254    2    1    2    0    0  0.49293982784E+02  0.41835396112E+02  0.25379452791E+03  0.93968984568E+03  0.90245512164E+03 0.  0.
         23    2    4    4    0    0  0.66523449384E+02  0.18853861271E+03  0.55247533413E+03  0.59452031698E+03  0.90847315159E+02 0.  0.
         23    2    4    4    0    0 -0.17229466600E+02 -0.14670321660E+03 -0.29868080622E+03  0.34516952871E+03  0.90072699854E+02 0.  0.
          4    1    3    3  502    0 -0.37704333108E+02 -0.59234728388E+02 -0.60194674448E+02  0.92486586131E+02  0.00000000000E+00 0. -1.
         -3    1    3    3    0  502 -0.11589649676E+02  0.17399332275E+02  0.59846405812E+01  0.21745635565E+02  0.00000000000E+00 0.  1.
         13    1    5    5    0    0  0.86703702911E+02  0.17106161366E+03  0.46300025822E+03  0.50114753006E+03  0.00000000000E+00 0. -1.
        -13    1    5    5    0    0 -0.20180253527E+02  0.17476999051E+02  0.89475075911E+02  0.93372786922E+02  0.00000000000E+00 0.  1.
          4    1    6    6  503    0  0.11766681954E+02 -0.64385138521E+02 -0.52278244211E+02  0.83767032204E+02  0.00000000000E+00 0.  1.
         -4    1    6    6    0  503 -0.28996148554E+02 -0.82318078081E+02 -0.24640256201E+03  0.26140249650E+03  0.00000000000E+00 0. -1.
<mgrwt>
<rscale>  0 0.10348516E+04</rscale>
<asrwt>0</asrwt>
<pdfrwt beam="1">  1        2 0.65718275E-01 0.10348516E+04</pdfrwt>
<pdfrwt beam="2">  1       -1 0.96423582E-01 0.10348516E+04</pdfrwt>
<totfact> 0.87205150E+01</totfact>
</mgrwt>
</event>
<event>
12    7  0.2616578E-007  0.2710460E+04  0.7818608E-02  0.8331619E-01
         -1   -1    0    0    0  501 -0.00000000000E+00  0.00000000000E+00  0.66947139947E+03  0.66947139947E+03  0.00000000000E+00 0.  1.
          2   -1    0    0  501    0  0.00000000000E+00 -0.00000000000E+00 -0.27434312708E+04  0.27434312708E+04  0.00000000000E+00 0. -1.
         24    2    1    2    0    0 -0.57832839157E+02  0.19971183181E+03 -0.24147090477E+04  0.24249459193E+04  0.79457365953E+02 0.  0.
        254    2    1    2    0    0  0.57832839157E+02 -0.19971183181E+03  0.34074917638E+03  0.98795675104E+03  0.90372511732E+03 0.  0.
         23    2    4    4    0    0  0.41812226403E+03  0.86013958491E+02  0.27429868820E+03  0.51520855624E+03  0.89305416049E+02 0.  0.
         23    2    4    4    0    0 -0.36028942488E+03 -0.28572579030E+03  0.66450488179E+02  0.47274819481E+03  0.87335510495E+02 0.  0.
          4    1    3    3  502    0 -0.75650325839E+02  0.16001491987E+03 -0.20568032484E+04  0.20644048414E+04  0.00000000000E+00 0. -1.
         -3    1    3    3    0  502  0.17817486682E+02  0.39696911937E+02 -0.35790579933E+03  0.36054107788E+03  0.00000000000E+00 0.  1.
         13    1    5    5    0    0  0.38525173926E+03  0.85542759832E+02  0.22021966936E+03  0.45192164048E+03  0.00000000000E+00 0. -1.
        -13    1    5    5    0    0  0.32870524773E+02  0.47119865843E+00  0.54079018840E+02  0.63286915755E+02  0.00000000000E+00 0.  1.
          2    1    6    6  503    0 -0.34194744171E+03 -0.28319558666E+03  0.47947808318E+02  0.44657226237E+03  0.00000000000E+00 0. -1.
         -2    1    6    6    0  503 -0.18341983166E+02 -0.25302036414E+01  0.18502679861E+02  0.26175932437E+02  0.00000000000E+00 0.  1.
<mgrwt>
<rscale>  0 0.27104603E+04</rscale>
<asrwt>0</asrwt>
<pdfrwt beam="1">  1        2 0.42206634E+00 0.27104603E+04</pdfrwt>
<pdfrwt beam="2">  1       -1 0.10299560E+00 0.27104603E+04</pdfrwt>
<totfact> 0.22186145E+00</totfact>
</mgrwt>
</event>
<event>
12    7  0.2195027E-007  0.1945309E+04  0.7818608E-02  0.8632626E-01
          2   -1    0    0  501    0  0.00000000000E+00  0.00000000000E+00  0.16055712023E+04  0.16055712023E+04  0.00000000000E+00 0. -1.
         -1   -1    0    0    0  501 -0.00000000000E+00 -0.00000000000E+00 -0.58923363842E+03  0.58923363842E+03  0.00000000000E+00 0.  1.
         24    2    1    2    0    0 -0.45527786034E+03  0.23028025134E+03 -0.23840980975E+03  0.56888213468E+03  0.80502928569E+02 0.  0.
        254    2    1    2    0    0  0.45527786034E+03 -0.23028025134E+03  0.12547473737E+04  0.16259227061E+04  0.89940355245E+03 0.  0.
         23    2    4    4    0    0  0.48260668445E+03  0.24508925568E+03  0.68819769177E+03  0.88010880780E+03  0.89428717367E+02 0.  0.
         23    2    4    4    0    0 -0.27328824111E+02 -0.47536950701E+03  0.56654968190E+03  0.74581389828E+03  0.92394783313E+02 0.  0.
          2    1    3    3  502    0 -0.30806620153E+02  0.30580899719E+02 -0.41747479691E+02  0.60225337968E+02  0.00000000000E+00 0. -1.
         -1    1    3    3    0  502 -0.42447124019E+03  0.19969935162E+03 -0.19666233006E+03  0.50865679672E+03  0.00000000000E+00 0.  1.
         13    1    5    5    0    0  0.39373161451E+03  0.23245122297E+03  0.59894666492E+03  0.75352190595E+03  0.00000000000E+00 0. -1.
        -13    1    5    5    0    0  0.88875069936E+02  0.12638032710E+02  0.89251026845E+02  0.12658690185E+03  0.00000000000E+00 0.  1.
          1    1    6    6  503    0 -0.19316645539E+02 -0.47409306304E+03  0.54402688916E+03  0.72187438059E+03  0.00000000000E+00 0. -1.
         -1    1    6    6    0  503 -0.80121785715E+01 -0.12764439718E+01  0.22522792734E+02  0.23939517690E+02  0.00000000000E+00 0.  1.
<mgrwt>
<rscale>  0 0.19453088E+04</rscale>
<asrwt>0</asrwt>
<pdfrwt beam="1">  1        2 0.24701095E+00 0.19453088E+04</pdfrwt>
<pdfrwt beam="2">  1       -1 0.90651329E-01 0.19453088E+04</pdfrwt>
<totfact> 0.13992258E+01</totfact>
</mgrwt>
</event>
<event>
12    7  0.1729738E-007  0.1281125E+04  0.7818608E-02  0.9044669E-01
          2   -1    0    0  501    0  0.00000000000E+00  0.00000000000E+00  0.52821612808E+03  0.52821612808E+03  0.00000000000E+00 0. -1.
         -1   -1    0    0    0  501 -0.00000000000E+00 -0.00000000000E+00 -0.77680373940E+03  0.77680373940E+03  0.00000000000E+00 0.  1.
         24    2    1    2    0    0  0.15543333464E+03  0.13918943337E+03 -0.30246974500E+03  0.37595760408E+03  0.79517001584E+02 0.  0.
        254    2    1    2    0    0 -0.15543333464E+03 -0.13918943337E+03  0.53882133683E+02  0.92906226341E+03  0.90372572447E+03 0.  0.
         23    2    4    4    0    0 -0.35066490732E+03 -0.41033790616E+03  0.15353149166E+03  0.56844902045E+03  0.90660330107E+02 0.  0.
         23    2    4    4    0    0  0.19523157268E+03  0.27114847279E+03 -0.99649357981E+02  0.36061324296E+03  0.92060062946E+02 0.  0.
          2    1    3    3  502    0  0.10893812691E+03  0.63326877907E+02 -0.12530872359E+03  0.17770786468E+03  0.00000000000E+00 0. -1.
         -1    1    3    3    0  502  0.46495207728E+02  0.75862555467E+02 -0.17716102141E+03  0.19824973940E+03  0.00000000000E+00 0.  1.
         13    1    5    5    0    0 -0.24540014741E+03 -0.34303113649E+03  0.10710405787E+03  0.43515844489E+03  0.00000000000E+00 0.  1.
        -13    1    5    5    0    0 -0.10526475991E+03 -0.67306769672E+02  0.46427433796E+02  0.13329057555E+03  0.00000000000E+00 0. -1.
          1    1    6    6  503    0  0.22171096197E+02 -0.28684416913E+01 -0.40847055140E+01  0.22725982563E+02  0.00000000000E+00 0. -1.
         -1    1    6    6    0  503  0.17306047648E+03  0.27401691448E+03 -0.95564652467E+02  0.33788726040E+03  0.00000000000E+00 0.  1.
<mgrwt>
<rscale>  0 0.12811249E+04</rscale>
<asrwt>0</asrwt>
<pdfrwt beam="1">  1        2 0.81264021E-01 0.12811249E+04</pdfrwt>
<pdfrwt beam="2">  1       -1 0.11950827E+00 0.12811249E+04</pdfrwt>
<totfact> 0.40536384E+01</totfact>
</mgrwt>
</event>
<event>
12    7  0.1729738E-007  0.1609832E+04  0.7818608E-02  0.8814530E-01
          2   -1    0    0  501    0  0.00000000000E+00  0.00000000000E+00  0.27850187574E+04  0.27850187574E+04  0.00000000000E+00 0. -1.
         -1   -1    0    0    0  501 -0.00000000000E+00 -0.00000000000E+00 -0.23263403138E+03  0.23263403138E+03  0.00000000000E+00 0.  1.
         24    2    1    2    0    0 -0.62547084695E+02 -0.47103539285E+03  0.14204662637E+04  0.15000858131E+04  0.82137453228E+02 0.  0.
        254    2    1    2    0    0  0.62547084695E+02  0.47103539285E+03  0.11319184623E+04  0.15175669757E+04  0.89217915308E+03 0.  0.
         23    2    4    4    0    0  0.45823484114E+03  0.35433298698E+03  0.61580748926E+03  0.85036878383E+03  0.91526877894E+02 0.  0.
         23    2    4    4    0    0 -0.39568775645E+03  0.11670240588E+03  0.51611097305E+03  0.66719819184E+03  0.92707273455E+02 0.  0.
          2    1    3    3  502    0 -0.41038283534E+02 -0.44635200180E+03  0.12933105227E+04  0.13687828018E+04  0.00000000000E+00 0. -1.
         -1    1    3    3    0  502 -0.21508801162E+02 -0.24683391057E+02  0.12715574098E+03  0.13130301133E+03  0.00000000000E+00 0.  1.
         13    1    5    5    0    0  0.18923555834E+03  0.17592571977E+03  0.21784718661E+03  0.33796057778E+03  0.00000000000E+00 0.  1.
        -13    1    5    5    0    0  0.26899928280E+03  0.17840726721E+03  0.39796030265E+03  0.51240820605E+03  0.00000000000E+00 0. -1.
          4    1    6    6  503    0 -0.39565415545E+02  0.27781536918E+02  0.10786624262E+03  0.11820474693E+03  0.00000000000E+00 0. -1.
         -4    1    6    6    0  503 -0.35612234090E+03  0.88920868960E+02  0.40824473044E+03  0.54899344491E+03  0.00000000000E+00 0.  1.
<mgrwt>
<rscale>  0 0.16098325E+04</rscale>
<asrwt>0</asrwt>
<pdfrwt beam="1">  1        2 0.42846440E+00 0.16098325E+04</pdfrwt>
<pdfrwt beam="2">  1       -1 0.35789853E-01 0.16098325E+04</pdfrwt>
<totfact> 0.19282462E+01</totfact>
</mgrwt>
</event>
<event>
12    7  0.1729738E-007  0.1579202E+04  0.7818608E-02  0.8833428E-01
         -1   -1    0    0    0  501 -0.00000000000E+00  0.00000000000E+00  0.30662943322E+03  0.30662943322E+03  0.00000000000E+00 0.  1.
          2   -1    0    0  501    0  0.00000000000E+00 -0.00000000000E+00 -0.20333014088E+04  0.20333014088E+04  0.00000000000E+00 0. -1.
         24    2    1    2    0    0 -0.31560085114E+03  0.61207703743E+02 -0.12009351115E+04  0.12457634775E+04  0.79568961002E+02 0.  0.
        254    2    1    2    0    0  0.31560085114E+03 -0.61207703743E+02 -0.52573686406E+03  0.10941673645E+04  0.90413090373E+03 0.  0.
         23    2    4    4    0    0  0.53038111744E+03 -0.28147213939E+03 -0.47014810836E+03  0.76863613796E+03  0.96081079281E+02 0.  0.
         23    2    4    4    0    0 -0.21478026629E+03  0.22026443564E+03 -0.55588755696E+02  0.32553122655E+03  0.90738554646E+02 0.  0.
          2    1    3    3  502    0 -0.12948187682E+03  0.49750240215E+02 -0.63223632549E+03  0.64727383239E+03  0.00000000000E+00 0. -1.
         -1    1    3    3    0  502 -0.18611897433E+03  0.11457463528E+02 -0.56869878599E+03  0.59848964507E+03  0.00000000000E+00 0.  1.
         13    1    5    5    0    0  0.51827135078E+03 -0.28033286774E+03 -0.43778341686E+03  0.73406132567E+03  0.00000000000E+00 0. -1.
        -13    1    5    5    0    0  0.12109766662E+02 -0.11392716429E+01 -0.32364691506E+02  0.34574812288E+02  0.00000000000E+00 0.  1.
          4    1    6    6  503    0 -0.21080712747E+03  0.21861537319E+03 -0.36406027314E+02  0.30587207328E+03  0.00000000000E+00 0. -1.
         -4    1    6    6    0  503 -0.39731388275E+01  0.16490624519E+01 -0.19182728382E+02  0.19659153270E+02  0.00000000000E+00 0.  1.
<mgrwt>
<rscale>  0 0.15792024E+04</rscale>
<asrwt>0</asrwt>
<pdfrwt beam="1">  1        2 0.31281560E+00 0.15792024E+04</pdfrwt>
<pdfrwt beam="2">  1       -1 0.47173759E-01 0.15792024E+04</pdfrwt>
<totfact> 0.31401166E+01</totfact>
</mgrwt>
</event>
<event>
12    7  0.1729738E-007  0.1475178E+04  0.7818608E-02  0.8901129E-01
         -1   -1    0    0    0  501 -0.00000000000E+00  0.00000000000E+00  0.31353633152E+03  0.31353633152E+03  0.00000000000E+00 0.  1.
          2   -1    0    0  501    0  0.00000000000E+00 -0.00000000000E+00 -0.17351657713E+04  0.17351657713E+04  0.00000000000E+00 0. -1.
         24    2    1    2    0    0  0.33128288551E+02 -0.15245457543E+03 -0.10440121492E+04  0.10589784293E+04  0.84463394621E+02 0.  0.
        254    2    1    2    0    0 -0.33128288551E+02  0.15245457543E+03 -0.37761729061E+03  0.98972367351E+03  0.90145341015E+03 0.  0.
         23    2    4    4    0    0 -0.21398320981E+03  0.47726619282E+03 -0.20871944554E+03  0.57052021389E+03  0.91420318415E+02 0.  0.
         23    2    4    4    0    0  0.18085492126E+03 -0.32481161739E+03 -0.16889784506E+03  0.41920345962E+03  0.94836539141E+02 0.  0.
          2    1    3    3  502    0  0.59496904614E+02 -0.10965875484E+03 -0.81673689732E+03  0.82621067750E+03  0.00000000000E+00 0. -1.
         -1    1    3    3    0  502 -0.26368616063E+02 -0.42795820594E+02 -0.22727525184E+03  0.23276775179E+03  0.00000000000E+00 0.  1.
         13    1    5    5    0    0 -0.22215716721E+03  0.44627511285E+03 -0.19063990789E+03  0.53372170442E+03  0.00000000000E+00 0.  1.
        -13    1    5    5    0    0  0.81739573974E+01  0.30991079970E+02 -0.18079537654E+02  0.36798509468E+02  0.00000000000E+00 0. -1.
          2    1    6    6  503    0 -0.94919105801E+01 -0.12456963038E+02  0.13933943901E+01  0.15723035411E+02  0.00000000000E+00 0. -1.
         -2    1    6    6    0  503  0.19034683184E+03 -0.31235465435E+03 -0.17029123945E+03  0.40348042421E+03  0.00000000000E+00 0.  1.
<mgrwt>
<rscale>  0 0.14751780E+04</rscale>
<asrwt>0</asrwt>
<pdfrwt beam="1">  1        2 0.26694858E+00 0.14751780E+04</pdfrwt>
<pdfrwt beam="2">  1       -1 0.48236359E-01 0.14751780E+04</pdfrwt>
<totfact> 0.44426177E+01</totfact>
</mgrwt>
</event>
<event>
12    7  0.2308174E-007  0.2187053E+04  0.7818608E-02  0.8523836E-01
          2   -1    0    0  501    0  0.00000000000E+00  0.00000000000E+00  0.21324532858E+04  0.21324532858E+04  0.00000000000E+00 0. -1.
         -1   -1    0    0    0  501 -0.00000000000E+00 -0.00000000000E+00 -0.56076246099E+03  0.56076246099E+03  0.00000000000E+00 0.  1.
         24    2    1    2    0    0 -0.40451824932E+03 -0.83633060251E+01  0.16618795638E+04  0.17123753878E+04  0.81736313811E+02 0.  0.
        254    2    1    2    0    0  0.40451824932E+03  0.83633060251E+01 -0.90188738986E+02  0.98084035906E+03  0.88893691700E+03 0.  0.
         23    2    4    4    0    0  0.59976303003E+03  0.48058447491E+02  0.17849369078E+03  0.63404593670E+03  0.90160665650E+02 0.  0.
         23    2    4    4    0    0 -0.19524478071E+03 -0.39695141466E+02 -0.26868242977E+03  0.34679442236E+03  0.91541764576E+02 0.  0.
          2    1    3    3  502    0 -0.39118647667E+03  0.57739853511E+01  0.15379231416E+04  0.15869050973E+04  0.00000000000E+00 0. -1.
         -1    1    3    3    0  502 -0.13331772646E+02 -0.14137291376E+02  0.12395642223E+03  0.12547029044E+03  0.00000000000E+00 0.  1.
         13    1    5    5    0    0  0.57182490582E+03  0.35031124000E+02  0.15033188334E+03  0.59229264533E+03  0.00000000000E+00 0. -1.
        -13    1    5    5    0    0  0.27938124208E+02  0.13027323491E+02  0.28161807441E+02  0.41753291367E+02  0.00000000000E+00 0.  1.
          2    1    6    6  503    0 -0.12714764294E+03  0.19016789654E+02 -0.17239362354E+03  0.21505283730E+03  0.00000000000E+00 0. -1.
         -2    1    6    6    0  503 -0.68097137767E+02 -0.58711931120E+02 -0.96288806228E+02  0.13174158505E+03  0.00000000000E+00 0.  1.
<mgrwt>
<rscale>  0 0.21870526E+04</rscale>
<asrwt>0</asrwt>
<pdfrwt beam="1">  1        2 0.32806973E+00 0.21870526E+04</pdfrwt>
<pdfrwt beam="2">  1       -1 0.86271149E-01 0.21870526E+04</pdfrwt>
<totfact> 0.77784547E+00</totfact>
</mgrwt>
</event>
<event>
12    7  0.1729738E-007  0.1875401E+04  0.7818608E-02  0.8667199E-01
         -1   -1    0    0    0  501 -0.00000000000E+00  0.00000000000E+00  0.25876537842E+03  0.25876537842E+03  0.00000000000E+00 0.  1.
          2   -1    0    0  501    0  0.00000000000E+00 -0.00000000000E+00 -0.33979889258E+04  0.33979889258E+04  0.00000000000E+00 0. -1.
         24    2    1    2    0    0 -0.51585389623E+03 -0.20852441431E+03 -0.32276102344E+03  0.64809186229E+03  0.79124649055E+02 0.  0.
        254    2    1    2    0    0  0.51585389623E+03  0.20852441431E+03 -0.28164625240E+04  0.30086624420E+04  0.90000048174E+03 0.  0.
         23    2    4    4    0    0  0.39372442316E+03 -0.30059890964E+03 -0.10653128225E+04  0.11785546736E+04  0.93386738737E+02 0.  0.
         23    2    4    4    0    0  0.12212947307E+03  0.50912332396E+03 -0.17511497015E+04  0.18301077684E+04  0.92989245274E+02 0.  0.
          4    1    3    3  502    0 -0.39772218600E+03 -0.16784795864E+03 -0.28608670755E+03  0.51788172269E+03  0.00000000000E+00 0. -1.
         -3    1    3    3    0  502 -0.11813171023E+03 -0.40676455670E+02 -0.36674315889E+02  0.13021013960E+03  0.00000000000E+00 0.  1.
         13    1    5    5    0    0  0.31960277054E+03 -0.28460238660E+03 -0.91909165902E+03  0.10138411745E+04  0.00000000000E+00 0.  1.
        -13    1    5    5    0    0  0.74121652621E+02 -0.15996523039E+02 -0.14622116349E+03  0.16471349911E+03  0.00000000000E+00 0. -1.
          1    1    6    6  503    0  0.10208255710E+03  0.27175840355E+03 -0.10613696886E+04  0.11003540767E+04  0.00000000000E+00 0. -1.
         -1    1    6    6    0  503  0.20046915978E+02  0.23736492040E+03 -0.68978001291E+03  0.72975369165E+03  0.00000000000E+00 0.  1.
<mgrwt>
<rscale>  0 0.18754006E+04</rscale>
<asrwt>0</asrwt>
<pdfrwt beam="1">  1        2 0.52276751E+00 0.18754006E+04</pdfrwt>
<pdfrwt beam="2">  1       -1 0.39810060E-01 0.18754006E+04</pdfrwt>
<totfact> 0.63167113E+00</totfact>
</mgrwt>
</event>
<event>
12    7  0.1729738E-007  0.1824360E+04  0.7818608E-02  0.8693451E-01
         -1   -1    0    0    0  501 -0.00000000000E+00  0.00000000000E+00  0.48809678870E+03  0.48809678870E+03  0.00000000000E+00 0.  1.
          2   -1    0    0  501    0  0.00000000000E+00 -0.00000000000E+00 -0.17047276949E+04  0.17047276949E+04  0.00000000000E+00 0. -1.
         24    2    1    2    0    0  0.31379262613E+03  0.24044618041E+02  0.27584978182E+03  0.42592297252E+03  0.79204296103E+02 0.  0.
        254    2    1    2    0    0 -0.31379262613E+03 -0.24044618041E+02 -0.14924806880E+04  0.17669015110E+04  0.89185110294E+03 0.  0.
         23    2    4    4    0    0  0.44978722394E+02  0.38214405799E+03 -0.67459183805E+03  0.78189832079E+03  0.90739569955E+02 0.  0.
         23    2    4    4    0    0 -0.35877134853E+03 -0.40618867603E+03 -0.81788884993E+03  0.98500319024E+03  0.87080381777E+02 0.  0.
          4    1    3    3  502    0  0.52628375473E+02  0.34639385328E+02  0.58640015575E+02  0.86071390993E+02  0.00000000000E+00 0. -1.
         -3    1    3    3    0  502  0.26116425066E+03 -0.10594767287E+02  0.21720976624E+03  0.33985158153E+03  0.00000000000E+00 0.  1.
         13    1    5    5    0    0  0.44811646104E+02  0.15979966939E+03 -0.21740937960E+03  0.27351573319E+03  0.00000000000E+00 0. -1.
        -13    1    5    5    0    0  0.16707629083E+00  0.22234438860E+03 -0.45718245845E+03  0.50838258759E+03  0.00000000000E+00 0.  1.
          3    1    6    6  503    0 -0.28323737985E+02 -0.11384899623E+02 -0.76661995041E+02  0.82516129069E+02  0.00000000000E+00 0. -1.
         -3    1    6    6    0  503 -0.33044761054E+03 -0.39480377641E+03 -0.74122685489E+03  0.90248706118E+03  0.00000000000E+00 0.  1.
<mgrwt>
<rscale>  0 0.18243597E+04</rscale>
<asrwt>0</asrwt>
<pdfrwt beam="1">  1        2 0.26226581E+00 0.18243597E+04</pdfrwt>
<pdfrwt beam="2">  1       -1 0.75091812E-01 0.18243597E+04</pdfrwt>
<totfact> 0.18656122E+01</totfact>
</mgrwt>
</event>
<event>
12    7  0.1729738E-007  0.1484247E+04  0.7818608E-02  0.8894997E-01
         -1   -1    0    0    0  501 -0.00000000000E+00  0.00000000000E+00  0.28665288101E+03  0.28665288101E+03  0.00000000000E+00 0.  1.
          2   -1    0    0  501    0  0.00000000000E+00 -0.00000000000E+00 -0.19213040507E+04  0.19213040507E+04  0.00000000000E+00 0. -1.
         24    2    1    2    0    0  0.44009501360E+03  0.73365192748E+02 -0.67566159300E+03  0.81348057388E+03  0.78523775497E+02 0.  0.
        254    2    1    2    0    0 -0.44009501360E+03 -0.73365192748E+02 -0.95898957673E+03  0.13944763579E+04  0.90875587034E+03 0.  0.
         23    2    4    4    0    0 -0.64166592010E+03  0.12597743827E+03 -0.85176712244E+03  0.10777224790E+04  0.91504332065E+02 0.  0.
         23    2    4    4    0    0  0.20157090650E+03 -0.19934263102E+03 -0.10722245429E+03  0.31675387892E+03  0.92022009402E+02 0.  0.
          4    1    3    3  502    0  0.36758122804E+03  0.40358403186E+02 -0.59157831055E+03  0.69764579654E+03  0.00000000000E+00 0. -1.
         -3    1    3    3    0  502  0.72513785562E+02  0.33006789562E+02 -0.84083282447E+02  0.11583477734E+03  0.00000000000E+00 0.  1.
         13    1    5    5    0    0 -0.58765133007E+03  0.13275819827E+03 -0.80795110794E+03  0.10078411669E+04  0.00000000000E+00 0. -1.
        -13    1    5    5    0    0 -0.54014590036E+02 -0.67807599997E+01 -0.43816014506E+02  0.69881312023E+02  0.00000000000E+00 0.  1.
          1    1    6    6  503    0  0.16178317470E+03 -0.17146646601E+03 -0.48745321848E+02  0.24072941446E+03  0.00000000000E+00 0. -1.
         -1    1    6    6    0  503  0.39787731799E+02 -0.27876165006E+02 -0.58477132442E+02  0.76024464456E+02  0.00000000000E+00 0.  1.
<mgrwt>
<rscale>  0 0.14842471E+04</rscale>
<asrwt>0</asrwt>
<pdfrwt beam="1">  1        2 0.29558523E+00 0.14842471E+04</pdfrwt>
<pdfrwt beam="2">  1       -1 0.44100444E-01 0.14842471E+04</pdfrwt>
<totfact> 0.41418456E+01</totfact>
</mgrwt>
</event>
<event>
12    7  0.1729738E-007  0.1600609E+04  0.7818608E-02  0.8820174E-01
          2   -1    0    0  501    0  0.00000000000E+00  0.00000000000E+00  0.21551176804E+04  0.21551176804E+04  0.00000000000E+00 0. -1.
         -1   -1    0    0    0  501 -0.00000000000E+00 -0.00000000000E+00 -0.29719363577E+03  0.29719363577E+03  0.00000000000E+00 0.  1.
         24    2    1    2    0    0  0.15654607466E+03  0.19187394496E+03  0.14139017477E+04  0.14374976368E+04  0.77194685698E+02 0.  0.
        254    2    1    2    0    0 -0.15654607466E+03 -0.19187394496E+03  0.44402229695E+03  0.10148136793E+04  0.87827599271E+03 0.  0.
         23    2    4    4    0    0  0.32317544845E+03  0.79069028122E+02  0.23965745356E+03  0.42019740615E+03  0.91847065271E+02 0.  0.
         23    2    4    4    0    0 -0.47972152311E+03 -0.27094297308E+03  0.20436484338E+03  0.59461627320E+03  0.90888331146E+02 0.  0.
          4    1    3    3  502    0  0.15338106021E+03  0.15085230382E+03  0.10931697165E+04  0.11141374225E+04  0.00000000000E+00 0. -1.
         -3    1    3    3    0  502  0.31650144487E+01  0.41021641138E+02  0.32073203117E+03  0.32336021427E+03  0.00000000000E+00 0.  1.
         13    1    5    5    0    0  0.61720416550E+01  0.24324115459E+01  0.33983478081E+02  0.34624954969E+02  0.00000000000E+00 0. -1.
        -13    1    5    5    0    0  0.31700340680E+03  0.76636616576E+02  0.20567397548E+03  0.38557245119E+03  0.00000000000E+00 0.  1.
          1    1    6    6  503    0 -0.49530489708E+02 -0.17338875235E+02  0.48555239302E+02  0.71494875822E+02  0.00000000000E+00 0. -1.
         -1    1    6    6    0  503 -0.43019103340E+03 -0.25360409785E+03  0.15580960408E+03  0.52312139737E+03  0.00000000000E+00 0.  1.
<mgrwt>
<rscale>  0 0.16006090E+04</rscale>
<asrwt>0</asrwt>
<pdfrwt beam="1">  1        2 0.33155656E+00 0.16006090E+04</pdfrwt>
<pdfrwt beam="2">  1       -1 0.45722099E-01 0.16006090E+04</pdfrwt>
<totfact> 0.28428523E+01</totfact>
</mgrwt>
</event>
<event>
12    7  0.1729738E-007  0.2535244E+04  0.7818608E-02  0.8390536E-01
          4   -1    0    0  501    0  0.00000000000E+00  0.00000000000E+00  0.24745934736E+04  0.24745934736E+04  0.00000000000E+00 0. -1.
         -3   -1    0    0    0  501 -0.00000000000E+00 -0.00000000000E+00 -0.64934524756E+03  0.64934524756E+03  0.00000000000E+00 0.  1.
         24    2    1    2    0    0  0.61086237257E+03 -0.76684720325E+03  0.16269650923E+03  0.99704585506E+03  0.80142445742E+02 0.  0.
        254    2    1    2    0    0 -0.61086237257E+03  0.76684720325E+03  0.16625517168E+04  0.21268928661E+04  0.89352536697E+03 0.  0.
         23    2    4    4    0    0  0.62557985806E+01  0.22910833935E+02  0.86470530790E+03  0.86994081549E+03  0.92291449291E+02 0.  0.
         23    2    4    4    0    0 -0.61711817115E+03  0.74393636932E+03  0.79784640886E+03  0.12569520506E+04  0.95359354728E+02 0.  0.
          4    1    3    3  502    0  0.10991773561E+03 -0.12594724204E+03 -0.15869740353E+01  0.16717396588E+03  0.00000000000E+00 0. -1.
         -3    1    3    3    0  502  0.50094463696E+03 -0.64089996121E+03  0.16428348327E+03  0.82987188918E+03  0.00000000000E+00 0.  1.
         13    1    5    5    0    0  0.32344508316E+02 -0.23385323837E+02  0.46668960537E+03  0.46839324115E+03  0.00000000000E+00 0. -1.
        -13    1    5    5    0    0 -0.26088709735E+02  0.46296157772E+02  0.39801570253E+03  0.40154757434E+03  0.00000000000E+00 0.  1.
          2    1    6    6  503    0 -0.40260051859E+03  0.51389253106E+03  0.59010290875E+03  0.87999667838E+03  0.00000000000E+00 0. -1.
         -2    1    6    6    0  503 -0.21451765257E+03  0.23004383825E+03  0.20774350011E+03  0.37695537218E+03  0.00000000000E+00 0.  1.
<mgrwt>
<rscale>  0 0.25352440E+04</rscale>
<asrwt>0</asrwt>
<pdfrwt beam="1">  1        4 0.38070668E+00 0.25352440E+04</pdfrwt>
<pdfrwt beam="2">  1       -3 0.99899270E-01 0.25352440E+04</pdfrwt>
<totfact> 0.16381941E-02</totfact>
</mgrwt>
</event>
<event>
12    7  0.1729738E-007  0.2414751E+04  0.7818608E-02  0.8434002E-01
          2   -1    0    0  501    0  0.00000000000E+00  0.00000000000E+00  0.31657162961E+04  0.31657162961E+04  0.00000000000E+00 0. -1.
         -1   -1    0    0    0  501 -0.00000000000E+00 -0.00000000000E+00 -0.46048194052E+03  0.46048194052E+03  0.00000000000E+00 0.  1.
         24    2    1    2    0    0  0.72554827983E+03  0.49899379422E+03  0.20109156222E+04  0.21967105239E+04  0.79626461760E+02 0.  0.
        254    2    1    2    0    0 -0.72554827983E+03 -0.49899379422E+03  0.69431873342E+03  0.14294877127E+04  0.88653341967E+03 0.  0.
         23    2    4    4    0    0 -0.66354110539E+03 -0.66551778552E+03  0.76528389041E+03  0.12153325422E+04  0.90404833584E+02 0.  0.
         23    2    4    4    0    0 -0.62007174441E+02  0.16652399130E+03 -0.70965156987E+02  0.21415517047E+03  0.96183440214E+02 0.  0.
          2    1    3    3  502    0  0.66130016398E+03  0.47931825761E+03  0.18710635095E+04  0.20415539561E+04  0.00000000000E+00 0. -1.
         -1    1    3    3    0  502  0.64248115849E+02  0.19675536608E+02  0.13985211263E+03  0.15515656782E+03  0.00000000000E+00 0.  1.
         13    1    5    5    0    0 -0.16154094605E+03 -0.11286763705E+03  0.17529767748E+03  0.26374960942E+03  0.00000000000E+00 0.  1.
        -13    1    5    5    0    0 -0.50200015934E+03 -0.55265014847E+03  0.58998621294E+03  0.95158293282E+03  0.00000000000E+00 0. -1.
          4    1    6    6  503    0 -0.73268073947E+02  0.16420370915E+03 -0.44400686748E+02  0.18520931332E+03  0.00000000000E+00 0. -1.
         -4    1    6    6    0  503  0.11260899506E+02  0.23202821552E+01 -0.26564470239E+02  0.28945857148E+02  0.00000000000E+00 0.  1.
<mgrwt>
<rscale>  0 0.24147507E+04</rscale>
<asrwt>0</asrwt>
<pdfrwt beam="1">  1        2 0.48703326E+00 0.24147507E+04</pdfrwt>
<pdfrwt beam="2">  1       -1 0.70843377E-01 0.24147507E+04</pdfrwt>
<totfact> 0.28093676E+00</totfact>
</mgrwt>
</event>
<event>
12    7  0.1729738E-007  0.1293638E+04  0.7818608E-02  0.9034625E-01
          2   -1    0    0  501    0  0.00000000000E+00  0.00000000000E+00  0.22812437218E+03  0.22812437218E+03  0.00000000000E+00 0. -1.
         -1   -1    0    0    0  501 -0.00000000000E+00 -0.00000000000E+00 -0.18339774800E+04  0.18339774800E+04  0.00000000000E+00 0.  1.
         24    2    1    2    0    0 -0.16841391295E+02  0.10809337601E+03 -0.84656948367E+03  0.85752852044E+03  0.81899098202E+02 0.  0.
        254    2    1    2    0    0  0.16841391295E+02 -0.10809337601E+03 -0.75928362419E+03  0.12045733318E+04  0.92871819152E+03 0.  0.
         23    2    4    4    0    0  0.16450538145E+03 -0.34538276691E+03 -0.81384888872E+03  0.90389528510E+03  0.91243611039E+02 0.  0.
         23    2    4    4    0    0 -0.14766399015E+03  0.23728939090E+03  0.54565264533E+02  0.30067804667E+03  0.96535022842E+02 0.  0.
          4    1    3    3  502    0 -0.20296824708E+02  0.79744427308E+01 -0.48263962946E+02  0.52961900922E+02  0.00000000000E+00 0. -1.
         -3    1    3    3    0  502  0.34554334124E+01  0.10011893328E+03 -0.79830552073E+03  0.80456661952E+03  0.00000000000E+00 0.  1.
         13    1    5    5    0    0  0.94071608982E+02 -0.25407372937E+03 -0.48685605850E+03  0.55716402367E+03  0.00000000000E+00 0.  1.
        -13    1    5    5    0    0  0.70433772464E+02 -0.91309037541E+02 -0.32699283022E+03  0.34673126143E+03  0.00000000000E+00 0. -1.
          1    1    6    6  503    0 -0.93638743873E+02  0.94717336949E+02  0.64307820981E+02  0.14790227893E+03  0.00000000000E+00 0. -1.
         -1    1    6    6    0  503 -0.54025246278E+02  0.14257205395E+03 -0.97425564478E+01  0.15277576774E+03  0.00000000000E+00 0.  1.
<mgrwt>
<rscale>  0 0.12936382E+04</rscale>
<asrwt>0</asrwt>
<pdfrwt beam="1">  1        2 0.35096057E-01 0.12936382E+04</pdfrwt>
<pdfrwt beam="2">  1       -1 0.28215039E+00 0.12936382E+04</pdfrwt>
<totfact> 0.72544973E+00</totfact>
</mgrwt>
</event>
<event>
12    7  0.1729738E-007  0.1920809E+04  0.7818608E-02  0.8644567E-01
         -1   -1    0    0    0  501 -0.00000000000E+00  0.00000000000E+00  0.12331581800E+04  0.12331581800E+04  0.00000000000E+00 0.  1.
          2   -1    0    0  501    0  0.00000000000E+00 -0.00000000000E+00 -0.74797938208E+03  0.74797938208E+03  0.00000000000E+00 0. -1.
         24    2    1    2    0    0 -0.43536463063E+03  0.32409921456E+03 -0.33825614932E+03  0.64759083488E+03  0.10185285651E+03 0.  0.
        254    2    1    2    0    0  0.43536463063E+03 -0.32409921456E+03  0.82343494725E+03  0.13335467272E+04  0.89761857091E+03 0.  0.
         23    2    4    4    0    0  0.58011548986E+03 -0.39264729325E+03  0.27986347617E+03  0.75980220935E+03  0.90939285060E+02 0.  0.
         23    2    4    4    0    0 -0.14475085922E+03  0.68548078691E+02  0.54357147109E+03  0.57374451788E+03  0.89784059145E+02 0.  0.
          4    1    3    3  502    0 -0.37715104307E+03  0.27566558093E+03 -0.32882253414E+03  0.57127811157E+03  0.00000000000E+00 0. -1.
         -3    1    3    3    0  502 -0.58213587561E+02  0.48433633628E+02 -0.94336151804E+01  0.76312723307E+02  0.00000000000E+00 0.  1.
         13    1    5    5    0    0  0.51055620473E+03 -0.37512054939E+03  0.26390289123E+03  0.68631465142E+03  0.00000000000E+00 0.  1.
        -13    1    5    5    0    0  0.69559285126E+02 -0.17526743863E+02  0.15960584938E+02  0.73487557922E+02  0.00000000000E+00 0. -1.
          4    1    6    6  503    0 -0.22524030163E+02 -0.10987505553E+01  0.21691193615E+03  0.21808101070E+03  0.00000000000E+00 0. -1.
         -4    1    6    6    0  503 -0.12222682906E+03  0.69646829246E+02  0.32665953494E+03  0.35566350717E+03  0.00000000000E+00 0.  1.
<mgrwt>
<rscale>  0 0.19208091E+04</rscale>
<asrwt>0</asrwt>
<pdfrwt beam="1">  1        2 0.11507375E+00 0.19208091E+04</pdfrwt>
<pdfrwt beam="2">  1       -1 0.18971664E+00 0.19208091E+04</pdfrwt>
<totfact> 0.71290481E+00</totfact>
</mgrwt>
</event>
<event>
12    7  0.1729738E-007  0.2369505E+04  0.7818608E-02  0.8451009E-01
         -1   -1    0    0    0  501 -0.00000000000E+00  0.00000000000E+00  0.61723935758E+03  0.61723935758E+03  0.00000000000E+00 0.  1.
          2   -1    0    0  501    0  0.00000000000E+00 -0.00000000000E+00 -0.22740590464E+04  0.22740590464E+04  0.00000000000E+00 0. -1.
         24    2    1    2    0    0 -0.86250691330E+03 -0.40943643041E+03 -0.29965500700E+03  0.10039597418E+04  0.81152164482E+02 0.  0.
        254    2    1    2    0    0  0.86250691330E+03  0.40943643041E+03 -0.13571646818E+04  0.18873386622E+04  0.89921904243E+03 0.  0.
         23    2    4    4    0    0  0.24209839376E+03  0.21321726480E+03  0.44010469418E+02  0.33983987691E+03  0.97370356091E+02 0.  0.
         23    2    4    4    0    0  0.62040851954E+03  0.19621916561E+03 -0.14011751512E+04  0.15474987853E+04  0.89732903809E+02 0.  0.
          2    1    3    3  502    0 -0.34849617323E+03 -0.12334971848E+03 -0.10442896313E+03  0.38414859643E+03  0.00000000000E+00 0. -1.
         -1    1    3    3    0  502 -0.51401074008E+03 -0.28608671193E+03 -0.19522604387E+03  0.61981114532E+03  0.00000000000E+00 0.  1.
         13    1    5    5    0    0  0.23531213579E+02  0.71817096421E+02 -0.14191321590E+01  0.75587216425E+02  0.00000000000E+00 0.  1.
        -13    1    5    5    0    0  0.21856718019E+03  0.14140016838E+03  0.45429601577E+02  0.26425266048E+03  0.00000000000E+00 0. -1.
          1    1    6    6  503    0  0.73521975823E+02  0.42380148757E+02 -0.24510748575E+03  0.25938241557E+03  0.00000000000E+00 0. -1.
         -1    1    6    6    0  503  0.54688654372E+03  0.15383901685E+03 -0.11560676655E+04  0.12881163697E+04  0.00000000000E+00 0.  1.
<mgrwt>
<rscale>  0 0.23695052E+04</rscale>
<asrwt>0</asrwt>
<pdfrwt beam="1">  1        2 0.34985524E+00 0.23695052E+04</pdfrwt>
<pdfrwt beam="2">  1       -1 0.94959901E-01 0.23695052E+04</pdfrwt>
<totfact> 0.51546620E+00</totfact>
</mgrwt>
</event>
<event>
12    7  0.1729738E-007  0.1705555E+04  0.7818608E-02  0.8758203E-01
         -1   -1    0    0    0  501 -0.00000000000E+00  0.00000000000E+00  0.10230427455E+04  0.10230427455E+04  0.00000000000E+00 0.  1.
          2   -1    0    0  501    0  0.00000000000E+00 -0.00000000000E+00 -0.71084921847E+03  0.71084921847E+03  0.00000000000E+00 0. -1.
         24    2    1    2    0    0  0.54461252992E+03 -0.19934764740E+03  0.30685944521E+03  0.66266074613E+03  0.92813000593E+02 0.  0.
        254    2    1    2    0    0 -0.54461252992E+03  0.19934764740E+03  0.53340818132E+01  0.10712312178E+04  0.90064731020E+03 0.  0.
         23    2    4    4    0    0 -0.66746980971E+03 -0.12927362075E+03 -0.10467210837E+03  0.69397229136E+03  0.91726086899E+02 0.  0.
         23    2    4    4    0    0  0.12285727979E+03  0.32862126815E+03  0.11000619018E+03  0.37725892647E+03  0.84481279854E+02 0.  0.
          2    1    3    3  502    0  0.94130658172E+02 -0.69751988588E+02  0.43360784613E+02  0.12492429052E+03  0.00000000000E+00 0. -1.
         -1    1    3    3    0  502  0.45048187174E+03 -0.12959565881E+03  0.26349866059E+03  0.53773645561E+03  0.00000000000E+00 0.  1.
         13    1    5    5    0    0 -0.59844489581E+03 -0.90029042230E+02 -0.77863997272E+02  0.61016745557E+03  0.00000000000E+00 0. -1.
        -13    1    5    5    0    0 -0.69024913894E+02 -0.39244578520E+02 -0.26808111096E+02  0.83804835790E+02  0.00000000000E+00 0.  1.
          3    1    6    6  503    0  0.13032180191E+03  0.25567859264E+03  0.96015757428E+02  0.30261252529E+03  0.00000000000E+00 0. -1.
         -3    1    6    6    0  503 -0.74645221155E+01  0.72942675510E+02  0.13990432753E+02  0.74646401184E+02  0.00000000000E+00 0.  1.
<mgrwt>
<rscale>  0 0.17055546E+04</rscale>
<asrwt>0</asrwt>
<pdfrwt beam="1">  1        2 0.10936142E+00 0.17055546E+04</pdfrwt>
<pdfrwt beam="2">  1       -1 0.15739119E+00 0.17055546E+04</pdfrwt>
<totfact> 0.13350568E+01</totfact>
</mgrwt>
</event>
<event>
12    7  0.1729738E-007  0.1745574E+04  0.7818608E-02  0.8735790E-01
         -1   -1    0    0    0  501 -0.00000000000E+00  0.00000000000E+00  0.32693622087E+03  0.32693622087E+03  0.00000000000E+00 0.  1.
          2   -1    0    0  501    0  0.00000000000E+00 -0.00000000000E+00 -0.23299875902E+04  0.23299875902E+04  0.00000000000E+00 0. -1.
         24    2    1    2    0    0  0.64506078310E+02  0.62948581666E+03 -0.58285972952E+03  0.86401272511E+03  0.79869251461E+02 0.  0.
        254    2    1    2    0    0 -0.64506078310E+02 -0.62948581666E+03 -0.14201916398E+04  0.17929110860E+04  0.89284513826E+03 0.  0.
         23    2    4    4    0    0  0.40143034816E+03 -0.32673323977E+03 -0.59420122202E+03  0.79327271325E+03  0.91134905211E+02 0.  0.
         23    2    4    4    0    0 -0.46593642647E+03 -0.30275257689E+03 -0.82599041782E+03  0.99963837274E+03  0.90889106130E+02 0.  0.
          2    1    3    3  502    0  0.13398736470E+02  0.22167811833E+02 -0.41024262917E+02  0.48517297620E+02  0.00000000000E+00 0. -1.
         -1    1    3    3    0  502  0.51107341841E+02  0.60731800483E+03 -0.54183546660E+03  0.81549542749E+03  0.00000000000E+00 0.  1.
         13    1    5    5    0    0  0.29530187718E+03 -0.22583192957E+03 -0.36294139759E+03  0.51954760818E+03  0.00000000000E+00 0. -1.
        -13    1    5    5    0    0  0.10612847098E+03 -0.10090131020E+03 -0.23125982443E+03  0.27372510507E+03  0.00000000000E+00 0.  1.
          3    1    6    6  503    0 -0.41718363305E+03 -0.24534148902E+03 -0.75035048327E+03  0.89289443814E+03  0.00000000000E+00 0. -1.
         -3    1    6    6    0  503 -0.48752793421E+02 -0.57411087868E+02 -0.75639934550E+02  0.10674393461E+03  0.00000000000E+00 0.  1.
<mgrwt>
<rscale>  0 0.17455742E+04</rscale>
<asrwt>0</asrwt>
<pdfrwt beam="1">  1        2 0.35845962E+00 0.17455742E+04</pdfrwt>
<pdfrwt beam="2">  1       -1 0.50297881E-01 0.17455742E+04</pdfrwt>
<totfact> 0.18692677E+01</totfact>
</mgrwt>
</event>
<event>
12    7  0.1729738E-007  0.1561525E+04  0.7818608E-02  0.8844540E-01
          2   -1    0    0  501    0  0.00000000000E+00  0.00000000000E+00  0.97950937278E+03  0.97950937278E+03  0.00000000000E+00 0. -1.
         -1   -1    0    0    0  501 -0.00000000000E+00 -0.00000000000E+00 -0.62234216391E+03  0.62234216391E+03  0.00000000000E+00 0.  1.
         24    2    1    2    0    0 -0.39303401260E+03 -0.45190971263E+02  0.45751622852E+03  0.61010407268E+03  0.79924471892E+02 0.  0.
        254    2    1    2    0    0  0.39303401260E+03  0.45190971263E+02 -0.10034901964E+03  0.99174746400E+03  0.90386677540E+03 0.  0.
         23    2    4    4    0    0 -0.65742019077E+02  0.29509814842E+02 -0.41315729755E+03  0.42907166348E+03  0.90612899982E+02 0.  0.
         23    2    4    4    0    0  0.45877603167E+03  0.15681156421E+02  0.31280827790E+03  0.56267580052E+03  0.89630864449E+02 0.  0.
          2    1    3    3  502    0 -0.73399603786E+02 -0.66435565483E+00  0.44066073577E+02  0.85614029486E+02  0.00000000000E+00 0. -1.
         -1    1    3    3    0  502 -0.31963440881E+03 -0.44526615608E+02  0.41345015494E+03  0.52449004320E+03  0.00000000000E+00 0.  1.
         13    1    5    5    0    0  0.51442066821E+01  0.42139864770E+02 -0.12323753316E+03  0.13034462261E+03  0.00000000000E+00 0.  1.
        -13    1    5    5    0    0 -0.70886225759E+02 -0.12630049928E+02 -0.28991976439E+03  0.29872704087E+03  0.00000000000E+00 0. -1.
          4    1    6    6  503    0  0.37128267719E+03 -0.23080370211E+02  0.24679820302E+03  0.44642231450E+03  0.00000000000E+00 0.  1.
         -4    1    6    6    0  503  0.87493354485E+02  0.38761526633E+02  0.66010074880E+02  0.11625348602E+03  0.00000000000E+00 0. -1.
<mgrwt>
<rscale>  0 0.15615249E+04</rscale>
<asrwt>0</asrwt>
<pdfrwt beam="1">  1        2 0.15069375E+00 0.15615249E+04</pdfrwt>
<pdfrwt beam="2">  1       -1 0.95744948E-01 0.15615249E+04</pdfrwt>
<totfact> 0.29988440E+01</totfact>
</mgrwt>
</event>
<event>
12    7  0.1729738E-007  0.2350058E+04  0.7818608E-02  0.8458441E-01
          2   -1    0    0  501    0  0.00000000000E+00  0.00000000000E+00  0.88444102612E+03  0.88444102612E+03  0.00000000000E+00 0. -1.
         -1   -1    0    0    0  501 -0.00000000000E+00 -0.00000000000E+00 -0.15610908157E+04  0.15610908157E+04  0.00000000000E+00 0.  1.
         24    2    1    2    0    0 -0.37711889178E+03  0.75092219844E+03 -0.85821924352E+03  0.12037675846E+04  0.80083214076E+02 0.  0.
        254    2    1    2    0    0  0.37711889178E+03 -0.75092219844E+03  0.18156945398E+03  0.12417642572E+04  0.89605144780E+03 0.  0.
         23    2    4    4    0    0 -0.24362433176E+03 -0.42655627035E+03  0.19203127437E+03  0.53529699415E+03  0.91453785130E+02 0.  0.
         23    2    4    4    0    0  0.62074322354E+03 -0.32436592810E+03 -0.10461820390E+02  0.70646726301E+03  0.91930077452E+02 0.  0.
          4    1    3    3  502    0 -0.38006763040E+03  0.74938386241E+03 -0.85707050054E+03  0.12002488991E+04  0.00000000000E+00 0. -1.
         -3    1    3    3    0  502  0.29487386266E+01  0.15383360311E+01 -0.11487429744E+01  0.35186855008E+01  0.00000000000E+00 0.  1.
         13    1    5    5    0    0 -0.16202144666E+03 -0.29059654910E+03  0.83149136881E+02  0.34294472221E+03  0.00000000000E+00 0.  1.
        -13    1    5    5    0    0 -0.81602885101E+02 -0.13595972125E+03  0.10888213749E+03  0.19235227195E+03  0.00000000000E+00 0. -1.
          3    1    6    6  503    0  0.48146545899E+03 -0.28603414190E+03  0.12700083335E+02  0.56016587780E+03  0.00000000000E+00 0. -1.
         -3    1    6    6    0  503  0.13927776455E+03 -0.38331786195E+02 -0.23161903725E+02  0.14630138521E+03  0.00000000000E+00 0.  1.
<mgrwt>
<rscale>  0 0.23500577E+04</rscale>
<asrwt>0</asrwt>
<pdfrwt beam="1">  1        2 0.13606785E+00 0.23500577E+04</pdfrwt>
<pdfrwt beam="2">  1       -1 0.24016781E+00 0.23500577E+04</pdfrwt>
<totfact> 0.25020347E+00</totfact>
</mgrwt>
</event>
<event>
12    7  0.1729738E-007  0.1364734E+04  0.7818608E-02  0.8979749E-01
          2   -1    0    0  501    0  0.00000000000E+00  0.00000000000E+00  0.46038396652E+04  0.46038396652E+04  0.00000000000E+00 0. -1.
         -1   -1    0    0    0  501 -0.00000000000E+00 -0.00000000000E+00 -0.10113833460E+03  0.10113833460E+03  0.00000000000E+00 0.  1.
         24    2    1    2    0    0  0.31546527041E+03 -0.34998223947E+02  0.55973317713E+03  0.64815790363E+03  0.77873140028E+02 0.  0.
        254    2    1    2    0    0 -0.31546527041E+03  0.34998223947E+02  0.39429681534E+04  0.40568200961E+04  0.90002678902E+03 0.  0.
         23    2    4    4    0    0  0.30536145509E+03 -0.20006846761E+02  0.15212917288E+04  0.15545560445E+04  0.93113260383E+02 0.  0.
         23    2    4    4    0    0 -0.62082672550E+03  0.55005070708E+02  0.24216764246E+04  0.25022640516E+04  0.91418255999E+02 0.  0.
          2    1    3    3  502    0  0.97042157940E+02 -0.44055642508E+02  0.21476102042E+03  0.23975065370E+03  0.00000000000E+00 0. -1.
         -1    1    3    3    0  502  0.21842311247E+03  0.90574185612E+01  0.34497215671E+03  0.40840724993E+03  0.00000000000E+00 0.  1.
         13    1    5    5    0    0  0.25994067931E+03  0.51691994193E+01  0.13738892911E+04  0.13982730998E+04  0.00000000000E+00 0.  1.
        -13    1    5    5    0    0  0.45420775777E+02 -0.25176046181E+02  0.14740243763E+03  0.15628294467E+03  0.00000000000E+00 0. -1.
          2    1    6    6  503    0 -0.22312703592E+03  0.63751593659E+02  0.87357331807E+03  0.90386961554E+03  0.00000000000E+00 0. -1.
         -2    1    6    6    0  503 -0.39769968958E+03 -0.87465229511E+01  0.15481031066E+04  0.15983944361E+04  0.00000000000E+00 0.  1.
<mgrwt>
<rscale>  0 0.13647339E+04</rscale>
<asrwt>0</asrwt>
<pdfrwt beam="1">  1        2 0.70828286E+00 0.13647339E+04</pdfrwt>
<pdfrwt beam="2">  1       -1 0.15559747E-01 0.13647339E+04</pdfrwt>
<totfact> 0.34983716E+00</totfact>
</mgrwt>
</event>
<event>
12    7  0.1729738E-007  0.1496560E+04  0.7818608E-02  0.8886744E-01
          2   -1    0    0  501    0  0.00000000000E+00  0.00000000000E+00  0.72091380875E+03  0.72091380875E+03  0.00000000000E+00 0. -1.
         -1   -1    0    0    0  501 -0.00000000000E+00 -0.00000000000E+00 -0.77668520764E+03  0.77668520764E+03  0.00000000000E+00 0.  1.
         24    2    1    2    0    0 -0.82165625734E+01  0.38580628321E+03  0.24519865823E+03  0.46434443121E+03  0.81113308004E+02 0.  0.
        254    2    1    2    0    0  0.82165625734E+01 -0.38580628321E+03 -0.30097005712E+03  0.10332545852E+04  0.91000992436E+03 0.  0.
         23    2    4    4    0    0  0.41468459327E+03 -0.18447306679E+03 -0.33218723493E+03  0.56944098408E+03  0.89000286733E+02 0.  0.
         23    2    4    4    0    0 -0.40646803070E+03 -0.20133321642E+03  0.31217177808E+02  0.46381360109E+03  0.91636348436E+02 0.  0.
          2    1    3    3  502    0  0.25449901971E+02  0.31381123299E+03  0.19465166929E+03  0.37015464312E+03  0.00000000000E+00 0. -1.
         -1    1    3    3    0  502 -0.33666464545E+02  0.71995050213E+02  0.50546988944E+02  0.94189788096E+02  0.00000000000E+00 0.  1.
         13    1    5    5    0    0  0.12625215287E+02 -0.26562445923E+02 -0.31732450504E+02  0.43265552226E+02  0.00000000000E+00 0.  1.
        -13    1    5    5    0    0  0.40205937798E+03 -0.15791062086E+03 -0.30045478443E+03  0.52617543186E+03  0.00000000000E+00 0. -1.
          4    1    6    6  503    0 -0.29574775343E+03 -0.98688083330E+02  0.21794263945E+02  0.31253969571E+03  0.00000000000E+00 0. -1.
         -4    1    6    6    0  503 -0.11072027726E+03 -0.10264513309E+03  0.94229138634E+01  0.15127390538E+03  0.00000000000E+00 0.  1.
<mgrwt>
<rscale>  0 0.14965602E+04</rscale>
<asrwt>0</asrwt>
<pdfrwt beam="1">  1        2 0.11090982E+00 0.14965602E+04</pdfrwt>
<pdfrwt beam="2">  1       -1 0.11949003E+00 0.14965602E+04</pdfrwt>
<totfact> 0.27257181E+01</totfact>
</mgrwt>
</event>
<event>
12    7  0.1729738E-007  0.1664828E+04  0.7818608E-02  0.8781683E-01
         -1   -1    0    0    0  501 -0.00000000000E+00  0.00000000000E+00  0.40404228775E+03  0.40404228775E+03  0.00000000000E+00 0.  1.
          2   -1    0    0  501    0  0.00000000000E+00 -0.00000000000E+00 -0.17149509685E+04  0.17149509685E+04  0.00000000000E+00 0. -1.
         24    2    1    2    0    0  0.19984255861E+03 -0.53894150703E+03 -0.27351105389E+03  0.64149163262E+03  0.79424315523E+02 0.  0.
        254    2    1    2    0    0 -0.19984255861E+03  0.53894150703E+03 -0.10373976269E+04  0.14775016237E+04  0.88114823693E+03 0.  0.
         23    2    4    4    0    0 -0.29366086939E+03  0.60690096051E+03 -0.33581304937E+03  0.75904108782E+03  0.93848211473E+02 0.  0.
         23    2    4    4    0    0  0.93818310777E+02 -0.67959453484E+02 -0.70158457753E+03  0.71846053586E+03  0.10268524428E+03 0.  0.
          4    1    3    3  502    0  0.11948407344E+03 -0.33919481610E+03 -0.21247546286E+03  0.41770251303E+03  0.00000000000E+00 0. -1.
         -3    1    3    3    0  502  0.80358485166E+02 -0.19974669092E+03 -0.61035591027E+02  0.22378911959E+03  0.00000000000E+00 0.  1.
         13    1    5    5    0    0 -0.22360481894E+03  0.53493076029E+03 -0.27579632392E+03  0.64203866366E+03  0.00000000000E+00 0. -1.
        -13    1    5    5    0    0 -0.70056050451E+02  0.71970200225E+02 -0.60016725446E+02  0.11700242416E+03  0.00000000000E+00 0.  1.
          4    1    6    6  503    0  0.11117622156E+03 -0.42349113350E+02 -0.47021939688E+03  0.48503595830E+03  0.00000000000E+00 0. -1.
         -4    1    6    6    0  503 -0.17357910779E+02 -0.25610340135E+02 -0.23136518065E+03  0.23342457756E+03  0.00000000000E+00 0.  1.
<mgrwt>
<rscale>  0 0.16648276E+04</rscale>
<asrwt>0</asrwt>
<pdfrwt beam="1">  1        2 0.26383861E+00 0.16648276E+04</pdfrwt>
<pdfrwt beam="2">  1       -1 0.62160352E-01 0.16648276E+04</pdfrwt>
<totfact> 0.27449753E+01</totfact>
</mgrwt>
</event>
<event>
12    7  0.1729738E-007  0.2448623E+04  0.7818608E-02  0.8421521E-01
          2   -1    0    0  501    0  0.00000000000E+00  0.00000000000E+00  0.84677959621E+03  0.84677959621E+03  0.00000000000E+00 0. -1.
         -1   -1    0    0    0  501 -0.00000000000E+00 -0.00000000000E+00 -0.17701643761E+04  0.17701643761E+04  0.00000000000E+00 0.  1.
         24    2    1    2    0    0 -0.45863571576E+03  0.74421073960E+03 -0.10391521014E+04  0.13593052584E+04  0.60641166370E+02 0.  0.
        254    2    1    2    0    0  0.45863571576E+03 -0.74421073960E+03  0.11576732151E+03  0.12576387139E+04  0.89669209719E+03 0.  0.
         23    2    4    4    0    0 -0.12780215435E+03 -0.33509175826E+02 -0.21984604145E+03  0.27276098786E+03  0.92790188255E+02 0.  0.
         23    2    4    4    0    0  0.58643787011E+03 -0.71070156378E+03  0.33561336296E+03  0.98487772600E+03  0.91333003430E+02 0.  0.
          2    1    3    3  502    0 -0.17656585369E+03  0.23230226260E+03 -0.35029981665E+03  0.45590547644E+03  0.00000000000E+00 0. -1.
         -1    1    3    3    0  502 -0.28206986208E+03  0.51190847701E+03 -0.68885228471E+03  0.90339978198E+03  0.00000000000E+00 0.  1.
         13    1    5    5    0    0 -0.13710360152E+03 -0.32778624467E+02 -0.22219512896E+03  0.26313971784E+03  0.00000000000E+00 0. -1.
        -13    1    5    5    0    0  0.93014471708E+01 -0.73055135904E+00  0.23490875053E+01  0.96212700235E+01  0.00000000000E+00 0.  1.
          1    1    6    6  503    0  0.49530498717E+03 -0.62772718168E+03  0.31737548792E+03  0.86028811759E+03  0.00000000000E+00 0. -1.
         -1    1    6    6    0  503  0.91132882939E+02 -0.82974382093E+02  0.18237875045E+02  0.12458960841E+03  0.00000000000E+00 0.  1.
<mgrwt>
<rscale>  0 0.24486233E+04</rscale>
<asrwt>0</asrwt>
<pdfrwt beam="1">  1        2 0.13027378E+00 0.24486233E+04</pdfrwt>
<pdfrwt beam="2">  1       -1 0.27233298E+00 0.24486233E+04</pdfrwt>
<totfact> 0.16262369E+00</totfact>
</mgrwt>
</event>
<event>
12    7  0.1729738E-007  0.2024766E+04  0.7818608E-02  0.8595128E-01
         -1   -1    0    0    0  501 -0.00000000000E+00  0.00000000000E+00  0.50953288276E+03  0.50953288276E+03  0.00000000000E+00 0.  1.
          2   -1    0    0  501    0  0.00000000000E+00 -0.00000000000E+00 -0.20114886948E+04  0.20114886948E+04  0.00000000000E+00 0. -1.
         24    2    1    2    0    0 -0.65316284206E+03  0.42255835594E+03 -0.46308599378E+03  0.90884383093E+03  0.79819853206E+02 0.  0.
        254    2    1    2    0    0  0.65316284206E+03 -0.42255835594E+03 -0.10388698182E+04  0.16121777466E+04  0.95639391727E+03 0.  0.
         23    2    4    4    0    0  0.17575900808E+03  0.11264102468E+03 -0.82809334087E+03  0.85908300244E+03  0.93304847200E+02 0.  0.
         23    2    4    4    0    0  0.47740383398E+03 -0.53519938062E+03 -0.21077647734E+03  0.75309474416E+03  0.91499576827E+02 0.  0.
          2    1    3    3  502    0 -0.13451101767E+03  0.91133802783E+02 -0.13569393231E+03  0.21168709727E+03  0.00000000000E+00 0. -1.
         -1    1    3    3    0  502 -0.51865182439E+03  0.33142455316E+03 -0.32739206147E+03  0.69715673366E+03  0.00000000000E+00 0.  1.
         13    1    5    5    0    0  0.31962608865E+01 -0.59330903305E+01 -0.13226868173E+03  0.13244025752E+03  0.00000000000E+00 0.  1.
        -13    1    5    5    0    0  0.17256274719E+03  0.11857411501E+03 -0.69582465914E+03  0.72664274492E+03  0.00000000000E+00 0. -1.
          4    1    6    6  503    0  0.20764895601E+03 -0.25578706552E+03 -0.52123076661E+02  0.33355948036E+03  0.00000000000E+00 0. -1.
         -4    1    6    6    0  503  0.26975487797E+03 -0.27941231510E+03 -0.15865340068E+03  0.41953526380E+03  0.00000000000E+00 0.  1.
<mgrwt>
<rscale>  0 0.20247663E+04</rscale>
<asrwt>0</asrwt>
<pdfrwt beam="1">  1        2 0.30945979E+00 0.20247663E+04</pdfrwt>
<pdfrwt beam="2">  1       -1 0.78389675E-01 0.20247663E+04</pdfrwt>
<totfact> 0.11319515E+01</totfact>
</mgrwt>
</event>
<event>
12    7  0.1729738E-007  0.1815640E+04  0.7818608E-02  0.8698026E-01
          2   -1    0    0  501    0  0.00000000000E+00  0.00000000000E+00  0.23216628990E+04  0.23216628990E+04  0.00000000000E+00 0. -1.
         -1   -1    0    0    0  501 -0.00000000000E+00 -0.00000000000E+00 -0.35497716524E+03  0.35497716524E+03  0.00000000000E+00 0.  1.
         24    2    1    2    0    0  0.33231965511E+03 -0.59195511315E+03  0.82642479360E+03  0.10725336336E+04  0.80642709285E+02 0.  0.
        254    2    1    2    0    0 -0.33231965511E+03  0.59195511315E+03  0.11402609401E+04  0.16041064306E+04  0.90117435605E+03 0.  0.
         23    2    4    4    0    0 -0.12847892241E+03 -0.17949375343E+03  0.40517108480E+02  0.24249956555E+03  0.91867089781E+02 0.  0.
         23    2    4    4    0    0 -0.20384073270E+03  0.77144886658E+03  0.10997438317E+04  0.13616068651E+04  0.88613552605E+02 0.  0.
          2    1    3    3  502    0  0.11428194658E+03 -0.16545857576E+03  0.29591700469E+03  0.35777615526E+03  0.00000000000E+00 0. -1.
         -1    1    3    3    0  502  0.21803770853E+03 -0.42649653738E+03  0.53050778891E+03  0.71475747834E+03  0.00000000000E+00 0.  1.
         13    1    5    5    0    0 -0.39075668736E+02 -0.11662356349E+02  0.32545267077E+02  0.52173871352E+02  0.00000000000E+00 0. -1.
        -13    1    5    5    0    0 -0.89403253677E+02 -0.16783139708E+03  0.79718414027E+01  0.19032569419E+03  0.00000000000E+00 0.  1.
          2    1    6    6  503    0 -0.12918509069E+00  0.35171204689E+01  0.24127557172E+02  0.24382900571E+02  0.00000000000E+00 0. -1.
         -2    1    6    6    0  503 -0.20371154761E+03  0.76793174611E+03  0.10756162745E+04  0.13372239645E+04  0.00000000000E+00 0.  1.
<mgrwt>
<rscale>  0 0.18156402E+04</rscale>
<asrwt>0</asrwt>
<pdfrwt beam="1">  1        2 0.35717890E+00 0.18156402E+04</pdfrwt>
<pdfrwt beam="2">  1       -1 0.54611873E-01 0.18156402E+04</pdfrwt>
<totfact> 0.16035408E+01</totfact>
</mgrwt>
</event>
<event>
12    7  0.1729738E-007  0.4021933E+04  0.7818608E-02  0.8000137E-01
          2   -1    0    0  501    0  0.00000000000E+00  0.00000000000E+00  0.37808089360E+04  0.37808089360E+04  0.00000000000E+00 0. -1.
         -1   -1    0    0    0  501 -0.00000000000E+00 -0.00000000000E+00 -0.10696086070E+04  0.10696086070E+04  0.00000000000E+00 0.  1.
         24    2    1    2    0    0  0.99811039492E+03  0.14961044971E+04  0.20447077430E+04  0.27243075213E+04  0.80428164545E+02 0.  0.
        254    2    1    2    0    0 -0.99811039492E+03 -0.14961044971E+04  0.66649258608E+03  0.21261100217E+04  0.91737583920E+03 0.  0.
         23    2    4    4    0    0 -0.88866245711E+03 -0.15936863711E+04  0.68808998044E+03  0.19522668815E+04  0.91219206277E+02 0.  0.
         23    2    4    4    0    0 -0.10944793781E+03  0.97581873928E+02 -0.21597394361E+02  0.17384314017E+03  0.90851068963E+02 0.  0.
          2    1    3    3  502    0  0.55816476097E+02  0.62691628496E+02  0.11503804571E+03  0.14240600847E+03  0.00000000000E+00 0. -1.
         -1    1    3    3    0  502  0.94229391882E+03  0.14334128686E+04  0.19296696973E+04  0.25819015128E+04  0.00000000000E+00 0.  1.
         13    1    5    5    0    0 -0.70573309725E+03 -0.13353501057E+04  0.56235763730E+03  0.16116653566E+04  0.00000000000E+00 0.  1.
        -13    1    5    5    0    0 -0.18292935986E+03 -0.25833626538E+03  0.12573234314E+03  0.34060152499E+03  0.00000000000E+00 0. -1.
          4    1    6    6  503    0 -0.11373814215E+03  0.65748842937E+02  0.59763434791E+01  0.13151042547E+03  0.00000000000E+00 0.  1.
         -4    1    6    6    0  503  0.42902043384E+01  0.31833030991E+02 -0.27573737841E+02  0.42332714700E+02  0.00000000000E+00 0. -1.
<mgrwt>
<rscale>  0 0.40219328E+04</rscale>
<asrwt>0</asrwt>
<pdfrwt beam="1">  1        2 0.58166291E+00 0.40219328E+04</pdfrwt>
<pdfrwt beam="2">  1       -1 0.16455517E+00 0.40219328E+04</pdfrwt>
<totfact> 0.12219410E-01</totfact>
</mgrwt>
</event>
<event>
12    7  0.1729738E-007  0.1248420E+04  0.7818608E-02  0.9071499E-01
         -1   -1    0    0    0  501 -0.00000000000E+00  0.00000000000E+00  0.52352231227E+03  0.52352231227E+03  0.00000000000E+00 0.  1.
          2   -1    0    0  501    0  0.00000000000E+00 -0.00000000000E+00 -0.74426251889E+03  0.74426251889E+03  0.00000000000E+00 0. -1.
         24    2    1    2    0    0 -0.10654536656E+03  0.10787634660E+03  0.20420130562E+03  0.26656526228E+03  0.79810052923E+02 0.  0.
        254    2    1    2    0    0  0.10654536656E+03 -0.10787634660E+03 -0.42494151224E+03  0.10012195689E+04  0.89379869936E+03 0.  0.
         23    2    4    4    0    0 -0.33767393041E+03  0.15264981601E+03 -0.17890040978E+03  0.42120112922E+03  0.89885399448E+02 0.  0.
         23    2    4    4    0    0  0.44421929696E+03 -0.26052616261E+03 -0.24604110246E+03  0.58001843965E+03  0.10334650956E+03 0.  0.
          2    1    3    3  502    0 -0.62552939137E+02  0.13980954269E+02  0.52709426334E+02  0.82985666843E+02  0.00000000000E+00 0. -1.
         -1    1    3    3    0  502 -0.43992427418E+02  0.93895392333E+02  0.15149187929E+03  0.18357959544E+03  0.00000000000E+00 0.  1.
         13    1    5    5    0    0 -0.20550063814E+03  0.10828470082E+03 -0.65104593298E+02  0.24123577010E+03  0.00000000000E+00 0.  1.
        -13    1    5    5    0    0 -0.13217329226E+03  0.44365115187E+02 -0.11379581648E+03  0.17996535912E+03  0.00000000000E+00 0. -1.
          4    1    6    6  503    0  0.24349558489E+03 -0.13307977020E+03 -0.76008692660E+02  0.28771104681E+03  0.00000000000E+00 0. -1.
         -4    1    6    6    0  503  0.20072371208E+03 -0.12744639241E+03 -0.17003240980E+03  0.29230739285E+03  0.00000000000E+00 0.  1.
<mgrwt>
<rscale>  0 0.12484199E+04</rscale>
<asrwt>0</asrwt>
<pdfrwt beam="1">  1        2 0.11450193E+00 0.12484199E+04</pdfrwt>
<pdfrwt beam="2">  1       -1 0.80541895E-01 0.12484199E+04</pdfrwt>
<totfact> 0.65443337E+01</totfact>
</mgrwt>
</event>
<event>
12    7  0.1729738E-007  0.2560669E+04  0.7818608E-02  0.8381685E-01
         -1   -1    0    0    0  501 -0.00000000000E+00  0.00000000000E+00  0.54589989507E+03  0.54589989507E+03  0.00000000000E+00 0.  1.
          2   -1    0    0  501    0  0.00000000000E+00 -0.00000000000E+00 -0.30028515730E+04  0.30028515730E+04  0.00000000000E+00 0. -1.
         24    2    1    2    0    0 -0.54630773874E+03 -0.92165701559E+03 -0.15409868461E+04  0.18786584685E+04  0.82543211142E+02 0.  0.
        254    2    1    2    0    0  0.54630773874E+03  0.92165701559E+03 -0.91596483176E+03  0.16700929995E+04  0.89572052233E+03 0.  0.
         23    2    4    4    0    0  0.20249404484E+02  0.95348448295E+02  0.16235462486E+03  0.21050627039E+03  0.91937482490E+02 0.  0.
         23    2    4    4    0    0  0.52605833425E+03  0.82630856730E+03 -0.10783194566E+04  0.14595867291E+04  0.89985275394E+02 0.  0.
          2    1    3    3  502    0 -0.32945571754E+03 -0.56884920153E+03 -0.10137158383E+04  0.12082012601E+04  0.00000000000E+00 0. -1.
         -1    1    3    3    0  502 -0.21685202120E+03 -0.35280781406E+03 -0.52727100777E+03  0.67045720847E+03  0.00000000000E+00 0.  1.
         13    1    5    5    0    0  0.32647774214E+02  0.69814083753E+01  0.11640171467E+02  0.35356906197E+02  0.00000000000E+00 0.  1.
        -13    1    5    5    0    0 -0.12398369730E+02  0.88367039919E+02  0.15071445340E+03  0.17514936420E+03  0.00000000000E+00 0. -1.
          1    1    6    6  503    0  0.13810918995E+03  0.15119419450E+03 -0.21115020999E+03  0.29413983745E+03  0.00000000000E+00 0. -1.
         -1    1    6    6    0  503  0.38794914430E+03  0.67511437280E+03 -0.86716924664E+03  0.11654468916E+04  0.00000000000E+00 0.  1.
<mgrwt>
<rscale>  0 0.25606689E+04</rscale>
<asrwt>0</asrwt>
<pdfrwt beam="1">  1        2 0.46197717E+00 0.25606689E+04</pdfrwt>
<pdfrwt beam="2">  1       -1 0.83984599E-01 0.25606689E+04</pdfrwt>
<totfact> 0.24588521E+00</totfact>
</mgrwt>
</event>
<event>
12    7  0.1729738E-007  0.2708757E+04  0.7818608E-02  0.8332169E-01
          2   -1    0    0  501    0  0.00000000000E+00  0.00000000000E+00  0.17123184306E+04  0.17123184306E+04  0.00000000000E+00 0. -1.
         -1   -1    0    0    0  501 -0.00000000000E+00 -0.00000000000E+00 -0.10712615010E+04  0.10712615010E+04  0.00000000000E+00 0.  1.
         24    2    1    2    0    0  0.72788790106E+03  0.95700876995E+03  0.41058056610E+03  0.12730138329E+04  0.79380320033E+02 0.  0.
        254    2    1    2    0    0 -0.72788790106E+03 -0.95700876995E+03  0.23047636350E+03  0.15105660988E+04  0.88487513376E+03 0.  0.
         23    2    4    4    0    0 -0.41609396563E+03 -0.94647559474E+03  0.43544952998E+03  0.11264304288E+04  0.10138529569E+03 0.  0.
         23    2    4    4    0    0 -0.31179393543E+03 -0.10533175208E+02 -0.20497316648E+03  0.38413566993E+03  0.90663156688E+02 0.  0.
          2    1    3    3  502    0  0.58871677961E+03  0.72598058520E+03  0.30189396816E+03  0.98222972094E+03  0.00000000000E+00 0. -1.
         -1    1    3    3    0  502  0.13917112145E+03  0.23102818475E+03  0.10868659794E+03  0.29078411196E+03  0.00000000000E+00 0.  1.
         13    1    5    5    0    0 -0.23163290503E+02 -0.19944670546E+02  0.25215095782E+02  0.39624852876E+02  0.00000000000E+00 0. -1.
        -13    1    5    5    0    0 -0.39293067513E+03 -0.92653092419E+03  0.41023443420E+03  0.10868055760E+04  0.00000000000E+00 0.  1.
          3    1    6    6  503    0 -0.17368009182E+03 -0.31540506772E+02 -0.15754818560E+03  0.23660306137E+03  0.00000000000E+00 0. -1.
         -3    1    6    6    0  503 -0.13811384361E+03  0.21007331565E+02 -0.47424980880E+02  0.14753260856E+03  0.00000000000E+00 0.  1.
<mgrwt>
<rscale>  0 0.27087568E+04</rscale>
<asrwt>0</asrwt>
<pdfrwt beam="1">  1        2 0.26343360E+00 0.27087568E+04</pdfrwt>
<pdfrwt beam="2">  1       -1 0.16480946E+00 0.27087568E+04</pdfrwt>
<totfact> 0.25902028E+00</totfact>
</mgrwt>
</event>
<event>
12    7  0.1729738E-007  0.1344432E+04  0.7818608E-02  0.8995054E-01
         -1   -1    0    0    0  501 -0.00000000000E+00  0.00000000000E+00  0.15321863250E+03  0.15321863250E+03  0.00000000000E+00 0.  1.
          2   -1    0    0  501    0  0.00000000000E+00 -0.00000000000E+00 -0.29492130383E+04  0.29492130383E+04  0.00000000000E+00 0. -1.
         24    2    1    2    0    0  0.28069749360E+03 -0.81311498042E+02 -0.12725818939E+04  0.13084180923E+04  0.84205611481E+02 0.  0.
        254    2    1    2    0    0 -0.28069749360E+03  0.81311498042E+02 -0.15234125119E+04  0.17940135785E+04  0.90127487244E+03 0.  0.
         23    2    4    4    0    0 -0.31562865865E+02  0.14429342770E+03  0.62403849463E+02  0.18476297508E+03  0.91794927704E+02 0.  0.
         23    2    4    4    0    0 -0.24913462774E+03 -0.62981929660E+02 -0.15858163613E+04  0.16092506034E+04  0.94016947184E+02 0.  0.
          4    1    3    3  502    0  0.22939246179E+03 -0.66187391458E+02 -0.86509837668E+03  0.89743906403E+03  0.00000000000E+00 0. -1.
         -3    1    3    3    0  502  0.51305031815E+02 -0.15124106584E+02 -0.40748351724E+03  0.41097902831E+03  0.00000000000E+00 0.  1.
         13    1    5    5    0    0 -0.72183597943E+01 -0.50164545940E+01 -0.13029760545E+02  0.15717639602E+02  0.00000000000E+00 0. -1.
        -13    1    5    5    0    0 -0.24344506071E+02  0.14930988230E+03  0.75433610008E+02  0.16904533547E+03  0.00000000000E+00 0.  1.
          2    1    6    6  503    0 -0.14392513801E+03  0.69139161726E+01 -0.72083616086E+03  0.73509660480E+03  0.00000000000E+00 0. -1.
         -2    1    6    6    0  503 -0.10520948973E+03 -0.69895845832E+02 -0.86498020049E+03  0.87415399858E+03  0.00000000000E+00 0.  1.
<mgrwt>
<rscale>  0 0.13444321E+04</rscale>
<asrwt>0</asrwt>
<pdfrwt beam="1">  1        2 0.45372507E+00 0.13444321E+04</pdfrwt>
<pdfrwt beam="2">  1       -1 0.23572098E-01 0.13444321E+04</pdfrwt>
<totfact> 0.32602159E+01</totfact>
</mgrwt>
</event>
<event>
12    7  0.1729738E-007  0.1153088E+04  0.7818608E-02  0.9154939E-01
          2   -1    0    0  501    0  0.00000000000E+00  0.00000000000E+00  0.16693681164E+04  0.16693681164E+04  0.00000000000E+00 0. -1.
         -1   -1    0    0    0  501 -0.00000000000E+00 -0.00000000000E+00 -0.19911907577E+03  0.19911907577E+03  0.00000000000E+00 0.  1.
         24    2    1    2    0    0  0.73290653468E+02 -0.20119986997E+03  0.29581518032E+03  0.37553731632E+03  0.87571385075E+02 0.  0.
        254    2    1    2    0    0 -0.73290653468E+02  0.20119986997E+03  0.11744338603E+04  0.14929498758E+04  0.89652190824E+03 0.  0.
         23    2    4    4    0    0 -0.39806249395E+03  0.23111876733E+03  0.10205560500E+04  0.11231947559E+04  0.90344754889E+02 0.  0.
         23    2    4    4    0    0  0.32477184048E+03 -0.29918897358E+02  0.15387781031E+03  0.36975511996E+03  0.81661370566E+02 0.  0.
          4    1    3    3  502    0  0.11018499790E+02 -0.86025353300E+02  0.18377619818E+03  0.20321284350E+03  0.00000000000E+00 0. -1.
         -3    1    3    3    0  502  0.62272153678E+02 -0.11517451667E+03  0.11203898214E+03  0.17232447282E+03  0.00000000000E+00 0.  1.
         13    1    5    5    0    0 -0.27973611313E+03  0.18586021331E+03  0.81827468976E+03  0.88451669276E+03  0.00000000000E+00 0.  1.
        -13    1    5    5    0    0 -0.11832638082E+03  0.45258554019E+02  0.20228136025E+03  0.23867806312E+03  0.00000000000E+00 0. -1.
          4    1    6    6  503    0  0.18787790600E+03 -0.57781243629E+01  0.13042554006E+03  0.22878443081E+03  0.00000000000E+00 0. -1.
         -4    1    6    6    0  503  0.13689393448E+03 -0.24140772995E+02  0.23452270256E+02  0.14097068915E+03  0.00000000000E+00 0.  1.
<mgrwt>
<rscale>  0 0.11530881E+04</rscale>
<asrwt>0</asrwt>
<pdfrwt beam="1">  1        2 0.25682586E+00 0.11530881E+04</pdfrwt>
<pdfrwt beam="2">  1       -1 0.30633705E-01 0.11530881E+04</pdfrwt>
<totfact> 0.11309015E+02</totfact>
</mgrwt>
</event>
<event>
12    7  0.1729738E-007  0.4103454E+04  0.7818608E-02  0.7983996E-01
         -1   -1    0    0    0  501 -0.00000000000E+00  0.00000000000E+00  0.20396908002E+04  0.20396908002E+04  0.00000000000E+00 0.  1.
          2   -1    0    0  501    0  0.00000000000E+00 -0.00000000000E+00 -0.20638337324E+04  0.20638337324E+04  0.00000000000E+00 0. -1.
         24    2    1    2    0    0  0.98287341146E+03 -0.14053620159E+04 -0.96223516319E+03  0.19681051240E+04  0.80366230670E+02 0.  0.
        254    2    1    2    0    0 -0.98287341146E+03  0.14053620159E+04  0.93809223094E+03  0.21354194087E+04  0.85960251185E+03 0.  0.
         23    2    4    4    0    0 -0.10557000715E+03  0.85656708939E+03  0.30967446165E+03  0.92131938818E+03  0.89882911594E+02 0.  0.
         23    2    4    4    0    0 -0.87730340432E+03  0.54879492653E+03  0.62841776929E+03  0.12141000205E+04  0.91064989837E+02 0.  0.
          4    1    3    3  502    0  0.46453395278E+03 -0.64802425932E+03 -0.49211233680E+03  0.93696413270E+03  0.00000000000E+00 0. -1.
         -3    1    3    3    0  502  0.51833945869E+03 -0.75733775661E+03 -0.47012282639E+03  0.10311409913E+04  0.00000000000E+00 0.  1.
         13    1    5    5    0    0  0.36388186271E+01  0.12601791983E+03  0.18889396740E+02  0.12747770954E+03  0.00000000000E+00 0.  1.
        -13    1    5    5    0    0 -0.10920882578E+03  0.73054916956E+03  0.29078506491E+03  0.79384167864E+03  0.00000000000E+00 0. -1.
          2    1    6    6  503    0 -0.15446053914E+03  0.10640434235E+03  0.75398426183E+02  0.20215059954E+03  0.00000000000E+00 0.  1.
         -2    1    6    6    0  503 -0.72284286517E+03  0.44239058418E+03  0.55301934310E+03  0.10119494209E+04  0.00000000000E+00 0. -1.
<mgrwt>
<rscale>  0 0.41034535E+04</rscale>
<asrwt>0</asrwt>
<pdfrwt beam="1">  1        2 0.31751288E+00 0.41034535E+04</pdfrwt>
<pdfrwt beam="2">  1       -1 0.31379858E+00 0.41034535E+04</pdfrwt>
<totfact> 0.14717023E-01</totfact>
</mgrwt>
</event>
<event>
12    7  0.1729738E-007  0.1959915E+04  0.7818608E-02  0.8625595E-01
          2   -1    0    0  501    0  0.00000000000E+00  0.00000000000E+00  0.19614299205E+04  0.19614299205E+04  0.00000000000E+00 0. -1.
         -1   -1    0    0    0  501 -0.00000000000E+00 -0.00000000000E+00 -0.48960016154E+03  0.48960016154E+03  0.00000000000E+00 0.  1.
         24    2    1    2    0    0  0.61983335501E+02 -0.27863612742E+02  0.15584517540E+04  0.15619351994E+04  0.79065686166E+02 0.  0.
        254    2    1    2    0    0 -0.61983335501E+02  0.27863612742E+02 -0.86621995038E+02  0.88909488265E+03  0.88225167925E+03 0.  0.
         23    2    4    4    0    0  0.19923422743E+03 -0.29712322989E+03 -0.23337408564E+03  0.43790030651E+03  0.96523175827E+02 0.  0.
         23    2    4    4    0    0 -0.26121756293E+03  0.32498684263E+03  0.14675209060E+03  0.45119457614E+03  0.90494786474E+02 0.  0.
          2    1    3    3  502    0  0.25401257709E+02 -0.24803302520E+02  0.13362425829E+04  0.13367141310E+04  0.00000000000E+00 0. -1.
         -1    1    3    3    0  502  0.36582077792E+02 -0.30603102224E+01  0.22220917114E+03  0.22522106840E+03  0.00000000000E+00 0.  1.
         13    1    5    5    0    0 -0.27242533041E+01  0.16180905954E+01  0.47933944579E+01  0.57459902253E+01  0.00000000000E+00 0. -1.
        -13    1    5    5    0    0  0.20195848074E+03 -0.29874132048E+03 -0.23816748009E+03  0.43215431628E+03  0.00000000000E+00 0.  1.
          4    1    6    6  503    0  0.54327204488E+01  0.25144579067E+01 -0.30888861668E+01  0.67363319240E+01  0.00000000000E+00 0. -1.
         -4    1    6    6    0  503 -0.26665028338E+03  0.32247238473E+03  0.14984097676E+03  0.44445824422E+03  0.00000000000E+00 0.  1.
<mgrwt>
<rscale>  0 0.19599147E+04</rscale>
<asrwt>0</asrwt>
<pdfrwt beam="1">  1        2 0.30175845E+00 0.19599147E+04</pdfrwt>
<pdfrwt beam="2">  1       -1 0.75323103E-01 0.19599147E+04</pdfrwt>
<totfact> 0.13199520E+01</totfact>
</mgrwt>
</event>
<event>
12    7  0.1729738E-007  0.1303371E+04  0.7818608E-02  0.9026896E-01
          2   -1    0    0  501    0  0.00000000000E+00  0.00000000000E+00  0.25297239880E+04  0.25297239880E+04  0.00000000000E+00 0. -1.
         -1   -1    0    0    0  501 -0.00000000000E+00 -0.00000000000E+00 -0.16788153932E+03  0.16788153932E+03  0.00000000000E+00 0.  1.
         24    2    1    2    0    0 -0.64160867993E+02 -0.19530518260E+03  0.11768583209E+04  0.11973595908E+04  0.80085896682E+02 0.  0.
        254    2    1    2    0    0  0.64160867993E+02  0.19530518260E+03  0.11849841278E+04  0.15002459366E+04  0.89682203123E+03 0.  0.
         23    2    4    4    0    0 -0.15452208993E+03  0.40720779755E+03  0.10727999692E+04  0.11609919286E+04  0.85482264971E+02 0.  0.
         23    2    4    4    0    0  0.21868295793E+03 -0.21190261495E+03  0.11218415859E+03  0.33925400797E+03  0.98909262354E+02 0.  0.
          2    1    3    3  502    0 -0.31754621796E+02 -0.16724311266E+03  0.10431151771E+04  0.10569143236E+04  0.00000000000E+00 0. -1.
         -1    1    3    3    0  502 -0.32406246197E+02 -0.28062069938E+02  0.13374314384E+03  0.14044526723E+03  0.00000000000E+00 0.  1.
         13    1    5    5    0    0 -0.15671921798E+03  0.38191257584E+03  0.95364249584E+03  0.10391593423E+04  0.00000000000E+00 0. -1.
        -13    1    5    5    0    0  0.21971280505E+01  0.25295221711E+02  0.11915747339E+03  0.12183258627E+03  0.00000000000E+00 0.  1.
          3    1    6    6  503    0  0.22754948154E+03 -0.19834163607E+03  0.97030371518E+02  0.31706949419E+03  0.00000000000E+00 0. -1.
         -3    1    6    6    0  503 -0.88665236191E+01 -0.13560978882E+02  0.15153787068E+02  0.22184513784E+02  0.00000000000E+00 0.  1.
<mgrwt>
<rscale>  0 0.13033709E+04</rscale>
<asrwt>0</asrwt>
<pdfrwt beam="1">  1        2 0.38918828E+00 0.13033709E+04</pdfrwt>
<pdfrwt beam="2">  1       -1 0.25827931E-01 0.13033709E+04</pdfrwt>
<totfact> 0.49698598E+01</totfact>
</mgrwt>
</event>
<event>
12    7  0.1729738E-007  0.1959418E+04  0.7818608E-02  0.8625833E-01
         -1   -1    0    0    0  501 -0.00000000000E+00  0.00000000000E+00  0.70760265172E+03  0.70760265172E+03  0.00000000000E+00 0.  1.
          2   -1    0    0  501    0  0.00000000000E+00 -0.00000000000E+00 -0.13564528066E+04  0.13564528066E+04  0.00000000000E+00 0. -1.
         24    2    1    2    0    0  0.41797210301E+03  0.11759032919E+03  0.41139062957E+03  0.60374886904E+03  0.82111402121E+02 0.  0.
        254    2    1    2    0    0 -0.41797210301E+03 -0.11759032919E+03 -0.10602407845E+04  0.14603065893E+04  0.90545935816E+03 0.  0.
         23    2    4    4    0    0 -0.28503277775E+03 -0.34353573535E+03 -0.10584963944E+03  0.46691307783E+03  0.86851541270E+02 0.  0.
         23    2    4    4    0    0 -0.13293932526E+03  0.22594540616E+03 -0.95439114505E+03  0.99339351148E+03  0.85111809635E+02 0.  0.
          4    1    3    3  502    0  0.17580534174E+03  0.74462540864E+02  0.22525522734E+03  0.29528309403E+03  0.00000000000E+00 0. -1.
         -3    1    3    3    0  502  0.24216676127E+03  0.43127788324E+02  0.18613540222E+03  0.30846577501E+03  0.00000000000E+00 0.  1.
         13    1    5    5    0    0 -0.27325798388E+03 -0.31805050638E+03 -0.11905277405E+03  0.43588945086E+03  0.00000000000E+00 0.  1.
        -13    1    5    5    0    0 -0.11774793867E+02 -0.25485228972E+02  0.13203134614E+02  0.31023626964E+02  0.00000000000E+00 0. -1.
          3    1    6    6  503    0 -0.30063038767E+02  0.26197263825E+02 -0.66717914408E+02  0.77726205586E+02  0.00000000000E+00 0. -1.
         -3    1    6    6    0  503 -0.10287628650E+03  0.19974814234E+03 -0.88767323064E+03  0.91566730589E+03  0.00000000000E+00 0.  1.
<mgrwt>
<rscale>  0 0.19594179E+04</rscale>
<asrwt>0</asrwt>
<pdfrwt beam="1">  1        2 0.20868505E+00 0.19594179E+04</pdfrwt>
<pdfrwt beam="2">  1       -1 0.10886195E+00 0.19594179E+04</pdfrwt>
<totfact> 0.12739219E+01</totfact>
</mgrwt>
</event>
<event>
12    7  0.1729738E-007  0.1599411E+04  0.7818608E-02  0.8820910E-01
         -1   -1    0    0    0  501 -0.00000000000E+00  0.00000000000E+00  0.21945858710E+03  0.21945858710E+03  0.00000000000E+00 0.  1.
          2   -1    0    0  501    0  0.00000000000E+00 -0.00000000000E+00 -0.29141205196E+04  0.29141205196E+04  0.00000000000E+00 0. -1.
         24    2    1    2    0    0  0.19079027470E+03  0.14290261269E+02  0.69007524535E+02  0.21915493877E+03  0.81619288496E+02 0.  0.
        254    2    1    2    0    0 -0.19079027470E+03 -0.14290261269E+02 -0.27636694571E+04  0.29144241680E+04  0.90520396730E+03 0.  0.
         23    2    4    4    0    0  0.10106616125E+03 -0.16057257095E+03 -0.10357039633E+03  0.23279137916E+03  0.86412266058E+02 0.  0.
         23    2    4    4    0    0 -0.29185643596E+03  0.14628230968E+03 -0.26600990607E+04  0.26816327888E+04  0.91916852129E+02 0.  0.
          4    1    3    3  502    0  0.31486694086E+02 -0.17955196574E+02 -0.11159485441E+02  0.37925388644E+02  0.00000000000E+00 0. -1.
         -3    1    3    3    0  502  0.15930358062E+03  0.32245457843E+02  0.80167009976E+02  0.18122955012E+03  0.00000000000E+00 0.  1.
         13    1    5    5    0    0  0.98623831444E+02 -0.10114253313E+03 -0.42453611203E+02  0.14750858023E+03  0.00000000000E+00 0. -1.
        -13    1    5    5    0    0  0.24423298079E+01 -0.59430037823E+02 -0.61116785124E+02  0.85282798936E+02  0.00000000000E+00 0.  1.
          2    1    6    6  503    0 -0.28905671597E+03  0.14798523019E+03 -0.24405935046E+04  0.24621027737E+04  0.00000000000E+00 0. -1.
         -2    1    6    6    0  503 -0.27997199909E+01 -0.17029205100E+01 -0.21950555610E+03  0.21953001510E+03  0.00000000000E+00 0.  1.
<mgrwt>
<rscale>  0 0.15994109E+04</rscale>
<asrwt>0</asrwt>
<pdfrwt beam="1">  1        2 0.44832622E+00 0.15994109E+04</pdfrwt>
<pdfrwt beam="2">  1       -1 0.33762861E-01 0.15994109E+04</pdfrwt>
<totfact> 0.17889041E+01</totfact>
</mgrwt>
</event>
<event>
12    7  0.1729738E-007  0.1202092E+04  0.7818608E-02  0.9111028E-01
          2   -1    0    0  501    0  0.00000000000E+00  0.00000000000E+00  0.19893946175E+04  0.19893946175E+04  0.00000000000E+00 0. -1.
         -1   -1    0    0    0  501 -0.00000000000E+00 -0.00000000000E+00 -0.18159102002E+03  0.18159102002E+03  0.00000000000E+00 0.  1.
         24    2    1    2    0    0 -0.22660192531E+03 -0.75018971798E+02  0.56376557406E+03  0.61736923733E+03  0.79604484927E+02 0.  0.
        254    2    1    2    0    0  0.22660192531E+03  0.75018971798E+02  0.12440380234E+04  0.15536164002E+04  0.89950933099E+03 0.  0.
         23    2    4    4    0    0  0.33349142699E+03 -0.21866739702E+03  0.19082602107E+03  0.45126197434E+03  0.90503241771E+02 0.  0.
         23    2    4    4    0    0 -0.10688950167E+03  0.29368636882E+03  0.10532120024E+04  0.11023544259E+04  0.90844424676E+02 0.  0.
          2    1    3    3  502    0 -0.57671934361E+02 -0.28250136273E+02  0.78532239434E+02  0.10144670937E+03  0.00000000000E+00 0. -1.
         -1    1    3    3    0  502 -0.16892999095E+03 -0.46768835525E+02  0.48523333462E+03  0.51592252795E+03  0.00000000000E+00 0.  1.
         13    1    5    5    0    0  0.97585657323E+02 -0.35098133302E+02  0.15874357379E+02  0.10491346290E+03  0.00000000000E+00 0.  1.
        -13    1    5    5    0    0  0.23590576967E+03 -0.18356926372E+03  0.17495166369E+03  0.34634851143E+03  0.00000000000E+00 0. -1.
          3    1    6    6  503    0 -0.72147392554E+02  0.27757420491E+03  0.94529317617E+03  0.98784202907E+03  0.00000000000E+00 0. -1.
         -3    1    6    6    0  503 -0.34742109120E+02  0.16112163913E+02  0.10791882619E+03  0.11451239679E+03  0.00000000000E+00 0.  1.
<mgrwt>
<rscale>  0 0.12020918E+04</rscale>
<asrwt>0</asrwt>
<pdfrwt beam="1">  1        2 0.30606070E+00 0.12020918E+04</pdfrwt>
<pdfrwt beam="2">  1       -1 0.27937081E-01 0.12020918E+04</pdfrwt>
<totfact> 0.88094251E+01</totfact>
</mgrwt>
</event>
<event>
12    7  0.1729738E-007  0.2520134E+04  0.7818608E-02  0.8395848E-01
          2   -1    0    0  501    0  0.00000000000E+00  0.00000000000E+00  0.25071337573E+04  0.25071337573E+04  0.00000000000E+00 0. -1.
         -1   -1    0    0    0  501 -0.00000000000E+00 -0.00000000000E+00 -0.63330034915E+03  0.63330034915E+03  0.00000000000E+00 0.  1.
         24    2    1    2    0    0  0.40415061768E+03  0.32038166589E+03 -0.38858821084E+03  0.65070979599E+03  0.80251525711E+02 0.  0.
        254    2    1    2    0    0 -0.40415061768E+03 -0.32038166589E+03  0.22624216190E+04  0.24897243105E+04  0.90232667388E+03 0.  0.
         23    2    4    4    0    0 -0.23435412388E+03  0.40093499698E+02  0.19706386795E+04  0.19870305863E+04  0.91347695728E+02 0.  0.
         23    2    4    4    0    0 -0.16979649380E+03 -0.36047516559E+03  0.29178293951E+03  0.50269372421E+03  0.93757678391E+02 0.  0.
          4    1    3    3  502    0  0.44080312622E+02  0.70068575176E+02 -0.50317632634E+02  0.96873852726E+02  0.00000000000E+00 0. -1.
         -3    1    3    3    0  502  0.36007030506E+03  0.25031309072E+03 -0.33827057821E+03  0.55383594326E+03  0.00000000000E+00 0.  1.
         13    1    5    5    0    0 -0.15599126982E+03  0.29772105563E+02  0.93592979994E+03  0.94930724476E+03  0.00000000000E+00 0.  1.
        -13    1    5    5    0    0 -0.78362854061E+02  0.10321394134E+02  0.10347088796E+04  0.10377233415E+04  0.00000000000E+00 0. -1.
          4    1    6    6  503    0  0.56015257258E+01 -0.18722091283E+02  0.36700593673E+02  0.41579169886E+02  0.00000000000E+00 0.  1.
         -4    1    6    6    0  503 -0.17539801953E+03 -0.34175307431E+03  0.25508234584E+03  0.46111455432E+03  0.00000000000E+00 0. -1.
<mgrwt>
<rscale>  0 0.25201339E+04</rscale>
<asrwt>0</asrwt>
<pdfrwt beam="1">  1        2 0.38571288E+00 0.25201339E+04</pdfrwt>
<pdfrwt beam="2">  1       -1 0.97430825E-01 0.25201339E+04</pdfrwt>
<totfact> 0.35308313E+00</totfact>
</mgrwt>
</event>
<event>
12    7  0.1729738E-007  0.2677192E+04  0.7818608E-02  0.8342443E-01
          2   -1    0    0  501    0  0.00000000000E+00  0.00000000000E+00  0.23608085990E+04  0.23608085990E+04  0.00000000000E+00 0. -1.
         -1   -1    0    0    0  501 -0.00000000000E+00 -0.00000000000E+00 -0.75899391715E+03  0.75899391715E+03  0.00000000000E+00 0.  1.
         24    2    1    2    0    0  0.11387102494E+02  0.44732794501E+03  0.19919723509E+04  0.20430754144E+04  0.77274481870E+02 0.  0.
        254    2    1    2    0    0 -0.11387102494E+02 -0.44732794501E+03 -0.39015766908E+03  0.10767271018E+04  0.89826849462E+03 0.  0.
         23    2    4    4    0    0 -0.45668459778E+02 -0.52439023206E+03 -0.61920105858E+03  0.81774317290E+03  0.90681983738E+02 0.  0.
         23    2    4    4    0    0  0.34281357284E+02  0.77062287051E+02  0.22904338949E+03  0.25898392886E+03  0.86590955626E+02 0.  0.
          2    1    3    3  502    0  0.38814067360E+02  0.34912077601E+03  0.15942651059E+04  0.16325051534E+04  0.00000000000E+00 0. -1.
         -1    1    3    3    0  502 -0.27426964866E+02  0.98207169004E+02  0.39770724506E+03  0.41057026101E+03  0.00000000000E+00 0.  1.
         13    1    5    5    0    0 -0.43520224559E+01 -0.44133273751E+03 -0.51340974314E+03  0.67703994686E+03  0.00000000000E+00 0. -1.
        -13    1    5    5    0    0 -0.41316437322E+02 -0.83057494557E+02 -0.10579131543E+03  0.14070322603E+03  0.00000000000E+00 0.  1.
          1    1    6    6  503    0  0.25106396557E+02  0.85918818046E+02  0.12270945414E+03  0.15188806595E+03  0.00000000000E+00 0. -1.
         -1    1    6    6    0  503  0.91749607272E+01 -0.88565309955E+01  0.10633393535E+03  0.10709586291E+03  0.00000000000E+00 0.  1.
<mgrwt>
<rscale>  0 0.26771921E+04</rscale>
<asrwt>0</asrwt>
<pdfrwt beam="1">  1        2 0.36320132E+00 0.26771921E+04</pdfrwt>
<pdfrwt beam="2">  1       -1 0.11676830E+00 0.26771921E+04</pdfrwt>
<totfact> 0.27677912E+00</totfact>
</mgrwt>
</event>
<event>
12    7  0.1729738E-007  0.1501306E+04  0.7818608E-02  0.8883585E-01
         -1   -1    0    0    0  501 -0.00000000000E+00  0.00000000000E+00  0.31446219175E+03  0.31446219175E+03  0.00000000000E+00 0.  1.
          2   -1    0    0  501    0  0.00000000000E+00 -0.00000000000E+00 -0.17918841376E+04  0.17918841376E+04  0.00000000000E+00 0. -1.
         24    2    1    2    0    0 -0.41747863778E+03  0.21046688482E+03 -0.33843651887E+03  0.58276631425E+03  0.80576529500E+02 0.  0.
        254    2    1    2    0    0  0.41747863778E+03 -0.21046688482E+03 -0.11389854270E+04  0.15235800151E+04  0.89745391910E+03 0.  0.
         23    2    4    4    0    0  0.44446963023E+03  0.24667509655E+03 -0.76869872563E+03  0.92596724921E+03  0.90087515015E+02 0.  0.
         23    2    4    4    0    0 -0.26990992445E+02 -0.45714198137E+03 -0.37028670134E+03  0.59761276588E+03  0.10159464528E+03 0.  0.
          4    1    3    3  502    0 -0.13693746584E+02 -0.72543534555E+01 -0.82891055460E+01  0.17574231429E+02  0.00000000000E+00 0. -1.
         -3    1    3    3    0  502 -0.40378489120E+03  0.21772123827E+03 -0.33014741333E+03  0.56519208282E+03  0.00000000000E+00 0.  1.
         13    1    5    5    0    0  0.36310378573E+03  0.15974433038E+03 -0.60793128366E+03  0.72590843496E+03  0.00000000000E+00 0.  1.
        -13    1    5    5    0    0  0.81365844503E+02  0.86930766172E+02 -0.16076744197E+03  0.20005881425E+03  0.00000000000E+00 0. -1.
          3    1    6    6  503    0 -0.11949908969E+02 -0.43577690795E+02 -0.80790634214E+02  0.92568580177E+02  0.00000000000E+00 0. -1.
         -3    1    6    6    0  503 -0.15041083476E+02 -0.41356429057E+03 -0.28949606713E+03  0.50504418570E+03  0.00000000000E+00 0.  1.
<mgrwt>
<rscale>  0 0.15013058E+04</rscale>
<asrwt>0</asrwt>
<pdfrwt beam="1">  1        2 0.27567449E+00 0.15013058E+04</pdfrwt>
<pdfrwt beam="2">  1       -1 0.48378798E-01 0.15013058E+04</pdfrwt>
<totfact> 0.41006844E+01</totfact>
</mgrwt>
</event>
<event>
12    7  0.1729738E-007  0.1265082E+04  0.7818608E-02  0.9057723E-01
          2   -1    0    0  501    0  0.00000000000E+00  0.00000000000E+00  0.77890888594E+03  0.77890888594E+03  0.00000000000E+00 0. -1.
         -1   -1    0    0    0  501 -0.00000000000E+00 -0.00000000000E+00 -0.51367804694E+03  0.51367804694E+03  0.00000000000E+00 0.  1.
         24    2    1    2    0    0 -0.11600467171E+03 -0.21358548045E+03 -0.13510737489E+03  0.28924149773E+03  0.79566324166E+02 0.  0.
        254    2    1    2    0    0  0.11600467171E+03  0.21358548045E+03  0.40033821388E+03  0.10033454352E+04  0.88733056717E+03 0.  0.
         23    2    4    4    0    0 -0.30451897638E+03 -0.12695696760E+03  0.30142474744E+02  0.34189116652E+03  0.84445973025E+02 0.  0.
         23    2    4    4    0    0  0.42052364809E+03  0.34054244805E+03  0.37019573914E+03  0.66145426864E+03  0.87564642972E+02 0.  0.
          4    1    3    3  502    0 -0.63084237968E+02 -0.11373340714E+03 -0.26959234657E+02  0.13282209648E+03  0.00000000000E+00 0. -1.
         -3    1    3    3    0  502 -0.52920433741E+02 -0.99852073310E+02 -0.10814814023E+03  0.15641940125E+03  0.00000000000E+00 0.  1.
         13    1    5    5    0    0 -0.53178604726E+02  0.18470306635E+01  0.26502081227E+02  0.59445233890E+02  0.00000000000E+00 0.  1.
        -13    1    5    5    0    0 -0.25134037165E+03 -0.12880399827E+03  0.36403935168E+01  0.28244593263E+03  0.00000000000E+00 0. -1.
          1    1    6    6  503    0  0.37567923670E+03  0.28271057333E+03  0.34810728375E+03  0.58501182736E+03  0.00000000000E+00 0. -1.
         -1    1    6    6    0  503  0.44844411392E+02  0.57831874719E+02  0.22088455395E+02  0.76442441277E+02  0.00000000000E+00 0.  1.
<mgrwt>
<rscale>  0 0.12650824E+04</rscale>
<asrwt>0</asrwt>
<pdfrwt beam="1">  1        2 0.11983214E+00 0.12650824E+04</pdfrwt>
<pdfrwt beam="2">  1       -1 0.79027392E-01 0.12650824E+04</pdfrwt>
<totfact> 0.64126248E+01</totfact>
</mgrwt>
</event>
<event>
12    7  0.1729738E-007  0.1447882E+04  0.7818608E-02  0.8919870E-01
         -1   -1    0    0    0  501 -0.00000000000E+00  0.00000000000E+00  0.80416634429E+03  0.80416634429E+03  0.00000000000E+00 0.  1.
          2   -1    0    0  501    0  0.00000000000E+00 -0.00000000000E+00 -0.65171886406E+03  0.65171886406E+03  0.00000000000E+00 0. -1.
         24    2    1    2    0    0 -0.10652092615E+03 -0.11534782611E+03 -0.36593646061E+03  0.40558608979E+03  0.77063313806E+02 0.  0.
        254    2    1    2    0    0  0.10652092615E+03  0.11534782611E+03  0.51838394084E+03  0.10502991186E+04  0.89986360058E+03 0.  0.
         23    2    4    4    0    0  0.35702515777E+03  0.38576203081E+03  0.29245358845E+03  0.60855727088E+03  0.92377177075E+02 0.  0.
         23    2    4    4    0    0 -0.25050423163E+03 -0.27041420470E+03  0.22593035239E+03  0.44174184769E+03  0.90637319585E+02 0.  0.
          4    1    3    3  502    0 -0.92786247707E+02 -0.10831458605E+03 -0.36281735023E+03  0.38984325945E+03  0.00000000000E+00 0. -1.
         -3    1    3    3    0  502 -0.13734678440E+02 -0.70332400544E+01 -0.31191103827E+01  0.15742830339E+02  0.00000000000E+00 0.  1.
         13    1    5    5    0    0  0.30315015670E+03  0.34438594003E+03  0.21862114966E+03  0.50822918086E+03  0.00000000000E+00 0.  1.
        -13    1    5    5    0    0  0.53875001071E+02  0.41376090771E+02  0.73832438792E+02  0.10032809001E+03  0.00000000000E+00 0. -1.
          3    1    6    6  503    0 -0.17524187911E+02  0.26081591230E+01  0.15298795153E+00  0.17717874062E+02  0.00000000000E+00 0. -1.
         -3    1    6    6    0  503 -0.23298004372E+03 -0.27302236382E+03  0.22577736444E+03  0.42402397363E+03  0.00000000000E+00 0.  1.
<mgrwt>
<rscale>  0 0.14478817E+04</rscale>
<asrwt>0</asrwt>
<pdfrwt beam="1">  1        2 0.10026444E+00 0.14478817E+04</pdfrwt>
<pdfrwt beam="2">  1       -1 0.12371790E+00 0.14478817E+04</pdfrwt>
<totfact> 0.28521631E+01</totfact>
</mgrwt>
</event>
<event>
12    7  0.1729738E-007  0.1726122E+04  0.7818608E-02  0.8746604E-01
         -1   -1    0    0    0  501 -0.00000000000E+00  0.00000000000E+00  0.42652983608E+03  0.42652983608E+03  0.00000000000E+00 0.  1.
          2   -1    0    0  501    0  0.00000000000E+00 -0.00000000000E+00 -0.17463598835E+04  0.17463598835E+04  0.00000000000E+00 0. -1.
         24    2    1    2    0    0  0.81868548737E+02 -0.27197854225E+03 -0.11679025569E+04  0.12048648956E+04  0.83834644004E+02 0.  0.
        254    2    1    2    0    0 -0.81868548737E+02  0.27197854225E+03 -0.15192749051E+03  0.96802482396E+03  0.91286105772E+03 0.  0.
         23    2    4    4    0    0  0.22133987553E+02  0.49055701414E+03  0.19455206939E+03  0.53579839502E+03  0.89962852764E+02 0.  0.
         23    2    4    4    0    0 -0.10400253629E+03 -0.21857847189E+03 -0.34647955990E+03  0.43222642894E+03  0.90435195112E+02 0.  0.
          4    1    3    3  502    0  0.84659658879E+02 -0.14444420109E+03 -0.60954229269E+03  0.63211802035E+03  0.00000000000E+00 0. -1.
         -3    1    3    3    0  502 -0.27911101420E+01 -0.12753434116E+03 -0.55836026419E+03  0.57274687524E+03  0.00000000000E+00 0.  1.
         13    1    5    5    0    0  0.34559114576E+02  0.39503459116E+03  0.12097598153E+03  0.41458635858E+03  0.00000000000E+00 0.  1.
        -13    1    5    5    0    0 -0.12425127023E+02  0.95522422978E+02  0.73576087862E+02  0.12121203644E+03  0.00000000000E+00 0. -1.
          4    1    6    6  503    0 -0.32508852669E+02 -0.14690471460E+03 -0.25341266419E+03  0.29471307919E+03  0.00000000000E+00 0. -1.
         -4    1    6    6    0  503 -0.71493683622E+02 -0.71673757287E+02 -0.93066895711E+02  0.13751334975E+03  0.00000000000E+00 0.  1.
<mgrwt>
<rscale>  0 0.17261224E+04</rscale>
<asrwt>0</asrwt>
<pdfrwt beam="1">  1        2 0.26867076E+00 0.17261224E+04</pdfrwt>
<pdfrwt beam="2">  1       -1 0.65619973E-01 0.17261224E+04</pdfrwt>
<totfact> 0.23531435E+01</totfact>
</mgrwt>
</event>
<event>
12    7  0.1729738E-007  0.1206068E+04  0.7818608E-02  0.9107561E-01
         -1   -1    0    0    0  501 -0.00000000000E+00  0.00000000000E+00  0.79699413664E+03  0.79699413664E+03  0.00000000000E+00 0.  1.
          2   -1    0    0  501    0  0.00000000000E+00 -0.00000000000E+00 -0.45627718880E+03  0.45627718880E+03  0.00000000000E+00 0. -1.
         24    2    1    2    0    0  0.44714349865E+02 -0.11003050806E+02 -0.18875298593E+03  0.20958227395E+03  0.78591345859E+02 0.  0.
        254    2    1    2    0    0 -0.44714349865E+02  0.11003050806E+02  0.52946993377E+03  0.10436890515E+04  0.89823604093E+03 0.  0.
         23    2    4    4    0    0  0.41514407080E+03 -0.11491973474E+02  0.29289938839E+03  0.51621305612E+03  0.90604650061E+02 0.  0.
         23    2    4    4    0    0 -0.45985842066E+03  0.22495024280E+02  0.23657054538E+03  0.52747599538E+03  0.10143721994E+03 0.  0.
          4    1    3    3  502    0  0.34449269366E+01  0.22218562145E+02 -0.12349974178E+03  0.12552975044E+03  0.00000000000E+00 0. -1.
         -3    1    3    3    0  502  0.41269422929E+02 -0.33221612951E+02 -0.65253244152E+02  0.84052523509E+02  0.00000000000E+00 0.  1.
         13    1    5    5    0    0  0.30579861687E+03  0.31367579426E+02  0.20437913747E+03  0.36914434975E+03  0.00000000000E+00 0.  1.
        -13    1    5    5    0    0  0.10934545393E+03 -0.42859552900E+02  0.88520250925E+02  0.14706870637E+03  0.00000000000E+00 0. -1.
          4    1    6    6  503    0 -0.32070660157E+03  0.57084139059E+02  0.18789464849E+03  0.37605281830E+03  0.00000000000E+00 0. -1.
         -4    1    6    6    0  503 -0.13915181909E+03 -0.34589114779E+02  0.48675896887E+02  0.15142317708E+03  0.00000000000E+00 0.  1.
<mgrwt>
<rscale>  0 0.12060684E+04</rscale>
<asrwt>0</asrwt>
<pdfrwt beam="1">  1        2 0.70196491E-01 0.12060684E+04</pdfrwt>
<pdfrwt beam="2">  1       -1 0.12261448E+00 0.12060684E+04</pdfrwt>
<totfact> 0.45360614E+01</totfact>
</mgrwt>
</event>
<event>
12    7  0.1729738E-007  0.2731336E+04  0.7818608E-02  0.8324908E-01
          2   -1    0    0  501    0  0.00000000000E+00  0.00000000000E+00  0.10405681098E+04  0.10405681098E+04  0.00000000000E+00 0. -1.
         -1   -1    0    0    0  501 -0.00000000000E+00 -0.00000000000E+00 -0.17923379693E+04  0.17923379693E+04  0.00000000000E+00 0.  1.
         24    2    1    2    0    0 -0.81618222885E+03  0.85626835520E+03 -0.36228726694E+02  0.11862017770E+04  0.80082508826E+02 0.  0.
        254    2    1    2    0    0  0.81618222885E+03 -0.85626835520E+03 -0.71554113283E+03  0.16467043022E+04  0.89458762520E+03 0.  0.
         23    2    4    4    0    0  0.92694568976E+03 -0.93467817876E+03 -0.62901328988E+03  0.14618695334E+04  0.92483534424E+02 0.  0.
         23    2    4    4    0    0 -0.11076346091E+03  0.78409823554E+02 -0.86527842952E+02  0.18483476879E+03  0.90885529354E+02 0.  0.
          2    1    3    3  502    0 -0.80716684302E+03  0.83592888531E+03 -0.43383432396E+02  0.11628316886E+04  0.00000000000E+00 0. -1.
         -1    1    3    3    0  502 -0.90153858272E+01  0.20339469890E+02  0.71547057019E+01  0.23370088376E+02  0.00000000000E+00 0.  1.
         13    1    5    5    0    0  0.22664064240E+03 -0.17448500260E+03 -0.13695833032E+03  0.31712549750E+03  0.00000000000E+00 0. -1.
        -13    1    5    5    0    0  0.70030504735E+03 -0.76019317616E+03 -0.49205495955E+03  0.11447440359E+04  0.00000000000E+00 0.  1.
          1    1    6    6  503    0 -0.73713778033E+02  0.17753120802E+01 -0.18898849074E+02  0.76118587094E+02  0.00000000000E+00 0. -1.
         -1    1    6    6    0  503 -0.37049682877E+02  0.76634511474E+02 -0.67628993877E+02  0.10871618170E+03  0.00000000000E+00 0.  1.
<mgrwt>
<rscale>  0 0.27313365E+04</rscale>
<asrwt>0</asrwt>
<pdfrwt beam="1">  1        2 0.16008740E+00 0.27313365E+04</pdfrwt>
<pdfrwt beam="2">  1       -1 0.27574430E+00 0.27313365E+04</pdfrwt>
<totfact> 0.11224017E+00</totfact>
</mgrwt>
</event>
<event>
12    7  0.1729738E-007  0.1886756E+04  0.7818608E-02  0.8661477E-01
          2   -1    0    0  501    0  0.00000000000E+00  0.00000000000E+00  0.17963065793E+04  0.17963065793E+04  0.00000000000E+00 0. -1.
         -1   -1    0    0    0  501 -0.00000000000E+00 -0.00000000000E+00 -0.49544001391E+03  0.49544001391E+03  0.00000000000E+00 0.  1.
         24    2    1    2    0    0  0.18752353799E+03 -0.68518402392E+03  0.49093419504E+03  0.86644669784E+03  0.71212866760E+02 0.  0.
        254    2    1    2    0    0 -0.18752353799E+03  0.68518402392E+03  0.80993237038E+03  0.14252998954E+04  0.93319190058E+03 0.  0.
         23    2    4    4    0    0 -0.15650892767E+02  0.88444875766E+03  0.67122896018E+03  0.11142823669E+04  0.92640816073E+02 0.  0.
         23    2    4    4    0    0 -0.17187264522E+03 -0.19926473373E+03  0.13870341020E+03  0.31101752852E+03  0.90810939653E+02 0.  0.
          4    1    3    3  502    0  0.14580790992E+03 -0.49744401880E+03  0.39379572978E+03  0.65098815291E+03  0.00000000000E+00 0. -1.
         -3    1    3    3    0  502  0.41715628070E+02 -0.18774000512E+03  0.97138465256E+02  0.21545854492E+03  0.00000000000E+00 0.  1.
         13    1    5    5    0    0  0.22200151365E+02  0.23773268378E+03  0.14228369332E+03  0.27794662265E+03  0.00000000000E+00 0. -1.
        -13    1    5    5    0    0 -0.37851044131E+02  0.64671607387E+03  0.52894526685E+03  0.83633574423E+03  0.00000000000E+00 0.  1.
          3    1    6    6  503    0 -0.34792434420E+02 -0.11335440794E+01  0.32837363392E+02  0.47854893685E+02  0.00000000000E+00 0. -1.
         -3    1    6    6    0  503 -0.13708021080E+03 -0.19813118965E+03  0.10586604681E+03  0.26316263483E+03  0.00000000000E+00 0.  1.
<mgrwt>
<rscale>  0 0.18867561E+04</rscale>
<asrwt>0</asrwt>
<pdfrwt beam="1">  1        2 0.27635485E+00 0.18867561E+04</pdfrwt>
<pdfrwt beam="2">  1       -1 0.76221542E-01 0.18867561E+04</pdfrwt>
<totfact> 0.15998235E+01</totfact>
</mgrwt>
</event>
<event>
12    7  0.1729738E-007  0.2590644E+04  0.7818608E-02  0.8371386E-01
         -1   -1    0    0    0  501 -0.00000000000E+00  0.00000000000E+00  0.39867101043E+03  0.39867101043E+03  0.00000000000E+00 0.  1.
          2   -1    0    0  501    0  0.00000000000E+00 -0.00000000000E+00 -0.42086319351E+04  0.42086319351E+04  0.00000000000E+00 0. -1.
         24    2    1    2    0    0  0.31423030867E+03  0.27379207297E+03  0.20528291861E+03  0.47166796614E+03  0.81405205621E+02 0.  0.
        254    2    1    2    0    0 -0.31423030867E+03 -0.27379207297E+03 -0.40152438433E+04  0.41356349794E+04  0.89866054525E+03 0.  0.
         23    2    4    4    0    0 -0.23945847753E+03 -0.57980672653E+03 -0.30775256556E+04  0.31421217801E+04  0.90823550708E+02 0.  0.
         23    2    4    4    0    0 -0.74771831134E+02  0.30601465357E+03 -0.93771818771E+03  0.99351319934E+03  0.92289125924E+02 0.  0.
          2    1    3    3  502    0  0.47610119071E+02  0.11462434641E+02  0.37721114586E+02  0.61814183902E+02  0.00000000000E+00 0. -1.
         -1    1    3    3    0  502  0.26662018960E+03  0.26232963833E+03  0.16756180403E+03  0.40985378224E+03  0.00000000000E+00 0.  1.
         13    1    5    5    0    0 -0.75643316463E+01 -0.54612126304E+02 -0.39653734857E+03  0.40035181061E+03  0.00000000000E+00 0.  1.
        -13    1    5    5    0    0 -0.23189414589E+03 -0.52519460023E+03 -0.26809883070E+04  0.27417699695E+04  0.00000000000E+00 0. -1.
          3    1    6    6  503    0 -0.84301975516E+01  0.18245485751E+03 -0.43974665972E+03  0.47617010405E+03  0.00000000000E+00 0. -1.
         -3    1    6    6    0  503 -0.66341633583E+02  0.12355979606E+03 -0.49797152799E+03  0.51734309528E+03  0.00000000000E+00 0.  1.
<mgrwt>
<rscale>  0 0.25906444E+04</rscale>
<asrwt>0</asrwt>
<pdfrwt beam="1">  1        2 0.64748184E+00 0.25906444E+04</pdfrwt>
<pdfrwt beam="2">  1       -1 0.61334002E-01 0.25906444E+04</pdfrwt>
<totfact> 0.62230164E-01</totfact>
</mgrwt>
</event>
<event>
12    7  0.1729738E-007  0.1572623E+04  0.7818608E-02  0.8837545E-01
          2   -1    0    0  501    0  0.00000000000E+00  0.00000000000E+00  0.15531273453E+04  0.15531273453E+04  0.00000000000E+00 0. -1.
         -1   -1    0    0    0  501 -0.00000000000E+00 -0.00000000000E+00 -0.39809087695E+03  0.39809087695E+03  0.00000000000E+00 0.  1.
         24    2    1    2    0    0  0.62213139092E+02 -0.14301094319E+03 -0.23468341886E+03  0.29381408020E+03  0.83233419298E+02 0.  0.
        254    2    1    2    0    0 -0.62213139092E+02  0.14301094319E+03  0.13897198872E+04  0.16574041421E+04  0.88957547216E+03 0.  0.
         23    2    4    4    0    0  0.40047346748E+03  0.60224064262E+01  0.60284575779E+03  0.72950538962E+03  0.91322714936E+02 0.  0.
         23    2    4    4    0    0 -0.46268660657E+03  0.13698853677E+03  0.78687412942E+03  0.92789875244E+03  0.94765205238E+02 0.  0.
          2    1    3    3  502    0  0.17207241559E+01 -0.65434943774E+02 -0.15131284401E+03  0.16486439738E+03  0.00000000000E+00 0. -1.
         -1    1    3    3    0  502  0.60492414936E+02 -0.77575999419E+02 -0.83370574844E+02  0.12894968282E+03  0.00000000000E+00 0.  1.
         13    1    5    5    0    0  0.15913143121E+03  0.29701342043E+02  0.30616476325E+03  0.34632621093E+03  0.00000000000E+00 0.  1.
        -13    1    5    5    0    0  0.24134203627E+03 -0.23678935617E+02  0.29668099453E+03  0.38317917869E+03  0.00000000000E+00 0. -1.
          1    1    6    6  503    0 -0.30225555463E+02  0.31947052960E+02  0.10267195186E+03  0.11169479887E+03  0.00000000000E+00 0. -1.
         -1    1    6    6    0  503 -0.43246105111E+03  0.10504148381E+03  0.68420217756E+03  0.81620395357E+03  0.00000000000E+00 0.  1.
<mgrwt>
<rscale>  0 0.15726231E+04</rscale>
<asrwt>0</asrwt>
<pdfrwt beam="1">  1        2 0.23894267E+00 0.15726231E+04</pdfrwt>
<pdfrwt beam="2">  1       -1 0.61244751E-01 0.15726231E+04</pdfrwt>
<totfact> 0.35074684E+01</totfact>
</mgrwt>
</event>
<event>
12    7  0.1729738E-007  0.1530983E+04  0.7818608E-02  0.8864107E-01
         -1   -1    0    0    0  501 -0.00000000000E+00  0.00000000000E+00  0.11383620284E+04  0.11383620284E+04  0.00000000000E+00 0.  1.
          2   -1    0    0  501    0  0.00000000000E+00 -0.00000000000E+00 -0.51475480492E+03  0.51475480492E+03  0.00000000000E+00 0. -1.
         24    2    1    2    0    0 -0.26742130138E+03 -0.35384931415E+03 -0.50168090268E+02  0.45343884754E+03  0.79790109809E+02 0.  0.
        254    2    1    2    0    0  0.26742130138E+03  0.35384931415E+03  0.67377531376E+03  0.11996779858E+04  0.88799245864E+03 0.  0.
         23    2    4    4    0    0  0.53339635809E+03  0.16172848789E+03  0.64628712596E+03  0.85836119994E+03  0.91810248712E+02 0.  0.
         23    2    4    4    0    0 -0.26597505671E+03  0.19212082626E+03  0.27488187802E+02  0.34131678585E+03  0.89935561165E+02 0.  0.
          2    1    3    3  502    0 -0.22466582492E+03 -0.28375994550E+03 -0.70786009824E+02  0.36878869118E+03  0.00000000000E+00 0. -1.
         -1    1    3    3    0  502 -0.42755476462E+02 -0.70089368651E+02  0.20617919555E+02  0.84650156362E+02  0.00000000000E+00 0.  1.
         13    1    5    5    0    0  0.12112726466E+03  0.31012013450E+01  0.17001623389E+03  0.20877488230E+03  0.00000000000E+00 0.  1.
        -13    1    5    5    0    0  0.41226909343E+03  0.15862728655E+03  0.47627089207E+03  0.64958631764E+03  0.00000000000E+00 0. -1.
          1    1    6    6  503    0 -0.75837773912E+02  0.14637482447E+02 -0.12233279472E+02  0.78200236387E+02  0.00000000000E+00 0. -1.
         -1    1    6    6    0  503 -0.19013728280E+03  0.17748334381E+03  0.39721467274E+02  0.26311654947E+03  0.00000000000E+00 0.  1.
<mgrwt>
<rscale>  0 0.15309831E+04</rscale>
<asrwt>0</asrwt>
<pdfrwt beam="1">  1        2 0.79193047E-01 0.15309831E+04</pdfrwt>
<pdfrwt beam="2">  1       -1 0.17513262E+00 0.15309831E+04</pdfrwt>
<totfact> 0.14800899E+01</totfact>
</mgrwt>
</event>
<event>
12    7  0.1729738E-007  0.1791622E+04  0.7818608E-02  0.8710768E-01
         -1   -1    0    0    0  501 -0.00000000000E+00  0.00000000000E+00  0.52549159351E+03  0.52549159351E+03  0.00000000000E+00 0.  1.
          2   -1    0    0  501    0  0.00000000000E+00 -0.00000000000E+00 -0.15270975502E+04  0.15270975502E+04  0.00000000000E+00 0. -1.
         24    2    1    2    0    0 -0.31096200435E+03 -0.15479929454E+03  0.27891302830E+03  0.45307936723E+03  0.82633201031E+02 0.  0.
        254    2    1    2    0    0  0.31096200435E+03  0.15479929454E+03 -0.12805189850E+04  0.15995097765E+04  0.89333222509E+03 0.  0.
         23    2    4    4    0    0 -0.46377982584E+02  0.46226815874E+03 -0.55797191192E+03  0.73189561005E+03  0.92172456069E+02 0.  0.
         23    2    4    4    0    0  0.35733998693E+03 -0.30746886420E+03 -0.72254707310E+03  0.86761416645E+03  0.91929866077E+02 0.  0.
          2    1    3    3  502    0 -0.10687699191E+03 -0.14142186329E+02  0.66627703083E+02  0.12673572366E+03  0.00000000000E+00 0. -1.
         -1    1    3    3    0  502 -0.20408501244E+03 -0.14065710821E+03  0.21228532522E+03  0.32634364357E+03  0.00000000000E+00 0.  1.
         13    1    5    5    0    0 -0.26058668377E+02  0.13364018987E+03 -0.22924971753E+03  0.26663493307E+03  0.00000000000E+00 0.  1.
        -13    1    5    5    0    0 -0.20319314207E+02  0.32862796887E+03 -0.32872219439E+03  0.46526067698E+03  0.00000000000E+00 0. -1.
          4    1    6    6  503    0  0.30256973415E+03 -0.29007376619E+03 -0.66647304254E+03  0.78732302792E+03  0.00000000000E+00 0. -1.
         -4    1    6    6    0  503  0.54770252783E+02 -0.17395098009E+02 -0.56074030556E+02  0.80291138536E+02  0.00000000000E+00 0.  1.
<mgrwt>
<rscale>  0 0.17916215E+04</rscale>
<asrwt>0</asrwt>
<pdfrwt beam="1">  1        2 0.23493809E+00 0.17916215E+04</pdfrwt>
<pdfrwt beam="2">  1       -1 0.80844860E-01 0.17916215E+04</pdfrwt>
<totfact> 0.20119528E+01</totfact>
</mgrwt>
</event>
<event>
12    7  0.1729738E-007  0.2037372E+04  0.7818608E-02  0.8589345E-01
         -1   -1    0    0    0  501 -0.00000000000E+00  0.00000000000E+00  0.28022472715E+03  0.28022472715E+03  0.00000000000E+00 0.  1.
          2   -1    0    0  501    0  0.00000000000E+00 -0.00000000000E+00 -0.37031735641E+04  0.37031735641E+04  0.00000000000E+00 0. -1.
         24    2    1    2    0    0  0.37056592388E+03  0.21464065162E+03 -0.27883053605E+04  0.28221207404E+04  0.79554865464E+02 0.  0.
        254    2    1    2    0    0 -0.37056592388E+03 -0.21464065162E+03 -0.63464347644E+03  0.11612775509E+04  0.87315719928E+03 0.  0.
         23    2    4    4    0    0 -0.14576964724E+03 -0.14682090265E+03 -0.81898543778E+03  0.84963188784E+03  0.91279954127E+02 0.  0.
         23    2    4    4    0    0 -0.22479627664E+03 -0.67819748974E+02  0.18434196134E+03  0.31164566302E+03  0.89488413914E+02 0.  0.
          2    1    3    3  502    0  0.18309766532E+03  0.15139687415E+03 -0.14862898090E+04  0.15051588504E+04  0.00000000000E+00 0. -1.
         -1    1    3    3    0  502  0.18746825856E+03  0.63243777467E+02 -0.13020155515E+04  0.13169618900E+04  0.00000000000E+00 0.  1.
         13    1    5    5    0    0 -0.15342668106E+02  0.47866741157E+01 -0.16423296926E+03  0.16501750787E+03  0.00000000000E+00 0. -1.
        -13    1    5    5    0    0 -0.13042697914E+03 -0.15160757676E+03 -0.65475246852E+03  0.68461437996E+03  0.00000000000E+00 0.  1.
          2    1    6    6  503    0 -0.29887907616E+02 -0.46368456172E+02  0.42387677684E+02  0.69570367031E+02  0.00000000000E+00 0. -1.
         -2    1    6    6    0  503 -0.19490836902E+03 -0.21451292802E+02  0.14195428365E+03  0.24207529599E+03  0.00000000000E+00 0.  1.
<mgrwt>
<rscale>  0 0.20373716E+04</rscale>
<asrwt>0</asrwt>
<pdfrwt beam="1">  1        2 0.56971893E+00 0.20373716E+04</pdfrwt>
<pdfrwt beam="2">  1       -1 0.43111503E-01 0.20373716E+04</pdfrwt>
<totfact> 0.32691010E+00</totfact>
</mgrwt>
</event>
<event>
12    7  0.1729738E-007  0.1770844E+04  0.7818608E-02  0.8721960E-01
         -1   -1    0    0    0  501 -0.00000000000E+00  0.00000000000E+00  0.18046127798E+04  0.18046127798E+04  0.00000000000E+00 0.  1.
          2   -1    0    0  501    0  0.00000000000E+00 -0.00000000000E+00 -0.43442664168E+03  0.43442664168E+03  0.00000000000E+00 0. -1.
         24    2    1    2    0    0 -0.59743010698E+03 -0.10707810645E+03  0.81668968895E+03  0.10207286043E+04  0.80724110264E+02 0.  0.
        254    2    1    2    0    0  0.59743010698E+03  0.10707810645E+03  0.55349644920E+03  0.12183108172E+04  0.89974133752E+03 0.  0.
         23    2    4    4    0    0  0.66876038884E+03  0.52851315482E+01  0.32985632341E+02  0.67547020162E+03  0.88901918068E+02 0.  0.
         23    2    4    4    0    0 -0.71330281861E+02  0.10179297490E+03  0.52051081685E+03  0.54284061559E+03  0.91074719983E+02 0.  0.
          4    1    3    3  502    0 -0.81205516224E+02 -0.43347530642E+02  0.12949738977E+03  0.15888020089E+03  0.00000000000E+00 0. -1.
         -3    1    3    3    0  502 -0.51622459076E+03 -0.63730575804E+02  0.68719229918E+03  0.86184840340E+03  0.00000000000E+00 0.  1.
         13    1    5    5    0    0  0.66948662860E+03  0.99439885243E+01  0.34684831217E+02  0.67045825097E+03  0.00000000000E+00 0. -1.
        -13    1    5    5    0    0 -0.72623975414E+00 -0.46588569761E+01 -0.16991988754E+01  0.50119506505E+01  0.00000000000E+00 0.  1.
          4    1    6    6  503    0 -0.87877501690E+02  0.60635161449E+02  0.31517141812E+03  0.33276433239E+03  0.00000000000E+00 0. -1.
         -4    1    6    6    0  503  0.16547219829E+02  0.41157813449E+02  0.20533939873E+03  0.21007628320E+03  0.00000000000E+00 0.  1.
<mgrwt>
<rscale>  0 0.17708437E+04</rscale>
<asrwt>0</asrwt>
<pdfrwt beam="1">  1        2 0.66834869E-01 0.17708437E+04</pdfrwt>
<pdfrwt beam="2">  1       -1 0.27763273E+00 0.17708437E+04</pdfrwt>
<totfact> 0.36137619E+00</totfact>
</mgrwt>
</event>
<event>
12    7  0.1729738E-007  0.1436123E+04  0.7818608E-02  0.8928078E-01
         -1   -1    0    0    0  501 -0.00000000000E+00  0.00000000000E+00  0.30888827474E+03  0.30888827474E+03  0.00000000000E+00 0.  1.
          2   -1    0    0  501    0  0.00000000000E+00 -0.00000000000E+00 -0.16692510760E+04  0.16692510760E+04  0.00000000000E+00 0. -1.
         24    2    1    2    0    0 -0.81915885897E+02 -0.27133936363E+03 -0.85921086005E+03  0.90821935946E+03  0.79270677079E+02 0.  0.
        254    2    1    2    0    0  0.81915885897E+02  0.27133936363E+03 -0.50115194120E+03  0.10699199913E+04  0.90179834606E+03 0.  0.
         23    2    4    4    0    0  0.11757003091E+03 -0.28887949566E+03 -0.35601652637E+03  0.48218016292E+03  0.92064473505E+02 0.  0.
         23    2    4    4    0    0 -0.35654145013E+02  0.56021885929E+03 -0.14513541483E+03  0.58773982836E+03  0.96215533276E+02 0.  0.
          4    1    3    3  502    0 -0.41720724750E+02 -0.97285208338E+02 -0.43963789069E+03  0.45220184163E+03  0.00000000000E+00 0. -1.
         -3    1    3    3    0  502 -0.40195161146E+02 -0.17405415529E+03 -0.41957296936E+03  0.45601751783E+03  0.00000000000E+00 0.  1.
         13    1    5    5    0    0 -0.27712699772E+01  0.38745489935E+01  0.11935303838E+01  0.49108636681E+01  0.00000000000E+00 0.  1.
        -13    1    5    5    0    0  0.12034130089E+03 -0.29275404465E+03 -0.35721005675E+03  0.47726929925E+03  0.00000000000E+00 0. -1.
          2    1    6    6  503    0 -0.41519831885E+02  0.46130125342E+03 -0.82343866881E+02  0.47042879936E+03  0.00000000000E+00 0. -1.
         -2    1    6    6    0  503  0.58656868724E+01  0.98917605866E+02 -0.62791547946E+02  0.11731102901E+03  0.00000000000E+00 0.  1.
<mgrwt>
<rscale>  0 0.14361227E+04</rscale>
<asrwt>0</asrwt>
<pdfrwt beam="1">  1        2 0.25680786E+00 0.14361227E+04</pdfrwt>
<pdfrwt beam="2">  1       -1 0.47521272E-01 0.14361227E+04</pdfrwt>
<totfact> 0.49871449E+01</totfact>
</mgrwt>
</event>
<event>
12    7  0.1729738E-007  0.2193468E+04  0.7818608E-02  0.8521152E-01
         -1   -1    0    0    0  501 -0.00000000000E+00  0.00000000000E+00  0.35121195996E+03  0.35121195996E+03  0.00000000000E+00 0.  1.
          2   -1    0    0  501    0  0.00000000000E+00 -0.00000000000E+00 -0.34247836220E+04  0.34247836220E+04  0.00000000000E+00 0. -1.
         24    2    1    2    0    0  0.28555253108E+03  0.82559857938E+03 -0.87485622774E+03  0.12390088844E+04  0.81340851205E+02 0.  0.
        254    2    1    2    0    0 -0.28555253108E+03 -0.82559857938E+03 -0.21987154343E+04  0.25369866976E+04  0.91585953090E+03 0.  0.
         23    2    4    4    0    0  0.23265601622E+03 -0.14428681011E+02 -0.20518494021E+03  0.32108953288E+03  0.81612619840E+02 0.  0.
         23    2    4    4    0    0 -0.51820854730E+03 -0.81116989837E+03 -0.19935304941E+04  0.22158971647E+04  0.97466461390E+02 0.  0.
          2    1    3    3  502    0  0.24884329015E+02  0.73695808474E+02 -0.11398085291E+03  0.13799252461E+03  0.00000000000E+00 0. -1.
         -1    1    3    3    0  502  0.26066820207E+03  0.75190277091E+03 -0.76087537483E+03  0.11010163598E+04  0.00000000000E+00 0.  1.
         13    1    5    5    0    0  0.16545839693E+03  0.59498645011E+01 -0.96326313263E+02  0.19154801129E+03  0.00000000000E+00 0. -1.
        -13    1    5    5    0    0  0.67197619294E+02 -0.20378545512E+02 -0.10885862695E+03  0.12954152159E+03  0.00000000000E+00 0.  1.
          1    1    6    6  503    0 -0.31978704423E+03 -0.49358017020E+03 -0.11072394811E+04  0.12537401671E+04  0.00000000000E+00 0. -1.
         -1    1    6    6    0  503 -0.19842150307E+03 -0.31758972817E+03 -0.88629101299E+03  0.96215699760E+03  0.00000000000E+00 0.  1.
<mgrwt>
<rscale>  0 0.21934675E+04</rscale>
<asrwt>0</asrwt>
<pdfrwt beam="1">  1        2 0.52688980E+00 0.21934675E+04</pdfrwt>
<pdfrwt beam="2">  1       -1 0.54032608E-01 0.21934675E+04</pdfrwt>
<totfact> 0.33096333E+00</totfact>
</mgrwt>
</event>
<event>
12    7  0.1729738E-007  0.1332642E+04  0.7818608E-02  0.9004073E-01
         -1   -1    0    0    0  501 -0.00000000000E+00  0.00000000000E+00  0.27626349999E+03  0.27626349999E+03  0.00000000000E+00 0.  1.
          2   -1    0    0  501    0  0.00000000000E+00 -0.00000000000E+00 -0.16071026508E+04  0.16071026508E+04  0.00000000000E+00 0. -1.
         24    2    1    2    0    0  0.34436003105E+03  0.71339491862E+02 -0.42843981986E+03  0.56044960481E+03  0.82885017963E+02 0.  0.
        254    2    1    2    0    0 -0.34436003105E+03 -0.71339491862E+02 -0.90239933094E+03  0.13229165460E+04  0.90117172673E+03 0.  0.
         23    2    4    4    0    0  0.29408421715E+03 -0.57597632358E+02 -0.21612022106E+03  0.38094347172E+03  0.92773728321E+02 0.  0.
         23    2    4    4    0    0 -0.63844424821E+03 -0.13741859504E+02 -0.68627910989E+03  0.94197307426E+03  0.92381595513E+02 0.  0.
          4    1    3    3  502    0  0.32571140233E+02 -0.11563606587E+02 -0.19899362708E+02  0.39882086324E+02  0.00000000000E+00 0. -1.
         -3    1    3    3    0  502  0.31178889082E+03  0.82903098449E+02 -0.40854045715E+03  0.52056751848E+03  0.00000000000E+00 0.  1.
         13    1    5    5    0    0  0.28195896990E+03 -0.31206724208E+02 -0.20428592722E+03  0.34958183649E+03  0.00000000000E+00 0. -1.
        -13    1    5    5    0    0  0.12125247256E+02 -0.26390908150E+02 -0.11834293834E+02  0.31361635234E+02  0.00000000000E+00 0.  1.
          4    1    6    6  503    0 -0.82499985290E+01 -0.12128343910E+02 -0.11174686184E+02  0.18439978661E+02  0.00000000000E+00 0.  1.
         -4    1    6    6    0  503 -0.63019424968E+03 -0.16135155937E+01 -0.67510442370E+03  0.92353309560E+03  0.00000000000E+00 0. -1.
<mgrwt>
<rscale>  0 0.13326422E+04</rscale>
<asrwt>0</asrwt>
<pdfrwt beam="1">  1        2 0.24724656E+00 0.13326422E+04</pdfrwt>
<pdfrwt beam="2">  1       -1 0.42502077E-01 0.13326422E+04</pdfrwt>
<totfact> 0.67050458E+01</totfact>
</mgrwt>
</event>
<event>
12    7  0.1729738E-007  0.1961309E+04  0.7818608E-02  0.8624927E-01
          2   -1    0    0  501    0  0.00000000000E+00  0.00000000000E+00  0.17846394222E+04  0.17846394222E+04  0.00000000000E+00 0. -1.
         -1   -1    0    0    0  501 -0.00000000000E+00 -0.00000000000E+00 -0.53886699172E+03  0.53886699172E+03  0.00000000000E+00 0.  1.
         24    2    1    2    0    0 -0.17335828140E+03  0.37716749521E+03 -0.27892597615E+03  0.50645046486E+03  0.79899687239E+02 0.  0.
        254    2    1    2    0    0  0.17335828140E+03 -0.37716749521E+03  0.15246984066E+04  0.18170559490E+04  0.89703883841E+03 0.  0.
         23    2    4    4    0    0  0.19981696699E+03 -0.35704861004E+03  0.16086752586E+03  0.44979961159E+03  0.95030518686E+02 0.  0.
         23    2    4    4    0    0 -0.26458685589E+02 -0.20118885168E+02  0.13638308807E+04  0.13672563374E+04  0.90831654281E+02 0.  0.
          2    1    3    3  502    0 -0.62539406909E+02  0.67313668001E+02 -0.42409881336E+02  0.10119735842E+03  0.00000000000E+00 0. -1.
         -1    1    3    3    0  502 -0.11081887449E+03  0.30985382721E+03 -0.23651609481E+03  0.40525310644E+03  0.00000000000E+00 0.  1.
         13    1    5    5    0    0  0.14586035723E+03 -0.25252695414E+03  0.15900891935E+03  0.33215800880E+03  0.00000000000E+00 0. -1.
        -13    1    5    5    0    0  0.53956609755E+02 -0.10452165590E+03  0.18586065143E+01  0.11764160278E+03  0.00000000000E+00 0.  1.
          1    1    6    6  503    0 -0.16820408750E+01  0.26296759397E+02  0.15079852310E+03  0.15308345236E+03  0.00000000000E+00 0. -1.
         -1    1    6    6    0  503 -0.24776644714E+02 -0.46415644566E+02  0.12130323576E+04  0.12141728851E+04  0.00000000000E+00 0.  1.
<mgrwt>
<rscale>  0 0.19613090E+04</rscale>
<asrwt>0</asrwt>
<pdfrwt beam="1">  1        2 0.27455991E+00 0.19613090E+04</pdfrwt>
<pdfrwt beam="2">  1       -1 0.82902615E-01 0.19613090E+04</pdfrwt>
<totfact> 0.13496883E+01</totfact>
</mgrwt>
</event>
<event>
12    7  0.1729738E-007  0.2163066E+04  0.7818608E-02  0.8533960E-01
         -1   -1    0    0    0  501 -0.00000000000E+00  0.00000000000E+00  0.11950800830E+04  0.11950800830E+04  0.00000000000E+00 0.  1.
          2   -1    0    0  501    0  0.00000000000E+00 -0.00000000000E+00 -0.97877425801E+03  0.97877425801E+03  0.00000000000E+00 0. -1.
         24    2    1    2    0    0  0.98549350850E+02  0.64528716565E+03 -0.52677311743E+03  0.84262432605E+03  0.80114523636E+02 0.  0.
        254    2    1    2    0    0 -0.98549350850E+02 -0.64528716565E+03  0.74307894239E+03  0.13312300149E+04  0.89101040246E+03 0.  0.
         23    2    4    4    0    0 -0.31937929539E+02 -0.72160726383E+03  0.87513266772E+03  0.11383128864E+04  0.90343603278E+02 0.  0.
         23    2    4    4    0    0 -0.66611421312E+02  0.76320098182E+02 -0.13205372532E+03  0.19291712854E+03  0.97555078161E+02 0.  0.
          2    1    3    3  502    0  0.10335909290E+03  0.51045500905E+03 -0.39132776708E+03  0.65144826321E+03  0.00000000000E+00 0. -1.
         -1    1    3    3    0  502 -0.48097420485E+01  0.13483215660E+03 -0.13544535035E+03  0.19117606284E+03  0.00000000000E+00 0.  1.
         13    1    5    5    0    0  0.28312061758E+02 -0.15177082683E+03  0.20404793220E+03  0.25587402243E+03  0.00000000000E+00 0.  1.
        -13    1    5    5    0    0 -0.60249991296E+02 -0.56983643700E+03  0.67108473552E+03  0.88243886396E+03  0.00000000000E+00 0. -1.
          3    1    6    6  503    0 -0.85184910729E+01  0.12294176612E+02 -0.99374787347E+02  0.10049407858E+03  0.00000000000E+00 0. -1.
         -3    1    6    6    0  503 -0.58092930239E+02  0.64025921569E+02 -0.32678937977E+02  0.92423049960E+02  0.00000000000E+00 0.  1.
<mgrwt>
<rscale>  0 0.21630660E+04</rscale>
<asrwt>0</asrwt>
<pdfrwt beam="1">  1        2 0.15058066E+00 0.21630660E+04</pdfrwt>
<pdfrwt beam="2">  1       -1 0.18385847E+00 0.21630660E+04</pdfrwt>
<totfact> 0.53088791E+00</totfact>
</mgrwt>
</event>
<event>
12    7  0.1729738E-007  0.1762528E+04  0.7818608E-02  0.8726484E-01
         -1   -1    0    0    0  501 -0.00000000000E+00  0.00000000000E+00  0.10703225161E+04  0.10703225161E+04  0.00000000000E+00 0.  1.
          2   -1    0    0  501    0  0.00000000000E+00 -0.00000000000E+00 -0.72560015014E+03  0.72560015014E+03  0.00000000000E+00 0. -1.
         24    2    1    2    0    0 -0.65427459175E+02 -0.28736983479E+03  0.72250808246E+03  0.78434520797E+03  0.79481454974E+02 0.  0.
        254    2    1    2    0    0  0.65427459175E+02  0.28736983479E+03 -0.37778571649E+03  0.10115774583E+04  0.89090107876E+03 0.  0.
         23    2    4    4    0    0 -0.20759175650E+03 -0.85428261950E+02  0.16482899253E+03  0.29304096385E+03  0.91170633497E+02 0.  0.
         23    2    4    4    0    0  0.27301921568E+03  0.37279809674E+03 -0.54261470902E+03  0.71853649442E+03  0.91356763894E+02 0.  0.
          4    1    3    3  502    0 -0.40469965540E+02 -0.47259505244E+02  0.11756583021E+03  0.13301504945E+03  0.00000000000E+00 0. -1.
         -3    1    3    3    0  502 -0.24957493635E+02 -0.24011032955E+03  0.60494225225E+03  0.65133015853E+03  0.00000000000E+00 0.  1.
         13    1    5    5    0    0 -0.98494682942E+02 -0.17545445349E+02  0.24962676130E+02  0.10311246491E+03  0.00000000000E+00 0. -1.
        -13    1    5    5    0    0 -0.10909707356E+03 -0.67882816600E+02  0.13986631640E+03  0.18992849894E+03  0.00000000000E+00 0.  1.
          1    1    6    6  503    0  0.18957705114E+03  0.24865748445E+03 -0.29878964682E+03  0.43248728992E+03  0.00000000000E+00 0. -1.
         -1    1    6    6    0  503  0.83442164543E+02  0.12414061229E+03 -0.24382506220E+03  0.28604920451E+03  0.00000000000E+00 0.  1.
<mgrwt>
<rscale>  0 0.17625279E+04</rscale>
<asrwt>0</asrwt>
<pdfrwt beam="1">  1        2 0.11163079E+00 0.17625279E+04</pdfrwt>
<pdfrwt beam="2">  1       -1 0.16466500E+00 0.17625279E+04</pdfrwt>
<totfact> 0.11404630E+01</totfact>
</mgrwt>
</event>
<event>
12    7  0.1729738E-007  0.1891294E+04  0.7818608E-02  0.8659202E-01
         -1   -1    0    0    0  501 -0.00000000000E+00  0.00000000000E+00  0.11366351858E+04  0.11366351858E+04  0.00000000000E+00 0.  1.
          2   -1    0    0  501    0  0.00000000000E+00 -0.00000000000E+00 -0.78675005822E+03  0.78675005822E+03  0.00000000000E+00 0. -1.
         24    2    1    2    0    0  0.64574795948E+03 -0.28237780395E+02  0.47413718457E+03  0.80545273186E+03  0.78487158541E+02 0.  0.
        254    2    1    2    0    0 -0.64574795948E+03  0.28237780395E+02 -0.12425205696E+03  0.11179325122E+04  0.90362975201E+03 0.  0.
         23    2    4    4    0    0  0.45323644439E+02 -0.65050770129E+02  0.28241826563E+03  0.30554510727E+03  0.85509650777E+02 0.  0.
         23    2    4    4    0    0 -0.69107160392E+03  0.93288550524E+02 -0.40667032260E+03  0.81238740491E+03  0.91158263326E+02 0.  0.
          2    1    3    3  502    0  0.51424545634E+03 -0.49366943731E+02  0.35571946097E+03  0.62723346484E+03  0.00000000000E+00 0. -1.
         -1    1    3    3    0  502  0.13150250313E+03  0.21129163336E+02  0.11841772360E+03  0.17821926702E+03  0.00000000000E+00 0.  1.
         13    1    5    5    0    0  0.70465677974E+02 -0.48702499734E+02  0.19086503731E+03  0.20920518091E+03  0.00000000000E+00 0.  1.
        -13    1    5    5    0    0 -0.25142033535E+02 -0.16348270395E+02  0.91553228320E+02  0.96339926359E+02  0.00000000000E+00 0. -1.
          2    1    6    6  503    0 -0.28277339362E+03  0.64104923433E+02 -0.12646229283E+03  0.31632727491E+03  0.00000000000E+00 0.  1.
         -2    1    6    6    0  503 -0.40829821030E+03  0.29183627090E+02 -0.28020802977E+03  0.49606013000E+03  0.00000000000E+00 0. -1.
<mgrwt>
<rscale>  0 0.18912935E+04</rscale>
<asrwt>0</asrwt>
<pdfrwt beam="1">  1        2 0.12103847E+00 0.18912935E+04</pdfrwt>
<pdfrwt beam="2">  1       -1 0.17486695E+00 0.18912935E+04</pdfrwt>
<totfact> 0.85405545E+00</totfact>
</mgrwt>
</event>
<event>
12    7  0.1729738E-007  0.1726673E+04  0.7818608E-02  0.8746296E-01
          2   -1    0    0  501    0  0.00000000000E+00  0.00000000000E+00  0.75469146510E+03  0.75469146510E+03  0.00000000000E+00 0. -1.
         -1   -1    0    0    0  501 -0.00000000000E+00 -0.00000000000E+00 -0.98762214584E+03  0.98762214584E+03  0.00000000000E+00 0.  1.
         24    2    1    2    0    0  0.29205078474E+03 -0.48786231653E+03 -0.35619658860E+03  0.67574374852E+03  0.80313779533E+02 0.  0.
        254    2    1    2    0    0 -0.29205078474E+03  0.48786231653E+03  0.12326590785E+03  0.10665698624E+04  0.89390910423E+03 0.  0.
         23    2    4    4    0    0 -0.41389568661E+03  0.68190465371E+03  0.15762916693E+03  0.81830358870E+03  0.92033759349E+02 0.  0.
         23    2    4    4    0    0  0.12184490187E+03 -0.19404233719E+03 -0.34363259074E+02  0.24826627372E+03  0.89200338339E+02 0.  0.
          2    1    3    3  502    0  0.83413420887E+02 -0.15881026131E+03 -0.15585369635E+03  0.23763180038E+03  0.00000000000E+00 0. -1.
         -1    1    3    3    0  502  0.20863736385E+03 -0.32905205521E+03 -0.20034289224E+03  0.43811194814E+03  0.00000000000E+00 0.  1.
         13    1    5    5    0    0 -0.23949664243E+03  0.31159511656E+03  0.60694731894E+02  0.39766067052E+03  0.00000000000E+00 0.  1.
        -13    1    5    5    0    0 -0.17439904418E+03  0.37030953715E+03  0.96934435034E+02  0.42064291818E+03  0.00000000000E+00 0. -1.
          3    1    6    6  503    0  0.79535973045E+02 -0.47208796129E+02 -0.47314942203E+01  0.92612247989E+02  0.00000000000E+00 0. -1.
         -3    1    6    6    0  503  0.42308928829E+02 -0.14683354106E+03 -0.29631764853E+02  0.15565402573E+03  0.00000000000E+00 0.  1.
<mgrwt>
<rscale>  0 0.17266731E+04</rscale>
<asrwt>0</asrwt>
<pdfrwt beam="1">  1        2 0.11610638E+00 0.17266731E+04</pdfrwt>
<pdfrwt beam="2">  1       -1 0.15194187E+00 0.17266731E+04</pdfrwt>
<totfact> 0.13589241E+01</totfact>
</mgrwt>
</event>
<event>
12    7  0.1729738E-007  0.1941477E+04  0.7818608E-02  0.8634482E-01
          2   -1    0    0  501    0  0.00000000000E+00  0.00000000000E+00  0.14790136643E+04  0.14790136643E+04  0.00000000000E+00 0. -1.
         -1   -1    0    0    0  501 -0.00000000000E+00 -0.00000000000E+00 -0.63713622812E+03  0.63713622812E+03  0.00000000000E+00 0.  1.
         24    2    1    2    0    0 -0.20263059328E+03  0.55944795335E+03  0.84829306048E+03  0.10392809474E+04  0.80390306125E+02 0.  0.
        254    2    1    2    0    0  0.20263059328E+03 -0.55944795335E+03 -0.64156243053E+01  0.10768689450E+04  0.89753239200E+03 0.  0.
         23    2    4    4    0    0 -0.18334885625E+03 -0.25506712251E+03 -0.34312658443E+03  0.47410429609E+03  0.91449387916E+02 0.  0.
         23    2    4    4    0    0  0.38597944953E+03 -0.30438083084E+03  0.33671096013E+03  0.60276464894E+03  0.91231166285E+02 0.  0.
          2    1    3    3  502    0 -0.17921666206E+03  0.44573000075E+03  0.72686489877E+03  0.87127861594E+03  0.00000000000E+00 0. -1.
         -1    1    3    3    0  502 -0.23413931229E+02  0.11371795260E+03  0.12142816171E+03  0.16800233146E+03  0.00000000000E+00 0.  1.
         13    1    5    5    0    0 -0.13250618234E+03 -0.13011718222E+03 -0.15101634262E+03  0.23936228861E+03  0.00000000000E+00 0.  1.
        -13    1    5    5    0    0 -0.50842673911E+02 -0.12494994029E+03 -0.19211024181E+03  0.23474200748E+03  0.00000000000E+00 0. -1.
          4    1    6    6  503    0  0.30300703155E+03 -0.19416271868E+03  0.21795802592E+03  0.42073521788E+03  0.00000000000E+00 0.  1.
         -4    1    6    6    0  503  0.82972417980E+02 -0.11021811215E+03  0.11875293420E+03  0.18202943107E+03  0.00000000000E+00 0. -1.
<mgrwt>
<rscale>  0 0.19414770E+04</rscale>
<asrwt>0</asrwt>
<pdfrwt beam="1">  1        2 0.22754056E+00 0.19414770E+04</pdfrwt>
<pdfrwt beam="2">  1       -1 0.98020959E-01 0.19414770E+04</pdfrwt>
<totfact> 0.13842690E+01</totfact>
</mgrwt>
</event>
<event>
12    7  0.1729738E-007  0.1642368E+04  0.7818608E-02  0.8794935E-01
          2   -1    0    0  501    0  0.00000000000E+00  0.00000000000E+00  0.74506543970E+03  0.74506543970E+03  0.00000000000E+00 0. -1.
         -1   -1    0    0    0  501 -0.00000000000E+00 -0.00000000000E+00 -0.90507862356E+03  0.90507862356E+03  0.00000000000E+00 0.  1.
         24    2    1    2    0    0  0.50614128186E+03 -0.27533470488E+02 -0.31482423861E+03  0.60196303892E+03  0.79423609923E+02 0.  0.
        254    2    1    2    0    0 -0.50614128186E+03  0.27533470488E+02  0.15481105475E+03  0.10481810243E+04  0.90431184219E+03 0.  0.
         23    2    4    4    0    0  0.11438413154E+02  0.20966169774E+02  0.43994247013E+03  0.45025549793E+03  0.92791264773E+02 0.  0.
         23    2    4    4    0    0 -0.51757969501E+03  0.65673007136E+01 -0.28513141539E+03  0.59792552642E+03  0.91011762847E+02 0.  0.
          4    1    3    3  502    0  0.31195575781E+02  0.15179131505E+02 -0.10414967828E+02  0.36222113914E+02  0.00000000000E+00 0. -1.
         -3    1    3    3    0  502  0.47494570608E+03 -0.42712601993E+02 -0.30440927078E+03  0.56574092500E+03  0.00000000000E+00 0.  1.
         13    1    5    5    0    0  0.45240010807E+02  0.25342818397E+02  0.15873914142E+03  0.16699410780E+03  0.00000000000E+00 0.  1.
        -13    1    5    5    0    0 -0.33801597653E+02 -0.43766486226E+01  0.28120332871E+03  0.28326139012E+03  0.00000000000E+00 0. -1.
          3    1    6    6  503    0 -0.49466637827E+03 -0.10381999691E+02 -0.25564876122E+03  0.55691911515E+03  0.00000000000E+00 0. -1.
         -3    1    6    6    0  503 -0.22913316740E+02  0.16949300405E+02 -0.29482654165E+02  0.41006411265E+02  0.00000000000E+00 0.  1.
<mgrwt>
<rscale>  0 0.16423676E+04</rscale>
<asrwt>0</asrwt>
<pdfrwt beam="1">  1        2 0.11462545E+00 0.16423676E+04</pdfrwt>
<pdfrwt beam="2">  1       -1 0.13924286E+00 0.16423676E+04</pdfrwt>
<totfact> 0.17552558E+01</totfact>
</mgrwt>
</event>
<event>
12    7  0.1729738E-007  0.1336474E+04  0.7818608E-02  0.9001131E-01
         -1   -1    0    0    0  501 -0.00000000000E+00  0.00000000000E+00  0.14584429519E+03  0.14584429519E+03  0.00000000000E+00 0.  1.
          2   -1    0    0  501    0  0.00000000000E+00 -0.00000000000E+00 -0.30617629272E+04  0.30617629272E+04  0.00000000000E+00 0. -1.
         24    2    1    2    0    0 -0.18563901579E+03  0.25364028636E+02 -0.15242303928E+04  0.15373955865E+04  0.72122956709E+02 0.  0.
        254    2    1    2    0    0  0.18563901579E+03 -0.25364028636E+02 -0.13916882392E+04  0.16702116359E+04  0.90427074232E+03 0.  0.
         23    2    4    4    0    0 -0.19481562550E+03 -0.34838904523E+03 -0.52619323636E+03  0.66695509693E+03  0.92853242033E+02 0.  0.
         23    2    4    4    0    0  0.38045464129E+03  0.32302501660E+03 -0.86549500284E+03  0.10032565390E+04  0.91384832435E+02 0.  0.
          4    1    3    3  502    0 -0.16689452556E+03  0.81993566240E+01 -0.14323841745E+04  0.14420975818E+04  0.00000000000E+00 0. -1.
         -3    1    3    3    0  502 -0.18744490237E+02  0.17164672012E+02 -0.91846218353E+02  0.95298004729E+02  0.00000000000E+00 0.  1.
         13    1    5    5    0    0 -0.80212847792E+02 -0.23576644916E+03 -0.32700398254E+03  0.41103713226E+03  0.00000000000E+00 0. -1.
        -13    1    5    5    0    0 -0.11460277770E+03 -0.11262259607E+03 -0.19918925382E+03  0.25591796467E+03  0.00000000000E+00 0.  1.
          4    1    6    6  503    0  0.13652591240E+03  0.12312456200E+03 -0.23579361619E+03  0.29899433432E+03  0.00000000000E+00 0. -1.
         -4    1    6    6    0  503  0.24392872889E+03  0.19990045460E+03 -0.62970138665E+03  0.70426220464E+03  0.00000000000E+00 0.  1.
<mgrwt>
<rscale>  0 0.13364740E+04</rscale>
<asrwt>0</asrwt>
<pdfrwt beam="1">  1        2 0.47104042E+00 0.13364740E+04</pdfrwt>
<pdfrwt beam="2">  1       -1 0.22437585E-01 0.13364740E+04</pdfrwt>
<totfact> 0.30204701E+01</totfact>
</mgrwt>
</event>
<event>
12    7  0.1729738E-007  0.1713752E+04  0.7818608E-02  0.8753560E-01
          2   -1    0    0  501    0  0.00000000000E+00  0.00000000000E+00  0.23490846078E+04  0.23490846078E+04  0.00000000000E+00 0. -1.
         -1   -1    0    0    0  501 -0.00000000000E+00 -0.00000000000E+00 -0.31256273638E+03  0.31256273638E+03  0.00000000000E+00 0.  1.
         24    2    1    2    0    0 -0.18805211424E+03 -0.58901715211E+03  0.65100254097E+03  0.90138742500E+03  0.79938591818E+02 0.  0.
        254    2    1    2    0    0  0.18805211424E+03  0.58901715211E+03  0.13855193304E+04  0.17602599191E+04  0.89249446207E+03 0.  0.
         23    2    4    4    0    0 -0.33165706750E+03  0.24824016868E+03  0.35642144245E+03  0.55446314377E+03  0.93667184180E+02 0.  0.
         23    2    4    4    0    0  0.51970918174E+03  0.34077698342E+03  0.10290978880E+04  0.12057967754E+04  0.93149420057E+02 0.  0.
          4    1    3    3  502    0 -0.58143578278E+02 -0.10211048583E+03  0.15278182770E+03  0.19274209163E+03  0.00000000000E+00 0. -1.
         -3    1    3    3    0  502 -0.12990853596E+03 -0.48690666627E+03  0.49822071327E+03  0.70864533337E+03  0.00000000000E+00 0.  1.
         13    1    5    5    0    0 -0.12797954778E+03  0.41593845474E+02  0.11137101785E+03  0.17467774973E+03  0.00000000000E+00 0. -1.
        -13    1    5    5    0    0 -0.20367751972E+03  0.20664632321E+03  0.24505042459E+03  0.37978539404E+03  0.00000000000E+00 0.  1.
          4    1    6    6  503    0  0.24262017732E+03  0.20236009543E+03  0.46334600260E+03  0.56080627386E+03  0.00000000000E+00 0. -1.
         -4    1    6    6    0  503  0.27708900442E+03  0.13841688799E+03  0.56575188536E+03  0.64499050151E+03  0.00000000000E+00 0.  1.
<mgrwt>
<rscale>  0 0.17137518E+04</rscale>
<asrwt>0</asrwt>
<pdfrwt beam="1">  1        2 0.36139762E+00 0.17137518E+04</pdfrwt>
<pdfrwt beam="2">  1       -1 0.48086576E-01 0.17137518E+04</pdfrwt>
<totfact> 0.19910215E+01</totfact>
</mgrwt>
</event>
<event>
12    7  0.1729738E-007  0.1350344E+04  0.7818608E-02  0.8990567E-01
         -1   -1    0    0    0  501 -0.00000000000E+00  0.00000000000E+00  0.17216605557E+04  0.17216605557E+04  0.00000000000E+00 0.  1.
          2   -1    0    0  501    0  0.00000000000E+00 -0.00000000000E+00 -0.26477781198E+03  0.26477781198E+03  0.00000000000E+00 0. -1.
         24    2    1    2    0    0 -0.51717796653E+02  0.25058487152E+03  0.63901699687E+01  0.26808667523E+03  0.79762916438E+02 0.  0.
        254    2    1    2    0    0  0.51717796653E+02 -0.25058487152E+03  0.14504925738E+04  0.17183516925E+04  0.88506289273E+03 0.  0.
         23    2    4    4    0    0 -0.26851568995E+03 -0.44986963753E+03  0.79287539830E+03  0.95465512701E+03  0.90728428728E+02 0.  0.
         23    2    4    4    0    0  0.32023348660E+03  0.19928476601E+03  0.65761717546E+03  0.76369656544E+03  0.92239854193E+02 0.  0.
          4    1    3    3  502    0 -0.64602662333E+02  0.20534957672E+03  0.26571020717E+02  0.21690544433E+03  0.00000000000E+00 0. -1.
         -3    1    3    3    0  502  0.12884865680E+02  0.45235294802E+02 -0.20180850748E+02  0.51181230899E+02  0.00000000000E+00 0.  1.
         13    1    5    5    0    0 -0.57532585776E+02 -0.40465700891E+02  0.12370566693E+03  0.14230447430E+03  0.00000000000E+00 0.  1.
        -13    1    5    5    0    0 -0.21098310417E+03 -0.40940393664E+03  0.66916973137E+03  0.81235065271E+03  0.00000000000E+00 0. -1.
          1    1    6    6  503    0  0.29713412905E+03  0.19584337365E+03  0.56143733438E+03  0.66472189529E+03  0.00000000000E+00 0. -1.
         -1    1    6    6    0  503  0.23099357555E+02  0.34413923627E+01  0.96179841077E+02  0.98974670146E+02  0.00000000000E+00 0.  1.
<mgrwt>
<rscale>  0 0.13503444E+04</rscale>
<asrwt>0</asrwt>
<pdfrwt beam="1">  1        2 0.40735049E-01 0.13503444E+04</pdfrwt>
<pdfrwt beam="2">  1       -1 0.26487085E+00 0.13503444E+04</pdfrwt>
<totfact> 0.78964924E+00</totfact>
</mgrwt>
</event>
<event>
12    7  0.1729738E-007  0.2537607E+04  0.7818608E-02  0.8389709E-01
         -1   -1    0    0    0  501 -0.00000000000E+00  0.00000000000E+00  0.13036068096E+04  0.13036068096E+04  0.00000000000E+00 0.  1.
          2   -1    0    0  501    0  0.00000000000E+00 -0.00000000000E+00 -0.12349297484E+04  0.12349297484E+04  0.00000000000E+00 0. -1.
         24    2    1    2    0    0 -0.15597394210E+03  0.73256927071E+03  0.84121106813E+03  0.11286628884E+04  0.72513774301E+02 0.  0.
        254    2    1    2    0    0  0.15597394210E+03 -0.73256927071E+03 -0.77253400689E+03  0.14098736696E+04  0.91101556820E+03 0.  0.
         23    2    4    4    0    0 -0.18558501022E+03 -0.51121300661E+03 -0.82194365147E+03  0.98974004363E+03  0.90628106237E+02 0.  0.
         23    2    4    4    0    0  0.34155895233E+03 -0.22135626410E+03  0.49409644578E+02  0.42013362600E+03  0.91705164208E+02 0.  0.
          4    1    3    3  502    0 -0.10177074092E+02  0.68397318471E+01  0.13775669973E+02  0.18442447018E+02  0.00000000000E+00 0. -1.
         -3    1    3    3    0  502 -0.14579686801E+03  0.72572953886E+03  0.82743539815E+03  0.11102204414E+04  0.00000000000E+00 0.  1.
         13    1    5    5    0    0 -0.11335890001E+02 -0.43033407853E+01 -0.39354848879E+02  0.41180399152E+02  0.00000000000E+00 0. -1.
        -13    1    5    5    0    0 -0.17424912022E+03 -0.50690966582E+03 -0.78258880259E+03  0.94855964448E+03  0.00000000000E+00 0.  1.
          1    1    6    6  503    0  0.55838444546E+02 -0.51255978498E+02 -0.24193275741E+02  0.79563947943E+02  0.00000000000E+00 0. -1.
         -1    1    6    6    0  503  0.28572050778E+03 -0.17010028560E+03  0.73602920319E+02  0.34056967805E+03  0.00000000000E+00 0.  1.
<mgrwt>
<rscale>  0 0.25376074E+04</rscale>
<asrwt>0</asrwt>
<pdfrwt beam="1">  1        2 0.18998919E+00 0.25376074E+04</pdfrwt>
<pdfrwt beam="2">  1       -1 0.20055489E+00 0.25376074E+04</pdfrwt>
<totfact> 0.27290954E+00</totfact>
</mgrwt>
</event>
<event>
12    7  0.1729738E-007  0.2291914E+04  0.7818608E-02  0.8481116E-01
          2   -1    0    0  501    0  0.00000000000E+00  0.00000000000E+00  0.16987629750E+04  0.16987629750E+04  0.00000000000E+00 0. -1.
         -1   -1    0    0    0  501 -0.00000000000E+00 -0.00000000000E+00 -0.77304315950E+03  0.77304315950E+03  0.00000000000E+00 0.  1.
         24    2    1    2    0    0 -0.41930354665E+03  0.58487897777E+03 -0.30667984106E+03  0.78905942450E+03  0.10326358317E+03 0.  0.
        254    2    1    2    0    0  0.41930354665E+03 -0.58487897777E+03  0.12323996565E+04  0.16827467100E+04  0.89158773749E+03 0.  0.
         23    2    4    4    0    0  0.41061375981E+03 -0.59232620905E+03  0.13517613962E+04  0.15343551745E+04  0.86792463463E+02 0.  0.
         23    2    4    4    0    0  0.86897868427E+01  0.74472312823E+01 -0.11936173965E+03  0.14839153545E+03  0.87417671281E+02 0.  0.
          4    1    3    3  502    0 -0.11295927630E+03  0.15245838695E+03 -0.32894431782E+02  0.19257570328E+03  0.00000000000E+00 0. -1.
         -3    1    3    3    0  502 -0.30634427035E+03  0.43242059082E+03 -0.27378540928E+03  0.59648372122E+03  0.00000000000E+00 0.  1.
         13    1    5    5    0    0  0.34326994535E+03 -0.43879475872E+03  0.10010983011E+04  0.11456757413E+04  0.00000000000E+00 0.  1.
        -13    1    5    5    0    0  0.67343814455E+02 -0.15353145033E+03  0.35066309507E+03  0.38867943325E+03  0.00000000000E+00 0. -1.
          4    1    6    6  503    0 -0.18964831265E+02 -0.46335695072E+01  0.52186012056E+01  0.20208131775E+02  0.00000000000E+00 0.  1.
         -4    1    6    6    0  503  0.27654618108E+02  0.12080800789E+02 -0.12458034086E+03  0.12818340368E+03  0.00000000000E+00 0. -1.
<mgrwt>
<rscale>  0 0.22919137E+04</rscale>
<asrwt>0</asrwt>
<pdfrwt beam="1">  1        2 0.26134815E+00 0.22919137E+04</pdfrwt>
<pdfrwt beam="2">  1       -1 0.11892972E+00 0.22919137E+04</pdfrwt>
<totfact> 0.64211547E+00</totfact>
</mgrwt>
</event>
<event>
12    7  0.1729738E-007  0.1509138E+04  0.7818608E-02  0.8878399E-01
          2   -1    0    0  501    0  0.00000000000E+00  0.00000000000E+00  0.98643228993E+03  0.98643228993E+03  0.00000000000E+00 0. -1.
         -1   -1    0    0    0  501 -0.00000000000E+00 -0.00000000000E+00 -0.57720565945E+03  0.57720565945E+03  0.00000000000E+00 0.  1.
         24    2    1    2    0    0  0.10234530068E+03 -0.42776745324E+03  0.21756845150E+03  0.49710284338E+03  0.79471071415E+02 0.  0.
        254    2    1    2    0    0 -0.10234530068E+03  0.42776745324E+03  0.19165817898E+03  0.10665351060E+04  0.95252544330E+03 0.  0.
         23    2    4    4    0    0 -0.38470354035E+03  0.58438735854E+03  0.18923920719E+03  0.73061267033E+03  0.92076043200E+02 0.  0.
         23    2    4    4    0    0  0.28235823967E+03 -0.15661990530E+03  0.24189717967E+01  0.33592243567E+03  0.92639414474E+02 0.  0.
          4    1    3    3  502    0  0.90164532445E+02 -0.38931629099E+03  0.22093543019E+03  0.45662816564E+03  0.00000000000E+00 0. -1.
         -3    1    3    3    0  502  0.12180768233E+02 -0.38451162245E+02 -0.33669786936E+01  0.40474677741E+02  0.00000000000E+00 0.  1.
         13    1    5    5    0    0 -0.34453401195E+03  0.55986078854E+03  0.18715230066E+03  0.68350111308E+03  0.00000000000E+00 0.  1.
        -13    1    5    5    0    0 -0.40169528405E+02  0.24526569997E+02  0.20869065318E+01  0.47111557255E+02  0.00000000000E+00 0. -1.
          3    1    6    6  503    0  0.10033929553E+02 -0.28094585825E+02 -0.16695048816E+02  0.34186402998E+02  0.00000000000E+00 0. -1.
         -3    1    6    6    0  503  0.27232431012E+03 -0.12852531948E+03  0.19114020613E+02  0.30173603267E+03  0.00000000000E+00 0.  1.
<mgrwt>
<rscale>  0 0.15091379E+04</rscale>
<asrwt>0</asrwt>
<pdfrwt beam="1">  1        2 0.15175881E+00 0.15091379E+04</pdfrwt>
<pdfrwt beam="2">  1       -1 0.88800871E-01 0.15091379E+04</pdfrwt>
<totfact> 0.35237787E+01</totfact>
</mgrwt>
</event>
<event>
12    7  0.1729738E-007  0.1493143E+04  0.7818608E-02  0.8889026E-01
         -3   -1    0    0    0  501 -0.00000000000E+00  0.00000000000E+00  0.28320645767E+03  0.28320645767E+03  0.00000000000E+00 0.  1.
          2   -1    0    0  501    0  0.00000000000E+00 -0.00000000000E+00 -0.19680656958E+04  0.19680656958E+04  0.00000000000E+00 0. -1.
         24    2    1    2    0    0 -0.20379137784E+03  0.39161223959E+03 -0.29944206072E+03  0.53939458475E+03  0.79936840408E+02 0.  0.
        254    2    1    2    0    0  0.20379137784E+03 -0.39161223959E+03 -0.13854171774E+04  0.17118775687E+04  0.90346720082E+03 0.  0.
         23    2    4    4    0    0 -0.61643515105E+02 -0.22995706893E+03 -0.13636090901E+04  0.13870856242E+04  0.88862824919E+02 0.  0.
         23    2    4    4    0    0  0.26543489295E+03 -0.16165517066E+03 -0.21808087266E+02  0.32479194451E+03  0.91793997388E+02 0.  0.
          4    1    3    3  502    0 -0.15931916938E+01  0.61537378350E+02 -0.41659105791E+02  0.74329457749E+02  0.00000000000E+00 0. -1.
         -3    1    3    3    0  502 -0.20219818615E+03  0.33007486124E+03 -0.25778295492E+03  0.46506512700E+03  0.00000000000E+00 0.  1.
         13    1    5    5    0    0 -0.28775183063E+02 -0.18012270731E+03 -0.81092653381E+03  0.83118833250E+03  0.00000000000E+00 0. -1.
        -13    1    5    5    0    0 -0.32868332041E+02 -0.49834361617E+02 -0.55268255634E+03  0.55589729171E+03  0.00000000000E+00 0.  1.
          2    1    6    6  503    0  0.12601096584E+03 -0.28975624537E+02 -0.27713312418E+02  0.13223606927E+03  0.00000000000E+00 0. -1.
         -2    1    6    6    0  503  0.13942392710E+03 -0.13267954612E+03  0.59052251514E+01  0.19255587525E+03  0.00000000000E+00 0.  1.
<mgrwt>
<rscale>  0 0.14931429E+04</rscale>
<asrwt>0</asrwt>
<pdfrwt beam="1">  1        2 0.30277935E+00 0.14931429E+04</pdfrwt>
<pdfrwt beam="2">  1       -3 0.43570223E-01 0.14931429E+04</pdfrwt>
<totfact> 0.22707366E+01</totfact>
</mgrwt>
</event>
<event>
12    7  0.1729738E-007  0.1362593E+04  0.7818608E-02  0.8981349E-01
          2   -1    0    0  501    0  0.00000000000E+00  0.00000000000E+00  0.11047094059E+04  0.11047094059E+04  0.00000000000E+00 0. -1.
         -1   -1    0    0    0  501 -0.00000000000E+00 -0.00000000000E+00 -0.42016953640E+03  0.42016953640E+03  0.00000000000E+00 0.  1.
         24    2    1    2    0    0  0.24907597409E+03 -0.26575594042E+03  0.41045571788E+03  0.55465343562E+03  0.80631734271E+02 0.  0.
        254    2    1    2    0    0 -0.24907597409E+03  0.26575594042E+03  0.27408415158E+03  0.97022550663E+03  0.85647554013E+03 0.  0.
         23    2    4    4    0    0 -0.43074964913E+03  0.45700627698E+03  0.27342164877E+03  0.69131971585E+03  0.93613856239E+02 0.  0.
         23    2    4    4    0    0  0.18167367504E+03 -0.19125033656E+03  0.66250281275E+00  0.27890579079E+03  0.90586896337E+02 0.  0.
          4    1    3    3  502    0  0.23951061367E+03 -0.26593896767E+03  0.41110379526E+03  0.54506439900E+03  0.00000000000E+00 0. -1.
         -3    1    3    3    0  502  0.95653604210E+01  0.18302724619E+00 -0.64807738420E+00  0.95890366175E+01  0.00000000000E+00 0.  1.
         13    1    5    5    0    0 -0.93522688689E+01  0.20517478791E+02 -0.60348552574E+01  0.23342051043E+02  0.00000000000E+00 0. -1.
        -13    1    5    5    0    0 -0.42139738026E+03  0.43648879819E+03  0.27945650403E+03  0.66797766480E+03  0.00000000000E+00 0.  1.
          3    1    6    6  503    0  0.48586624405E+02 -0.11658418699E+03  0.11936025325E+00  0.12630339257E+03  0.00000000000E+00 0. -1.
         -3    1    6    6    0  503  0.13308705064E+03 -0.74666149567E+02  0.54314255950E+00  0.15260239822E+03  0.00000000000E+00 0.  1.
<mgrwt>
<rscale>  0 0.13625935E+04</rscale>
<asrwt>0</asrwt>
<pdfrwt beam="1">  1        2 0.16995529E+00 0.13625935E+04</pdfrwt>
<pdfrwt beam="2">  1       -1 0.64641468E-01 0.13625935E+04</pdfrwt>
<totfact> 0.58452374E+01</totfact>
</mgrwt>
</event>
<event>
12    7  0.1729738E-007  0.1565571E+04  0.7818608E-02  0.8841982E-01
         -1   -1    0    0    0  501 -0.00000000000E+00  0.00000000000E+00  0.68295543112E+03  0.68295543112E+03  0.00000000000E+00 0.  1.
          2   -1    0    0  501    0  0.00000000000E+00 -0.00000000000E+00 -0.89720859809E+03  0.89720859809E+03  0.00000000000E+00 0. -1.
         24    2    1    2    0    0  0.33648711004E+03  0.28245576947E+03  0.21698045082E+03  0.49577990305E+03  0.75580151434E+02 0.  0.
        254    2    1    2    0    0 -0.33648711004E+03 -0.28245576947E+03 -0.43123361779E+03  0.10843841262E+04  0.89270468971E+03 0.  0.
         23    2    4    4    0    0 -0.29079857401E+03 -0.40373999610E+03 -0.64419369643E+03  0.81915995051E+03  0.92020165763E+02 0.  0.
         23    2    4    4    0    0 -0.45688536036E+02  0.12128422662E+03  0.21296007863E+03  0.26522417566E+03  0.90523821792E+02 0.  0.
          4    1    3    3  502    0  0.26894031677E+03  0.21601152290E+03  0.13478602966E+03  0.37034733130E+03  0.00000000000E+00 0. -1.
         -3    1    3    3    0  502  0.67546793271E+02  0.66444246574E+02  0.82194421163E+02  0.12543257174E+03  0.00000000000E+00 0.  1.
         13    1    5    5    0    0 -0.28080268841E+03 -0.37270957327E+03 -0.62897819788E+03  0.78318334331E+03  0.00000000000E+00 0. -1.
        -13    1    5    5    0    0 -0.99958855952E+01 -0.31030422826E+02 -0.15215498548E+02  0.35976607201E+02  0.00000000000E+00 0.  1.
          1    1    6    6  503    0 -0.48183338782E+02  0.11476954725E+03  0.12299782181E+03  0.17499184919E+03  0.00000000000E+00 0. -1.
         -1    1    6    6    0  503  0.24948027453E+01  0.65146793671E+01  0.89962256817E+02  0.90232326467E+02  0.00000000000E+00 0.  1.
<mgrwt>
<rscale>  0 0.15655714E+04</rscale>
<asrwt>0</asrwt>
<pdfrwt beam="1">  1        2 0.13803209E+00 0.15655714E+04</pdfrwt>
<pdfrwt beam="2">  1       -1 0.10507007E+00 0.15655714E+04</pdfrwt>
<totfact> 0.27476687E+01</totfact>
</mgrwt>
</event>
<event>
12    7  0.1729738E-007  0.1498495E+04  0.7818608E-02  0.8885455E-01
         -1   -1    0    0    0  501 -0.00000000000E+00  0.00000000000E+00  0.47690514398E+03  0.47690514398E+03  0.00000000000E+00 0.  1.
          2   -1    0    0  501    0  0.00000000000E+00 -0.00000000000E+00 -0.11771136009E+04  0.11771136009E+04  0.00000000000E+00 0. -1.
         24    2    1    2    0    0 -0.29631044704E+01 -0.47533022111E+03 -0.22370239677E+03  0.53117094452E+03  0.78436030604E+02 0.  0.
        254    2    1    2    0    0  0.29631044704E+01  0.47533022111E+03 -0.47650606017E+03  0.11228478004E+04  0.89876668739E+03 0.  0.
         23    2    4    4    0    0 -0.11196024289E+03  0.54021575010E+03 -0.66907069304E+03  0.87236661448E+03  0.94867091999E+02 0.  0.
         23    2    4    4    0    0  0.11492334736E+03 -0.64885528988E+02  0.19256463287E+03  0.25048118590E+03  0.90786447325E+02 0.  0.
          4    1    3    3  502    0 -0.62877277927E+01 -0.12368808652E+03 -0.97255854963E+02  0.15747056738E+03  0.00000000000E+00 0. -1.
         -3    1    3    3    0  502  0.33246233222E+01 -0.35164213459E+03 -0.12644654181E+03  0.37370037714E+03  0.00000000000E+00 0.  1.
         13    1    5    5    0    0 -0.27702614789E+02  0.34553120799E+03 -0.44028585401E+03  0.56036674045E+03  0.00000000000E+00 0. -1.
        -13    1    5    5    0    0 -0.84257628102E+02  0.19468454211E+03 -0.22878483903E+03  0.31199987404E+03  0.00000000000E+00 0.  1.
          2    1    6    6  503    0  0.33127908694E+02 -0.95553369968E+00  0.11825643046E+03  0.12281268145E+03  0.00000000000E+00 0. -1.
         -2    1    6    6    0  503  0.81795438668E+02 -0.63929995289E+02  0.74308202409E+02  0.12766850445E+03  0.00000000000E+00 0.  1.
<mgrwt>
<rscale>  0 0.14984946E+04</rscale>
<asrwt>0</asrwt>
<pdfrwt beam="1">  1        2 0.18109440E+00 0.14984946E+04</pdfrwt>
<pdfrwt beam="2">  1       -1 0.73370023E-01 0.14984946E+04</pdfrwt>
<totfact> 0.40327861E+01</totfact>
</mgrwt>
</event>
<event>
12    7  0.1729738E-007  0.1281709E+04  0.7818608E-02  0.9044197E-01
         -1   -1    0    0    0  501 -0.00000000000E+00  0.00000000000E+00  0.46954278381E+03  0.46954278381E+03  0.00000000000E+00 0.  1.
          2   -1    0    0  501    0  0.00000000000E+00 -0.00000000000E+00 -0.87466882765E+03  0.87466882765E+03  0.00000000000E+00 0. -1.
         24    2    1    2    0    0 -0.66377357816E+02 -0.26464476949E+03 -0.22503904945E+03  0.36258812948E+03  0.79904757133E+02 0.  0.
        254    2    1    2    0    0  0.66377357816E+02  0.26464476949E+03 -0.18008699438E+03  0.98162348197E+03  0.92558658545E+03 0.  0.
         23    2    4    4    0    0  0.88869144614E+02 -0.13062502022E+03 -0.45559527121E+03  0.49104228575E+03  0.92708437982E+02 0.  0.
         23    2    4    4    0    0 -0.22491786798E+02  0.39526978971E+03  0.27550827683E+03  0.49058119622E+03  0.89560104698E+02 0.  0.
          4    1    3    3  502    0  0.14341293992E+02 -0.50342374825E+02 -0.63763767803E+02  0.82497548454E+02  0.00000000000E+00 0. -1.
         -3    1    3    3    0  502 -0.80718651808E+02 -0.21430239467E+03 -0.16127528165E+03  0.28009058103E+03  0.00000000000E+00 0.  1.
         13    1    5    5    0    0  0.90688432372E+02 -0.80026497655E+02 -0.38910298845E+03  0.40746750510E+03  0.00000000000E+00 0.  1.
        -13    1    5    5    0    0 -0.18192877578E+01 -0.50598522566E+02 -0.66492282763E+02  0.83574780650E+02  0.00000000000E+00 0. -1.
          1    1    6    6  503    0  0.31702035358E+02  0.13279581999E+03  0.74200105862E+02  0.15538791640E+03  0.00000000000E+00 0. -1.
         -1    1    6    6    0  503 -0.54193822156E+02  0.26247396973E+03  0.20130817096E+03  0.33519327983E+03  0.00000000000E+00 0.  1.
<mgrwt>
<rscale>  0 0.12817089E+04</rscale>
<asrwt>0</asrwt>
<pdfrwt beam="1">  1        2 0.13456443E+00 0.12817089E+04</pdfrwt>
<pdfrwt beam="2">  1       -1 0.72237352E-01 0.12817089E+04</pdfrwt>
<totfact> 0.66097827E+01</totfact>
</mgrwt>
</event>
<event>
12    7  0.1729738E-007  0.1210108E+04  0.7818608E-02  0.9104055E-01
         -1   -1    0    0    0  501 -0.00000000000E+00  0.00000000000E+00  0.12632919359E+03  0.12632919359E+03  0.00000000000E+00 0.  1.
          2   -1    0    0  501    0  0.00000000000E+00 -0.00000000000E+00 -0.28979057527E+04  0.28979057527E+04  0.00000000000E+00 0. -1.
         24    2    1    2    0    0 -0.69662975235E+02 -0.20161903071E+03 -0.88719149855E+03  0.91584794539E+03  0.78520954597E+02 0.  0.
        254    2    1    2    0    0  0.69662975235E+02  0.20161903071E+03 -0.18843850605E+04  0.21083870009E+04  0.92134983880E+03 0.  0.
         23    2    4    4    0    0 -0.29081261111E+03 -0.72479328020E+01 -0.18596252237E+03  0.35718304463E+03  0.91504974359E+02 0.  0.
         23    2    4    4    0    0  0.36047558634E+03  0.20886696351E+03 -0.16984225381E+04  0.17512039562E+04  0.92239478925E+02 0.  0.
          4    1    3    3  502    0 -0.16339616162E+02 -0.30513977430E+02 -0.29794383303E+03  0.29994768463E+03  0.00000000000E+00 0. -1.
         -3    1    3    3    0  502 -0.53323359074E+02 -0.17110505328E+03 -0.58924766552E+03  0.61590026076E+03  0.00000000000E+00 0.  1.
         13    1    5    5    0    0  0.13106478304E+00 -0.13843690647E+02 -0.10329785406E+02  0.17273373013E+02  0.00000000000E+00 0.  1.
        -13    1    5    5    0    0 -0.29094367589E+03  0.65957578447E+01 -0.17563273697E+03  0.33990967162E+03  0.00000000000E+00 0. -1.
          3    1    6    6  503    0  0.35951496560E+03  0.19809086441E+03 -0.15858262950E+04  0.16380891426E+04  0.00000000000E+00 0. -1.
         -3    1    6    6    0  503  0.96062074953E+00  0.10776099106E+02 -0.11259624314E+03  0.11311481368E+03  0.00000000000E+00 0.  1.
<mgrwt>
<rscale>  0 0.12101076E+04</rscale>
<asrwt>0</asrwt>
<pdfrwt beam="1">  1        2 0.44583166E+00 0.12101076E+04</pdfrwt>
<pdfrwt beam="2">  1       -1 0.19435260E-01 0.12101076E+04</pdfrwt>
<totfact> 0.49167724E+01</totfact>
</mgrwt>
</event>
<event>
12    7  0.1729738E-007  0.1607315E+04  0.7818608E-02  0.8816067E-01
         -1   -1    0    0    0  501 -0.00000000000E+00  0.00000000000E+00  0.28362469529E+03  0.28362469529E+03  0.00000000000E+00 0.  1.
          2   -1    0    0  501    0  0.00000000000E+00 -0.00000000000E+00 -0.22771822309E+04  0.22771822309E+04  0.00000000000E+00 0. -1.
         24    2    1    2    0    0  0.36596658145E+03  0.18350835581E+03 -0.12813292588E+04  0.13474654569E+04  0.79067267247E+02 0.  0.
        254    2    1    2    0    0 -0.36596658145E+03 -0.18350835581E+03 -0.71222827686E+03  0.12133414693E+04  0.89292863511E+03 0.  0.
         23    2    4    4    0    0 -0.25663298505E+03 -0.50178404492E+03 -0.63842220469E+03  0.85676467747E+03  0.93888680717E+02 0.  0.
         23    2    4    4    0    0 -0.10933359639E+03  0.31827568911E+03 -0.73806072175E+02  0.35657679184E+03  0.91904421066E+02 0.  0.
          4    1    3    3  502    0  0.29511981264E+03  0.17863942687E+03 -0.10259176274E+04  0.10823653389E+04  0.00000000000E+00 0. -1.
         -3    1    3    3    0  502  0.70846768801E+02  0.48689289368E+01 -0.25541163137E+03  0.26510011799E+03  0.00000000000E+00 0.  1.
         13    1    5    5    0    0 -0.16933881867E+03 -0.28150754888E+03 -0.43050730431E+03  0.54153363206E+03  0.00000000000E+00 0.  1.
        -13    1    5    5    0    0 -0.87294166381E+02 -0.22027649604E+03 -0.20791490038E+03  0.31523104541E+03  0.00000000000E+00 0. -1.
          2    1    6    6  503    0 -0.11397844465E+03  0.32278773972E+03 -0.73312171539E+02  0.35008239781E+03  0.00000000000E+00 0. -1.
         -2    1    6    6    0  503  0.46448482527E+01 -0.45120506130E+01 -0.49390063562E+00  0.64943940335E+01  0.00000000000E+00 0.  1.
<mgrwt>
<rscale>  0 0.16073147E+04</rscale>
<asrwt>0</asrwt>
<pdfrwt beam="1">  1        2 0.35033573E+00 0.16073147E+04</pdfrwt>
<pdfrwt beam="2">  1       -1 0.43634568E-01 0.16073147E+04</pdfrwt>
<totfact> 0.26471891E+01</totfact>
</mgrwt>
</event>
<event>
12    7  0.1729738E-007  0.1631629E+04  0.7818608E-02  0.8801349E-01
         -1   -1    0    0    0  501 -0.00000000000E+00  0.00000000000E+00  0.73042798968E+03  0.73042798968E+03  0.00000000000E+00 0.  1.
          2   -1    0    0  501    0  0.00000000000E+00 -0.00000000000E+00 -0.91118244630E+03  0.91118244630E+03  0.00000000000E+00 0. -1.
         24    2    1    2    0    0  0.58971301596E+02 -0.40712614540E+03  0.31854043510E+03  0.52695763666E+03  0.83588452340E+02 0.  0.
        254    2    1    2    0    0 -0.58971301596E+02  0.40712614540E+03 -0.49929489171E+03  0.11146527993E+04  0.90770378509E+03 0.  0.
         23    2    4    4    0    0 -0.22077657198E+03 -0.20344910192E+03 -0.33303949340E+03  0.45539915938E+03  0.79619459866E+02 0.  0.
         23    2    4    4    0    0  0.16180527039E+03  0.61057524732E+03 -0.16625539831E+03  0.65925363995E+03  0.89394776959E+02 0.  0.
          2    1    3    3  502    0 -0.53980734629E+01 -0.13841140039E+02 -0.26835567779E+01  0.15096947760E+02  0.00000000000E+00 0. -1.
         -1    1    3    3    0  502  0.64369375059E+02 -0.39328500536E+03  0.32122399187E+03  0.51186068890E+03  0.00000000000E+00 0.  1.
         13    1    5    5    0    0 -0.10022165069E+03 -0.12206463951E+03 -0.22179296237E+03  0.27227977090E+03  0.00000000000E+00 0.  1.
        -13    1    5    5    0    0 -0.12055492129E+03 -0.81384462412E+02 -0.11124653103E+03  0.18311938847E+03  0.00000000000E+00 0. -1.
          1    1    6    6  503    0  0.65162365385E+02  0.37339852220E+03 -0.12931093725E+03  0.40049208324E+03  0.00000000000E+00 0. -1.
         -1    1    6    6    0  503  0.96642905001E+02  0.23717672512E+03 -0.36944461059E+02  0.25876155671E+03  0.00000000000E+00 0.  1.
<mgrwt>
<rscale>  0 0.16316288E+04</rscale>
<asrwt>0</asrwt>
<pdfrwt beam="1">  1        2 0.14018192E+00 0.16316288E+04</pdfrwt>
<pdfrwt beam="2">  1       -1 0.11237354E+00 0.16316288E+04</pdfrwt>
<totfact> 0.22826526E+01</totfact>
</mgrwt>
</event>
<event>
12    7  0.1729738E-007  0.1605121E+04  0.7818608E-02  0.8817408E-01
          2   -1    0    0  501    0  0.00000000000E+00  0.00000000000E+00  0.10380888040E+04  0.10380888040E+04  0.00000000000E+00 0. -1.
         -1   -1    0    0    0  501 -0.00000000000E+00 -0.00000000000E+00 -0.62047060067E+03  0.62047060067E+03  0.00000000000E+00 0.  1.
         24    2    1    2    0    0  0.11665024011E+03  0.16301743784E+03 -0.38418887589E+03  0.44060591256E+03  0.79690113985E+02 0.  0.
        254    2    1    2    0    0 -0.11665024011E+03 -0.16301743784E+03  0.80180707920E+03  0.12179534921E+04  0.89461396876E+03 0.  0.
         23    2    4    4    0    0 -0.48584460170E+03 -0.19350588795E+03  0.40727282258E+03  0.66906943605E+03  0.91067296931E+02 0.  0.
         23    2    4    4    0    0  0.36919436159E+03  0.30488450111E+02  0.39453425662E+03  0.54888405604E+03  0.91555475608E+02 0.  0.
          2    1    3    3  502    0  0.19247665749E+02  0.26897166137E+02 -0.14464220051E+03  0.14837552478E+03  0.00000000000E+00 0. -1.
         -1    1    3    3    0  502  0.97402574361E+02  0.13612027170E+03 -0.23954667537E+03  0.29223038778E+03  0.00000000000E+00 0.  1.
         13    1    5    5    0    0 -0.10857440765E+03 -0.82903804739E+02  0.86776382844E+02  0.16183813969E+03  0.00000000000E+00 0.  1.
        -13    1    5    5    0    0 -0.37727019405E+03 -0.11060208321E+03  0.32049643974E+03  0.50723129636E+03  0.00000000000E+00 0. -1.
          1    1    6    6  503    0  0.24684013311E+03  0.21375091596E+02  0.19784253030E+03  0.31706247436E+03  0.00000000000E+00 0. -1.
         -1    1    6    6    0  503  0.12235422848E+03  0.91133585150E+01  0.19669172632E+03  0.23182158168E+03  0.00000000000E+00 0.  1.
<mgrwt>
<rscale>  0 0.16051213E+04</rscale>
<asrwt>0</asrwt>
<pdfrwt beam="1">  1        2 0.15970597E+00 0.16051213E+04</pdfrwt>
<pdfrwt beam="2">  1       -1 0.95457015E-01 0.16051213E+04</pdfrwt>
<totfact> 0.27593554E+01</totfact>
</mgrwt>
</event>
<event>
12    7  0.1729738E-007  0.3361569E+04  0.7818608E-02  0.8147404E-01
          2   -1    0    0  501    0  0.00000000000E+00  0.00000000000E+00  0.40094958412E+04  0.40094958412E+04  0.00000000000E+00 0. -1.
         -1   -1    0    0    0  501 -0.00000000000E+00 -0.00000000000E+00 -0.70458632478E+03  0.70458632478E+03  0.00000000000E+00 0.  1.
         24    2    1    2    0    0  0.13729574754E+04 -0.42874124982E+03  0.23794614058E+04  0.27815633467E+04  0.80167210634E+02 0.  0.
        254    2    1    2    0    0 -0.13729574754E+04  0.42874124982E+03  0.92544811071E+03  0.19325188193E+04  0.89963519995E+03 0.  0.
         23    2    4    4    0    0 -0.41383375488E+03  0.50938226374E+02 -0.13849205679E+03  0.44860997800E+03  0.90651988312E+02 0.  0.
         23    2    4    4    0    0 -0.95912372050E+03  0.37780302345E+03  0.10639401675E+04  0.14839088413E+04  0.85809869049E+02 0.  0.
          4    1    3    3  502    0  0.55761963143E+03 -0.19118432622E+03  0.10448163658E+04  0.11996384197E+04  0.00000000000E+00 0. -1.
         -3    1    3    3    0  502  0.81533784395E+03 -0.23755692361E+03  0.13346450400E+04  0.15819249270E+04  0.00000000000E+00 0.  1.
         13    1    5    5    0    0 -0.39236113912E+03  0.39118597645E+02 -0.10674076503E+03  0.40849861578E+03  0.00000000000E+00 0. -1.
        -13    1    5    5    0    0 -0.21472615761E+02  0.11819628729E+02 -0.31751291765E+02  0.40111362226E+02  0.00000000000E+00 0.  1.
          2    1    6    6  503    0 -0.57638049302E+03  0.19138542827E+03  0.58773430211E+03  0.84514759939E+03  0.00000000000E+00 0. -1.
         -2    1    6    6    0  503 -0.38274322748E+03  0.18641759518E+03  0.47620586539E+03  0.63876124194E+03  0.00000000000E+00 0.  1.
<mgrwt>
<rscale>  0 0.33615686E+04</rscale>
<asrwt>0</asrwt>
<pdfrwt beam="1">  1        2 0.61684550E+00 0.33615686E+04</pdfrwt>
<pdfrwt beam="2">  1       -1 0.10839790E+00 0.33615686E+04</pdfrwt>
<totfact> 0.24994423E-01</totfact>
</mgrwt>
</event>
<event>
12    7  0.1729738E-007  0.2851397E+04  0.7818608E-02  0.8287487E-01
         -1   -1    0    0    0  501 -0.00000000000E+00  0.00000000000E+00  0.93168840725E+03  0.93168840725E+03  0.00000000000E+00 0.  1.
          2   -1    0    0  501    0  0.00000000000E+00 -0.00000000000E+00 -0.21816486651E+04  0.21816486651E+04  0.00000000000E+00 0. -1.
         24    2    1    2    0    0 -0.11270934723E+04 -0.14619035650E+03 -0.12138420705E+04  0.16644558772E+04  0.72728808429E+02 0.  0.
        254    2    1    2    0    0  0.11270934723E+04  0.14619035650E+03 -0.36118187315E+02  0.14488811951E+04  0.89790917045E+03 0.  0.
         23    2    4    4    0    0  0.94722195840E+02  0.30260366869E+03 -0.20264815065E+03  0.38776996393E+03  0.93584172154E+02 0.  0.
         23    2    4    4    0    0  0.10323712764E+04 -0.15641331219E+03  0.16652996333E+03  0.10611112311E+04  0.89270597146E+02 0.  0.
          4    1    3    3  502    0 -0.65644341308E+03 -0.49254760660E+02 -0.69459930985E+03  0.95698076640E+03  0.00000000000E+00 0. -1.
         -3    1    3    3    0  502 -0.47065005920E+03 -0.96935595835E+02 -0.51924276064E+03  0.70747511083E+03  0.00000000000E+00 0.  1.
         13    1    5    5    0    0  0.44090739420E+02  0.26077759746E+03 -0.17027405914E+03  0.31455079695E+03  0.00000000000E+00 0. -1.
        -13    1    5    5    0    0  0.50631456420E+02  0.41826071223E+02 -0.32374091502E+02  0.73219166983E+02  0.00000000000E+00 0.  1.
          3    1    6    6  503    0  0.83289431583E+03 -0.14286860373E+03  0.10293670096E+03  0.85130508261E+03  0.00000000000E+00 0. -1.
         -3    1    6    6    0  503  0.19947696061E+03 -0.13544708459E+02  0.63593262373E+02  0.20980614853E+03  0.00000000000E+00 0.  1.
<mgrwt>
<rscale>  0 0.28513974E+04</rscale>
<asrwt>0</asrwt>
<pdfrwt beam="1">  1        2 0.33563825E+00 0.28513974E+04</pdfrwt>
<pdfrwt beam="2">  1       -1 0.14333668E+00 0.28513974E+04</pdfrwt>
<totfact> 0.20527328E+00</totfact>
</mgrwt>
</event>
<event>
12    7  0.1729738E-007  0.1564812E+04  0.7818608E-02  0.8842461E-01
         -1   -1    0    0    0  501 -0.00000000000E+00  0.00000000000E+00  0.51416317007E+03  0.51416317007E+03  0.00000000000E+00 0.  1.
          2   -1    0    0  501    0  0.00000000000E+00 -0.00000000000E+00 -0.11905938600E+04  0.11905938600E+04  0.00000000000E+00 0. -1.
         24    2    1    2    0    0 -0.76037532829E+02  0.31215889101E+03 -0.61425767312E+03  0.69733428181E+03  0.75747818247E+02 0.  0.
        254    2    1    2    0    0  0.76037532829E+02 -0.31215889101E+03 -0.62173016796E+02  0.10074227483E+04  0.95279075879E+03 0.  0.
         23    2    4    4    0    0  0.49828233456E+02  0.28080047792E+03 -0.23656080478E+03  0.38205320641E+03  0.93122912952E+02 0.  0.
         23    2    4    4    0    0  0.26209299373E+02 -0.59295936893E+03  0.17438778799E+03  0.62536954184E+03  0.91587240846E+02 0.  0.
          4    1    3    3  502    0 -0.52894179822E+02  0.29522172487E+03 -0.53948124275E+03  0.61724684881E+03  0.00000000000E+00 0. -1.
         -3    1    3    3    0  502 -0.23143353007E+02  0.16937166144E+02 -0.74776430373E+02  0.80087433001E+02  0.00000000000E+00 0.  1.
         13    1    5    5    0    0  0.21716135925E+02  0.21392895574E+03 -0.12422721074E+03  0.24833362348E+03  0.00000000000E+00 0. -1.
        -13    1    5    5    0    0  0.28112097531E+02  0.66871522178E+02 -0.11233359405E+03  0.13371958293E+03  0.00000000000E+00 0.  1.
          3    1    6    6  503    0  0.33519851867E+02 -0.39706018486E+03  0.74591305751E+02  0.40539392418E+03  0.00000000000E+00 0. -1.
         -3    1    6    6    0  503 -0.73105524941E+01 -0.19589918408E+03  0.99796482236E+02  0.21997561766E+03  0.00000000000E+00 0.  1.
<mgrwt>
<rscale>  0 0.15648125E+04</rscale>
<asrwt>0</asrwt>
<pdfrwt beam="1">  1        2 0.18316828E+00 0.15648125E+04</pdfrwt>
<pdfrwt beam="2">  1       -1 0.79102027E-01 0.15648125E+04</pdfrwt>
<totfact> 0.33619423E+01</totfact>
</mgrwt>
</event>
<event>
12    7  0.1729738E-007  0.1582433E+04  0.7818608E-02  0.8831414E-01
          2   -1    0    0  501    0  0.00000000000E+00  0.00000000000E+00  0.13122232767E+04  0.13122232767E+04  0.00000000000E+00 0. -1.
         -1   -1    0    0    0  501 -0.00000000000E+00 -0.00000000000E+00 -0.47707064778E+03  0.47707064778E+03  0.00000000000E+00 0.  1.
         24    2    1    2    0    0  0.28138585618E+03 -0.37294052350E+03 -0.14948877662E+02  0.47418477073E+03  0.79781537467E+02 0.  0.
        254    2    1    2    0    0 -0.28138585618E+03  0.37294052350E+03  0.85010150658E+03  0.13151091538E+04  0.88801851369E+03 0.  0.
         23    2    4    4    0    0 -0.38527029491E+03 -0.16140351245E+03  0.23365110305E+03  0.48769787749E+03  0.93659424436E+02 0.  0.
         23    2    4    4    0    0  0.10388443872E+03  0.53434403594E+03  0.61645040353E+03  0.82741127626E+03  0.91009860519E+02 0.  0.
          2    1    3    3  502    0  0.77170967651E+02 -0.14670298482E+03 -0.32450564768E+02  0.16890874209E+03  0.00000000000E+00 0. -1.
         -1    1    3    3    0  502  0.20421488853E+03 -0.22623753868E+03  0.17501687107E+02  0.30527602863E+03  0.00000000000E+00 0.  1.
         13    1    5    5    0    0 -0.12357101804E+03 -0.47506369833E+02  0.26445841960E+02  0.13500383043E+03  0.00000000000E+00 0. -1.
        -13    1    5    5    0    0 -0.26169927686E+03 -0.11389714261E+03  0.20720526109E+03  0.35269404706E+03  0.00000000000E+00 0.  1.
          3    1    6    6  503    0  0.73281560065E+02  0.20611025984E+03  0.20113056798E+03  0.29716179369E+03  0.00000000000E+00 0. -1.
         -3    1    6    6    0  503  0.30602878659E+02  0.32823377611E+03  0.41531983555E+03  0.53024948257E+03  0.00000000000E+00 0.  1.
<mgrwt>
<rscale>  0 0.15824326E+04</rscale>
<asrwt>0</asrwt>
<pdfrwt beam="1">  1        2 0.20188050E+00 0.15824326E+04</pdfrwt>
<pdfrwt beam="2">  1       -1 0.73395485E-01 0.15824326E+04</pdfrwt>
<totfact> 0.33298152E+01</totfact>
</mgrwt>
</event>
<event>
12    7  0.1729738E-007  0.1994840E+04  0.7818608E-02  0.8609037E-01
         -1   -1    0    0    0  501 -0.00000000000E+00  0.00000000000E+00  0.88099477368E+03  0.88099477368E+03  0.00000000000E+00 0.  1.
          2   -1    0    0  501    0  0.00000000000E+00 -0.00000000000E+00 -0.11292305444E+04  0.11292305444E+04  0.00000000000E+00 0. -1.
         24    2    1    2    0    0  0.18476760558E+03  0.24464672686E+03  0.63560607218E+03  0.71012964820E+03  0.79359619617E+02 0.  0.
        254    2    1    2    0    0 -0.18476760558E+03 -0.24464672686E+03 -0.88384184287E+03  0.13000956699E+04  0.90281850808E+03 0.  0.
         23    2    4    4    0    0 -0.53357763827E+03 -0.13904774505E+03 -0.64960841549E+03  0.85709244608E+03  0.92612073644E+02 0.  0.
         23    2    4    4    0    0  0.34881003269E+03 -0.10559898182E+03 -0.23423342738E+03  0.44300322377E+03  0.92557948902E+02 0.  0.
          2    1    3    3  502    0  0.71845685631E+02  0.11299672970E+03  0.19438055120E+03  0.23603784051E+03  0.00000000000E+00 0. -1.
         -1    1    3    3    0  502  0.11292191995E+03  0.13164999716E+03  0.44122552098E+03  0.47409180769E+03  0.00000000000E+00 0.  1.
         13    1    5    5    0    0 -0.48001747884E+03 -0.94366408535E+02 -0.57529409467E+03  0.75517222831E+03  0.00000000000E+00 0. -1.
        -13    1    5    5    0    0 -0.53560159428E+02 -0.44681336510E+02 -0.74314320822E+02  0.10192021777E+03  0.00000000000E+00 0.  1.
          2    1    6    6  503    0  0.16257217798E+03 -0.97448170950E+02 -0.11424264700E+03  0.22130802396E+03  0.00000000000E+00 0. -1.
         -2    1    6    6    0  503  0.18623785471E+03 -0.81508108659E+01 -0.11999078037E+03  0.22169519981E+03  0.00000000000E+00 0.  1.
<mgrwt>
<rscale>  0 0.19948396E+04</rscale>
<asrwt>0</asrwt>
<pdfrwt beam="1">  1        2 0.17372778E+00 0.19948396E+04</pdfrwt>
<pdfrwt beam="2">  1       -1 0.13553766E+00 0.19948396E+04</pdfrwt>
<totfact> 0.10102731E+01</totfact>
</mgrwt>
</event>
<event>
12    7  0.1729738E-007  0.1571030E+04  0.7818608E-02  0.8838546E-01
         -1   -1    0    0    0  501 -0.00000000000E+00  0.00000000000E+00  0.51455482683E+03  0.51455482683E+03  0.00000000000E+00 0.  1.
          2   -1    0    0  501    0  0.00000000000E+00 -0.00000000000E+00 -0.11991602195E+04  0.11991602195E+04  0.00000000000E+00 0. -1.
         24    2    1    2    0    0 -0.34334141726E+03 -0.29042306256E+03 -0.51301275588E+03  0.68534664533E+03  0.65490858126E+02 0.  0.
        254    2    1    2    0    0  0.34334141726E+03  0.29042306256E+03 -0.17159263680E+03  0.10283684010E+04  0.90877315712E+03 0.  0.
         23    2    4    4    0    0  0.24921814521E+03 -0.11024844512E+03 -0.44238908205E+03  0.52714967051E+03  0.88962192236E+02 0.  0.
         23    2    4    4    0    0  0.94123272049E+02  0.40067150767E+03  0.27079644526E+03  0.50121873049E+03  0.92155594668E+02 0.  0.
          4    1    3    3  502    0 -0.29036630866E+03 -0.27094822182E+03 -0.46235132586E+03  0.60950330650E+03  0.00000000000E+00 0. -1.
         -3    1    3    3    0  502 -0.52975108599E+02 -0.19474840735E+02 -0.50661430022E+02  0.75843338828E+02  0.00000000000E+00 0.  1.
         13    1    5    5    0    0  0.13291198274E+02 -0.11651547128E+02 -0.18393518649E+01  0.17770698279E+02  0.00000000000E+00 0. -1.
        -13    1    5    5    0    0  0.23592694694E+03 -0.98596897989E+02 -0.44054973019E+03  0.50937897223E+03  0.00000000000E+00 0.  1.
          1    1    6    6  503    0  0.42018409322E+01  0.70532250831E+02  0.10796885814E+02  0.71477455312E+02  0.00000000000E+00 0. -1.
         -1    1    6    6    0  503  0.89921431116E+02  0.33013925684E+03  0.25999955944E+03  0.42974127518E+03  0.00000000000E+00 0.  1.
<mgrwt>
<rscale>  0 0.15710298E+04</rscale>
<asrwt>0</asrwt>
<pdfrwt beam="1">  1        2 0.18448618E+00 0.15710298E+04</pdfrwt>
<pdfrwt beam="2">  1       -1 0.79162282E-01 0.15710298E+04</pdfrwt>
<totfact> 0.33154047E+01</totfact>
</mgrwt>
</event>
<event>
12    7  0.1729738E-007  0.1823018E+04  0.7818608E-02  0.8694154E-01
         -1   -1    0    0    0  501 -0.00000000000E+00  0.00000000000E+00  0.74779912186E+03  0.74779912186E+03  0.00000000000E+00 0.  1.
          2   -1    0    0  501    0  0.00000000000E+00 -0.00000000000E+00 -0.11110582488E+04  0.11110582488E+04  0.00000000000E+00 0. -1.
         24    2    1    2    0    0  0.13723806654E+03  0.66185389650E+03 -0.25354838956E+03  0.72621043913E+03  0.78803228636E+02 0.  0.
        254    2    1    2    0    0 -0.13723806654E+03 -0.66185389650E+03 -0.10971073740E+03  0.11326469315E+04  0.90220161739E+03 0.  0.
         23    2    4    4    0    0 -0.62959599957E+02 -0.37255869411E+03  0.38553296998E+03  0.54747726978E+03  0.91278684228E+02 0.  0.
         23    2    4    4    0    0 -0.74278466587E+02 -0.28929520239E+03 -0.49524370738E+03  0.58516966177E+03  0.89152670361E+02 0.  0.
          2    1    3    3  502    0  0.10652994248E+03  0.60203915590E+03 -0.24407178630E+03  0.65830905413E+03  0.00000000000E+00 0. -1.
         -1    1    3    3    0  502  0.30708124062E+02  0.59814740596E+02 -0.94766032546E+01  0.67901385003E+02  0.00000000000E+00 0.  1.
         13    1    5    5    0    0  0.16900152930E+01 -0.91623251890E+02  0.14739736663E+03  0.17356168969E+03  0.00000000000E+00 0. -1.
        -13    1    5    5    0    0 -0.64649615250E+02 -0.28093544222E+03  0.23813560335E+03  0.37391558009E+03  0.00000000000E+00 0.  1.
          4    1    6    6  503    0  0.37009849132E+00 -0.33246309803E+02 -0.16431520213E+02  0.37087045514E+02  0.00000000000E+00 0. -1.
         -4    1    6    6    0  503 -0.74648565078E+02 -0.25604889258E+03 -0.47881218717E+03  0.54808261625E+03  0.00000000000E+00 0.  1.
<mgrwt>
<rscale>  0 0.18230177E+04</rscale>
<asrwt>0</asrwt>
<pdfrwt beam="1">  1        2 0.17093204E+00 0.18230177E+04</pdfrwt>
<pdfrwt beam="2">  1       -1 0.11504602E+00 0.18230177E+04</pdfrwt>
<totfact> 0.15808124E+01</totfact>
</mgrwt>
</event>
<event>
12    7  0.1729738E-007  0.1768145E+04  0.7818608E-02  0.8723426E-01
          2   -1    0    0  501    0  0.00000000000E+00  0.00000000000E+00  0.11260593906E+04  0.11260593906E+04  0.00000000000E+00 0. -1.
         -1   -1    0    0    0  501 -0.00000000000E+00 -0.00000000000E+00 -0.69408775644E+03  0.69408775644E+03  0.00000000000E+00 0.  1.
         24    2    1    2    0    0 -0.30525369804E+03  0.13896715437E+03 -0.41515656859E+03  0.53958370090E+03  0.79397126326E+02 0.  0.
        254    2    1    2    0    0  0.30525369804E+03 -0.13896715437E+03  0.84712820276E+03  0.12805634462E+04  0.89984713010E+03 0.  0.
         23    2    4    4    0    0 -0.99002178498E+02 -0.37513437792E+02 -0.14446537049E+03  0.20140187206E+03  0.92107445068E+02 0.  0.
         23    2    4    4    0    0  0.40425587654E+03 -0.10145371658E+03  0.99159357325E+03  0.10791615741E+04  0.87270946929E+02 0.  0.
          2    1    3    3  502    0 -0.66700443331E+02  0.12271410128E+02 -0.45150391694E+02  0.81474502252E+02  0.00000000000E+00 0. -1.
         -1    1    3    3    0  502 -0.23855325471E+03  0.12669574424E+03 -0.37000617690E+03  0.45810919865E+03  0.00000000000E+00 0.  1.
         13    1    5    5    0    0 -0.10680499997E+03 -0.50889917090E+01 -0.11246022531E+03  0.15517895519E+03  0.00000000000E+00 0.  1.
        -13    1    5    5    0    0  0.78028214718E+01 -0.32424446083E+02 -0.32005145171E+02  0.46222916872E+02  0.00000000000E+00 0. -1.
          1    1    6    6  503    0  0.11501523143E+03 -0.44392172343E+02  0.39338476400E+03  0.41225082289E+03  0.00000000000E+00 0. -1.
         -1    1    6    6    0  503  0.28924064511E+03 -0.57061544235E+02  0.59820880924E+03  0.66691075120E+03  0.00000000000E+00 0.  1.
<mgrwt>
<rscale>  0 0.17681448E+04</rscale>
<asrwt>0</asrwt>
<pdfrwt beam="1">  1        2 0.17323991E+00 0.17681448E+04</pdfrwt>
<pdfrwt beam="2">  1       -1 0.10678273E+00 0.17681448E+04</pdfrwt>
<totfact> 0.18552868E+01</totfact>
</mgrwt>
</event>
<event>
12    7  0.1729738E-007  0.1264934E+04  0.7818608E-02  0.9057844E-01
          2   -1    0    0  501    0  0.00000000000E+00  0.00000000000E+00  0.78831889143E+03  0.78831889143E+03  0.00000000000E+00 0. -1.
         -1   -1    0    0    0  501 -0.00000000000E+00 -0.00000000000E+00 -0.50742754532E+03  0.50742754532E+03  0.00000000000E+00 0.  1.
         24    2    1    2    0    0  0.10505931556E+03 -0.61156994579E+02  0.35198221426E+03  0.38075932607E+03  0.79426365067E+02 0.  0.
        254    2    1    2    0    0 -0.10505931556E+03  0.61156994579E+02 -0.71090868146E+02  0.91498711067E+03  0.90408509743E+03 0.  0.
         23    2    4    4    0    0  0.96155133144E+00 -0.19084252471E+03 -0.41513766897E+03  0.46612984778E+03  0.92281942842E+02 0.  0.
         23    2    4    4    0    0 -0.10602086689E+03  0.25199951929E+03  0.34404680082E+03  0.44885726289E+03  0.91435547538E+02 0.  0.
          2    1    3    3  502    0  0.65046951373E+02 -0.76836171965E+02  0.27073686033E+03  0.28884831789E+03  0.00000000000E+00 0. -1.
         -1    1    3    3    0  502  0.40012364182E+02  0.15679177386E+02  0.81245353924E+02  0.91911008183E+02  0.00000000000E+00 0.  1.
         13    1    5    5    0    0 -0.32373971842E+02 -0.64808570293E+02 -0.21854228200E+03  0.23023673438E+03  0.00000000000E+00 0.  1.
        -13    1    5    5    0    0  0.33335523173E+02 -0.12603395442E+03 -0.19659538697E+03  0.23589311340E+03  0.00000000000E+00 0. -1.
          3    1    6    6  503    0 -0.78283203397E+02  0.17137149567E+03  0.16458378953E+03  0.25016848970E+03  0.00000000000E+00 0. -1.
         -3    1    6    6    0  503 -0.27737663490E+02  0.80628023617E+02  0.17946301130E+03  0.19868877319E+03  0.00000000000E+00 0.  1.
<mgrwt>
<rscale>  0 0.12649343E+04</rscale>
<asrwt>0</asrwt>
<pdfrwt beam="1">  1        2 0.12127983E+00 0.12649343E+04</pdfrwt>
<pdfrwt beam="2">  1       -1 0.78065777E-01 0.12649343E+04</pdfrwt>
<totfact> 0.64774293E+01</totfact>
</mgrwt>
</event>
<event>
12    7  0.1729738E-007  0.1765401E+04  0.7818608E-02  0.8724918E-01
         -1   -1    0    0    0  501 -0.00000000000E+00  0.00000000000E+00  0.47261509710E+03  0.47261509710E+03  0.00000000000E+00 0.  1.
          2   -1    0    0  501    0  0.00000000000E+00 -0.00000000000E+00 -0.16486145292E+04  0.16486145292E+04  0.00000000000E+00 0. -1.
         24    2    1    2    0    0  0.18210978824E+03 -0.53167592653E+03 -0.82399932093E+03  0.10005483999E+04  0.79239849898E+02 0.  0.
        254    2    1    2    0    0 -0.18210978824E+03  0.53167592653E+03 -0.35200011116E+03  0.11206812264E+04  0.90342629313E+03 0.  0.
         23    2    4    4    0    0  0.33377364745E+03  0.26393326650E+03 -0.75970238360E+00  0.43553239667E+03  0.92856203373E+02 0.  0.
         23    2    4    4    0    0 -0.51588343569E+03  0.26774266003E+03 -0.35124040877E+03  0.68514882972E+03  0.90759257899E+02 0.  0.
          2    1    3    3  502    0  0.16242330889E+03 -0.47920182783E+03 -0.69295587794E+03  0.85802306021E+03  0.00000000000E+00 0. -1.
         -1    1    3    3    0  502  0.19686479355E+02 -0.52474098700E+02 -0.13104344299E+03  0.14252533969E+03  0.00000000000E+00 0.  1.
         13    1    5    5    0    0  0.27518588370E+02  0.39459215864E+02 -0.26547905504E+02  0.54946280212E+02  0.00000000000E+00 0.  1.
        -13    1    5    5    0    0  0.30625505908E+03  0.22447405064E+03  0.25788203121E+02  0.38058611646E+03  0.00000000000E+00 0. -1.
          1    1    6    6  503    0 -0.24241481076E+03  0.16167163851E+03 -0.13737136173E+03  0.32213902309E+03  0.00000000000E+00 0.  1.
         -1    1    6    6    0  503 -0.27346862493E+03  0.10607102152E+03 -0.21386904704E+03  0.36300980663E+03  0.00000000000E+00 0. -1.
<mgrwt>
<rscale>  0 0.17654009E+04</rscale>
<asrwt>0</asrwt>
<pdfrwt beam="1">  1        2 0.25363301E+00 0.17654009E+04</pdfrwt>
<pdfrwt beam="2">  1       -1 0.72710014E-01 0.17654009E+04</pdfrwt>
<totfact> 0.21547460E+01</totfact>
</mgrwt>
</event>
<event>
12    7  0.1729738E-007  0.1056506E+04  0.7818608E-02  0.9248652E-01
         -1   -1    0    0    0  501 -0.00000000000E+00  0.00000000000E+00  0.10669044505E+03  0.10669044505E+03  0.00000000000E+00 0.  1.
          2   -1    0    0  501    0  0.00000000000E+00 -0.00000000000E+00 -0.26155236828E+04  0.26155236828E+04  0.00000000000E+00 0. -1.
         24    2    1    2    0    0 -0.53595249342E+02  0.24652427766E+02 -0.69528140382E+02  0.12099224372E+03  0.79528408696E+02 0.  0.
        254    2    1    2    0    0  0.53595249342E+02 -0.24652427766E+02 -0.24393050974E+04  0.26012218841E+04  0.90147974987E+03 0.  0.
         23    2    4    4    0    0 -0.80134746074E+02  0.31338483709E+02  0.28568605278E+02  0.12738733849E+03  0.89485701151E+02 0.  0.
         23    2    4    4    0    0  0.13372999542E+03 -0.55990911475E+02 -0.24678737027E+04  0.24738345456E+04  0.91858875916E+02 0.  0.
          4    1    3    3  502    0 -0.38047893861E+02 -0.22515154797E+02 -0.52167562519E+02  0.68381496049E+02  0.00000000000E+00 0. -1.
         -3    1    3    3    0  502 -0.15547355482E+02  0.47167582562E+02 -0.17360577863E+02  0.52610747676E+02  0.00000000000E+00 0.  1.
         13    1    5    5    0    0  0.13328235082E+02  0.27225857255E+02  0.10676142055E+02  0.32138281890E+02  0.00000000000E+00 0.  1.
        -13    1    5    5    0    0 -0.93462981157E+02  0.41126264545E+01  0.17892463223E+02  0.95249056600E+02  0.00000000000E+00 0. -1.
          3    1    6    6  503    0  0.51633103874E+02  0.23887596652E+02 -0.87527522705E+03  0.87712217950E+03  0.00000000000E+00 0. -1.
         -3    1    6    6    0  503  0.82096891543E+02 -0.79878508127E+02 -0.15925984756E+04  0.15967123661E+04  0.00000000000E+00 0.  1.
<mgrwt>
<rscale>  0 0.10565063E+04</rscale>
<asrwt>0</asrwt>
<pdfrwt beam="1">  1        2 0.40238821E+00 0.10565063E+04</pdfrwt>
<pdfrwt beam="2">  1       -1 0.16413917E-01 0.10565063E+04</pdfrwt>
<totfact> 0.97120616E+01</totfact>
</mgrwt>
</event>
<event>
12    7  0.1729738E-007  0.1260606E+04  0.7818608E-02  0.9061402E-01
          2   -1    0    0  501    0  0.00000000000E+00  0.00000000000E+00  0.48115228781E+03  0.48115228781E+03  0.00000000000E+00 0. -1.
         -1   -1    0    0    0  501 -0.00000000000E+00 -0.00000000000E+00 -0.82568875396E+03  0.82568875396E+03  0.00000000000E+00 0.  1.
         24    2    1    2    0    0  0.16297554139E+03 -0.22624887138E+03 -0.21942668251E+03  0.36354888558E+03  0.79184242836E+02 0.  0.
        254    2    1    2    0    0 -0.16297554139E+03  0.22624887138E+03 -0.12510978364E+03  0.94329215618E+03  0.89241137098E+03 0.  0.
         23    2    4    4    0    0 -0.46502608608E+03 -0.26451126300E+02 -0.22721448325E+03  0.52639153921E+03  0.92264339469E+02 0.  0.
         23    2    4    4    0    0  0.30205054469E+03  0.25269999768E+03  0.10210469960E+03  0.41690061698E+03  0.91043585052E+02 0.  0.
          2    1    3    3  502    0  0.34535990115E+02 -0.59964264296E+02 -0.15851533199E+02  0.70990976262E+02  0.00000000000E+00 0. -1.
         -3    1    3    3    0  502  0.12843955128E+03 -0.16628460709E+03 -0.20357514932E+03  0.29255790932E+03  0.00000000000E+00 0.  1.
         13    1    5    5    0    0 -0.17536962871E+03 -0.34915910567E+02 -0.46066833088E+02  0.18465042810E+03  0.00000000000E+00 0.  1.
        -13    1    5    5    0    0 -0.28965645737E+03  0.84647842660E+01 -0.18114765016E+03  0.34174111111E+03  0.00000000000E+00 0. -1.
          2    1    6    6  503    0  0.28601765788E+03  0.25970367112E+03  0.10127339566E+03  0.39938502486E+03  0.00000000000E+00 0. -1.
         -2    1    6    6    0  503  0.16032886807E+02 -0.70036734382E+01  0.83130394644E+00  0.17515592118E+02  0.00000000000E+00 0.  1.
<mgrwt>
<rscale>  0 0.12606063E+04</rscale>
<asrwt>0</asrwt>
<pdfrwt beam="1">  1        2 0.74023430E-01 0.12606063E+04</pdfrwt>
<pdfrwt beam="2">  1       -1 0.12702904E+00 0.12606063E+04</pdfrwt>
<totfact> 0.38918436E+01</totfact>
</mgrwt>
</event>
<event>
12    7  0.1729738E-007  0.1549632E+04  0.7818608E-02  0.8852103E-01
         -1   -1    0    0    0  501 -0.00000000000E+00  0.00000000000E+00  0.32861618753E+03  0.32861618753E+03  0.00000000000E+00 0.  1.
          2   -1    0    0  501    0  0.00000000000E+00 -0.00000000000E+00 -0.18268716336E+04  0.18268716336E+04  0.00000000000E+00 0. -1.
         24    2    1    2    0    0 -0.17490772146E+02 -0.19044935363E+02  0.20619279238E+03  0.22336691848E+03  0.81906507478E+02 0.  0.
        254    2    1    2    0    0  0.17490772146E+02  0.19044935363E+02 -0.17044482385E+04  0.19321209027E+04  0.90954865081E+03 0.  0.
         23    2    4    4    0    0 -0.40708907993E+03 -0.10440152366E+03 -0.59787372231E+03  0.73698074269E+03  0.95217803670E+02 0.  0.
         23    2    4    4    0    0  0.42457985208E+03  0.12344645902E+03 -0.11065745162E+04  0.11951401600E+04  0.91355148201E+02 0.  0.
          2    1    3    3  502    0  0.24220434584E+02 -0.33757733529E+02  0.94142489306E+02  0.10290297526E+03  0.00000000000E+00 0. -1.
         -1    1    3    3    0  502 -0.41711206729E+02  0.14712798166E+02  0.11205030308E+03  0.12046394322E+03  0.00000000000E+00 0.  1.
         13    1    5    5    0    0 -0.30987440652E+03 -0.49320553918E+02 -0.38594796576E+03  0.49740375664E+03  0.00000000000E+00 0. -1.
        -13    1    5    5    0    0 -0.97214673412E+02 -0.55080969744E+02 -0.21192575655E+03  0.23957698605E+03  0.00000000000E+00 0.  1.
          2    1    6    6  503    0  0.39043374689E+03  0.13007642231E+03 -0.95990088336E+03  0.10443984356E+04  0.00000000000E+00 0. -1.
         -2    1    6    6    0  503  0.34146105187E+02 -0.66299632900E+01 -0.14667363281E+03  0.15074172440E+03  0.00000000000E+00 0.  1.
<mgrwt>
<rscale>  0 0.15496317E+04</rscale>
<asrwt>0</asrwt>
<pdfrwt beam="1">  1        2 0.28105717E+00 0.15496317E+04</pdfrwt>
<pdfrwt beam="2">  1       -1 0.50556338E-01 0.15496317E+04</pdfrwt>
<totfact> 0.35930330E+01</totfact>
</mgrwt>
</event>
<event>
12    7  0.1729738E-007  0.1510928E+04  0.7818608E-02  0.8877218E-01
         -1   -1    0    0    0  501 -0.00000000000E+00  0.00000000000E+00  0.45939521004E+03  0.45939521004E+03  0.00000000000E+00 0.  1.
          2   -1    0    0  501    0  0.00000000000E+00 -0.00000000000E+00 -0.12423415543E+04  0.12423415543E+04  0.00000000000E+00 0. -1.
         24    2    1    2    0    0  0.10419907149E+02  0.36118786980E+03 -0.61654280293E+03  0.71905974531E+03  0.79728525128E+02 0.  0.
        254    2    1    2    0    0 -0.10419907149E+02 -0.36118786980E+03 -0.16640354133E+03  0.98267701903E+03  0.89855368978E+03 0.  0.
         23    2    4    4    0    0  0.41548036347E+03 -0.10407012397E+03  0.32853631071E+02  0.43889994798E+03  0.89996000647E+02 0.  0.
         23    2    4    4    0    0 -0.42590027062E+03 -0.25711774583E+03 -0.19925717240E+03  0.54377707105E+03  0.92138518091E+02 0.  0.
          4    1    3    3  502    0  0.43347157714E+02  0.25560780517E+03 -0.44224069620E+03  0.51263160215E+03  0.00000000000E+00 0. -1.
         -3    1    3    3    0  502 -0.32927250565E+02  0.10558006462E+03 -0.17430210673E+03  0.20642814316E+03  0.00000000000E+00 0.  1.
         13    1    5    5    0    0  0.55672832352E+02  0.75289371242E+01  0.26532219088E+02  0.62129765861E+02  0.00000000000E+00 0. -1.
        -13    1    5    5    0    0  0.35980753112E+03 -0.11159906109E+03  0.63214119838E+01  0.37677018212E+03  0.00000000000E+00 0.  1.
          3    1    6    6  503    0 -0.26040353103E+03 -0.20808152480E+03 -0.12913107885E+03  0.35746713899E+03  0.00000000000E+00 0. -1.
         -3    1    6    6    0  503 -0.16549673959E+03 -0.49036221033E+02 -0.70126093550E+02  0.18630993206E+03  0.00000000000E+00 0.  1.
<mgrwt>
<rscale>  0 0.15109279E+04</rscale>
<asrwt>0</asrwt>
<pdfrwt beam="1">  1        2 0.19112947E+00 0.15109279E+04</pdfrwt>
<pdfrwt beam="2">  1       -1 0.70676186E-01 0.15109279E+04</pdfrwt>
<totfact> 0.39795594E+01</totfact>
</mgrwt>
</event>
<event>
12    7  0.1729738E-007  0.2219575E+04  0.7818608E-02  0.8510324E-01
         -1   -1    0    0    0  501 -0.00000000000E+00  0.00000000000E+00  0.76278422348E+03  0.76278422348E+03  0.00000000000E+00 0.  1.
          2   -1    0    0  501    0  0.00000000000E+00 -0.00000000000E+00 -0.16146488926E+04  0.16146488926E+04  0.00000000000E+00 0. -1.
         24    2    1    2    0    0  0.29137709506E+03 -0.80456479339E+03 -0.18976804528E+03  0.88029527176E+03  0.81748004195E+02 0.  0.
        254    2    1    2    0    0 -0.29137709506E+03  0.80456479339E+03 -0.66209662386E+03  0.14971378443E+04  0.10348065845E+04 0.  0.
         23    2    4    4    0    0 -0.32235865762E+03  0.89394741903E+03 -0.84324863294E+03  0.12733679411E+04  0.85677093064E+02 0.  0.
         23    2    4    4    0    0  0.30981562555E+02 -0.89382625647E+02  0.18115200907E+03  0.22376990327E+03  0.91147178960E+02 0.  0.
          4    1    3    3  502    0  0.14401185025E+02 -0.15220902026E+02  0.46680865465E+01  0.21467673852E+02  0.00000000000E+00 0. -1.
         -3    1    3    3    0  502  0.27697591004E+03 -0.78934389136E+03 -0.19443613183E+03  0.85882759791E+03  0.00000000000E+00 0.  1.
         13    1    5    5    0    0 -0.31263542536E+03  0.78922320240E+03 -0.74497179570E+03  0.11294233700E+04  0.00000000000E+00 0. -1.
        -13    1    5    5    0    0 -0.97232322615E+01  0.10472421663E+03 -0.98276837234E+02  0.14394457104E+03  0.00000000000E+00 0.  1.
          1    1    6    6  503    0  0.16603548710E+02 -0.10643594014E+03  0.13677620259E+03  0.17410346573E+03  0.00000000000E+00 0. -1.
         -1    1    6    6    0  503  0.14378013845E+02  0.17053314492E+02  0.44375806478E+02  0.49666437539E+02  0.00000000000E+00 0.  1.
<mgrwt>
<rscale>  0 0.22195754E+04</rscale>
<asrwt>0</asrwt>
<pdfrwt beam="1">  1        2 0.24840752E+00 0.22195754E+04</pdfrwt>
<pdfrwt beam="2">  1       -1 0.11735142E+00 0.22195754E+04</pdfrwt>
<totfact> 0.74353808E+00</totfact>
</mgrwt>
</event>
<event>
12    7  0.1729738E-007  0.1037108E+04  0.7818608E-02  0.9268756E-01
          2   -1    0    0  501    0  0.00000000000E+00  0.00000000000E+00  0.25427152432E+04  0.25427152432E+04  0.00000000000E+00 0. -1.
         -1   -1    0    0    0  501 -0.00000000000E+00 -0.00000000000E+00 -0.10575248287E+03  0.10575248287E+03  0.00000000000E+00 0.  1.
         24    2    1    2    0    0  0.58595666892E+02  0.40717202432E+02  0.40092549582E+03  0.41496253093E+03  0.79757796658E+02 0.  0.
        254    2    1    2    0    0 -0.58595666892E+02 -0.40717202432E+02  0.20360372645E+04  0.22335051952E+04  0.91542687939E+03 0.  0.
         23    2    4    4    0    0 -0.63287292900E+02  0.29798461908E+03  0.17580408672E+04  0.17865995400E+04  0.91815636095E+02 0.  0.
         23    2    4    4    0    0  0.46916260082E+01 -0.33870182152E+03  0.27799639733E+03  0.44690565513E+03  0.87759514630E+02 0.  0.
          2    1    3    3  502    0  0.42178949331E+02 -0.27516601984E+01  0.30983946583E+03  0.31270933786E+03  0.00000000000E+00 0. -1.
         -1    1    3    3    0  502  0.16416717561E+02  0.43468862630E+02  0.91086029989E+02  0.10225319307E+03  0.00000000000E+00 0.  1.
         13    1    5    5    0    0 -0.77696107860E+02  0.24996330208E+03  0.13203854993E+04  0.13460817971E+04  0.00000000000E+00 0.  1.
        -13    1    5    5    0    0  0.14408814960E+02  0.48021317001E+02  0.43765536786E+03  0.44051774295E+03  0.00000000000E+00 0. -1.
          4    1    6    6  503    0 -0.23260636849E+02 -0.21515682861E+03  0.13145523248E+03  0.25320741749E+03  0.00000000000E+00 0. -1.
         -4    1    6    6    0  503  0.27952262857E+02 -0.12354499290E+03  0.14654116485E+03  0.19369823764E+03  0.00000000000E+00 0.  1.
<mgrwt>
<rscale>  0 0.10371084E+04</rscale>
<asrwt>0</asrwt>
<pdfrwt beam="1">  1        2 0.39118691E+00 0.10371084E+04</pdfrwt>
<pdfrwt beam="2">  1       -1 0.16269615E-01 0.10371084E+04</pdfrwt>
<totfact> 0.10875662E+02</totfact>
</mgrwt>
</event>
<event>
12    7  0.1729738E-007  0.1601834E+04  0.7818608E-02  0.8819422E-01
         -1   -1    0    0    0  501 -0.00000000000E+00  0.00000000000E+00  0.37824106841E+03  0.37824106841E+03  0.00000000000E+00 0.  1.
          2   -1    0    0  501    0  0.00000000000E+00 -0.00000000000E+00 -0.16959240480E+04  0.16959240480E+04  0.00000000000E+00 0. -1.
         24    2    1    2    0    0 -0.45400085585E+03  0.24257292914E+02 -0.77887794403E+03  0.90542692899E+03  0.80261314908E+02 0.  0.
        254    2    1    2    0    0  0.45400085585E+03 -0.24257292914E+02 -0.53880503553E+03  0.11687381874E+04  0.93216569932E+03 0.  0.
         23    2    4    4    0    0  0.14480136773E+03 -0.45074371064E+03 -0.36692040638E+03  0.60546719956E+03  0.88445555778E+02 0.  0.
         23    2    4    4    0    0  0.30919948811E+03  0.42648641773E+03 -0.17188462915E+03  0.56327098784E+03  0.10116764327E+03 0.  0.
          4    1    3    3  502    0 -0.15884716018E+03 -0.22765854817E+02 -0.31663641074E+03  0.35497791629E+03  0.00000000000E+00 0. -1.
         -3    1    3    3    0  502 -0.29515369567E+03  0.47023147731E+02 -0.46224153328E+03  0.55044901270E+03  0.00000000000E+00 0.  1.
         13    1    5    5    0    0  0.89244531417E+02 -0.27242134737E+03 -0.27521045292E+03  0.39738994739E+03  0.00000000000E+00 0. -1.
        -13    1    5    5    0    0  0.55556836313E+02 -0.17832236328E+03 -0.91709953465E+02  0.20807725217E+03  0.00000000000E+00 0.  1.
          4    1    6    6  503    0 -0.13057520084E+01 -0.32091442669E+01  0.34464873549E+01  0.48869080532E+01  0.00000000000E+00 0. -1.
         -4    1    6    6    0  503  0.31050524012E+03  0.42969556200E+03 -0.17533111650E+03  0.55838407979E+03  0.00000000000E+00 0.  1.
<mgrwt>
<rscale>  0 0.16018341E+04</rscale>
<asrwt>0</asrwt>
<pdfrwt beam="1">  1        2 0.26091139E+00 0.16018341E+04</pdfrwt>
<pdfrwt beam="2">  1       -1 0.58190934E-01 0.16018341E+04</pdfrwt>
<totfact> 0.32218344E+01</totfact>
</mgrwt>
</event>
<event>
12    7  0.1729738E-007  0.2137229E+04  0.7818608E-02  0.8545019E-01
          2   -1    0    0  501    0  0.00000000000E+00  0.00000000000E+00  0.30124305133E+04  0.30124305133E+04  0.00000000000E+00 0. -1.
         -1   -1    0    0    0  501 -0.00000000000E+00 -0.00000000000E+00 -0.37907507633E+03  0.37907507633E+03  0.00000000000E+00 0.  1.
         24    2    1    2    0    0 -0.71829778261E+03 -0.48055373503E+03  0.13257538074E+04  0.15845704454E+04  0.79729178773E+02 0.  0.
        254    2    1    2    0    0  0.71829778261E+03  0.48055373503E+03  0.13076016295E+04  0.18069351442E+04  0.89906006301E+03 0.  0.
         23    2    4    4    0    0  0.71209854657E+03  0.93995741585E+02  0.42571117426E+03  0.83978448507E+03  0.89935743771E+02 0.  0.
         23    2    4    4    0    0  0.61992360387E+01  0.38655799345E+03  0.88189045529E+03  0.96715065911E+03  0.90466067964E+02 0.  0.
          4    1    3    3  502    0 -0.29613174221E+03 -0.21381620537E+03  0.62867410707E+03  0.72707806412E+03  0.00000000000E+00 0. -1.
         -3    1    3    3    0  502 -0.42216604040E+03 -0.26673752966E+03  0.69707970031E+03  0.85749238130E+03  0.00000000000E+00 0.  1.
         13    1    5    5    0    0  0.68910790914E+03  0.10593921871E+03  0.41729405728E+03  0.81254363498E+03  0.00000000000E+00 0. -1.
        -13    1    5    5    0    0  0.22990637428E+02 -0.11943477128E+02  0.84171169737E+01  0.27240850085E+02  0.00000000000E+00 0.  1.
          1    1    6    6  503    0  0.23322353345E+02  0.23006656080E+03  0.61829995201E+03  0.66012830967E+03  0.00000000000E+00 0. -1.
         -1    1    6    6    0  503 -0.17123117306E+02  0.15649143264E+03  0.26359050328E+03  0.30702234944E+03  0.00000000000E+00 0.  1.
<mgrwt>
<rscale>  0 0.21372294E+04</rscale>
<asrwt>0</asrwt>
<pdfrwt beam="1">  1        2 0.46345083E+00 0.21372294E+04</pdfrwt>
<pdfrwt beam="2">  1       -1 0.58319244E-01 0.21372294E+04</pdfrwt>
<totfact> 0.53354293E+00</totfact>
</mgrwt>
</event>
<event>
12    7  0.1729738E-007  0.1339726E+04  0.7818608E-02  0.8998642E-01
          2   -1    0    0  501    0  0.00000000000E+00  0.00000000000E+00  0.79495765259E+03  0.79495765259E+03  0.00000000000E+00 0. -1.
         -1   -1    0    0    0  501 -0.00000000000E+00 -0.00000000000E+00 -0.56445328954E+03  0.56445328954E+03  0.00000000000E+00 0.  1.
         24    2    1    2    0    0  0.19855631370E+03 -0.11905508816E+03  0.35091657371E+03  0.42780397825E+03  0.79215392300E+02 0.  0.
        254    2    1    2    0    0 -0.19855631370E+03  0.11905508816E+03 -0.12041221066E+03  0.93160696388E+03  0.89431186448E+03 0.  0.
         23    2    4    4    0    0  0.33187182916E+03 -0.27107387579E+02  0.48801270883E+02  0.34870816903E+03  0.91335106389E+02 0.  0.
         23    2    4    4    0    0 -0.53042814285E+03  0.14616247574E+03 -0.16921348154E+03  0.58289879486E+03  0.91762294350E+02 0.  0.
          4    1    3    3  502    0  0.20069599223E+03 -0.12461783501E+03  0.34919745435E+03  0.42160093480E+03  0.00000000000E+00 0. -1.
         -3    1    3    3    0  502 -0.21396785337E+01  0.55627468479E+01  0.17191193656E+01  0.62030434558E+01  0.00000000000E+00 0.  1.
         13    1    5    5    0    0  0.16464268512E+03  0.20315476462E+02  0.55009599775E+02  0.17477410682E+03  0.00000000000E+00 0. -1.
        -13    1    5    5    0    0  0.16722914403E+03 -0.47422864041E+02 -0.62083288916E+01  0.17393406221E+03  0.00000000000E+00 0.  1.
          4    1    6    6  503    0 -0.17152220613E+03  0.77011790989E+02 -0.23758495732E+02  0.18951292638E+03  0.00000000000E+00 0.  1.
         -4    1    6    6    0  503 -0.35890593672E+03  0.69150684749E+02 -0.14545498581E+03  0.39338586847E+03  0.00000000000E+00 0. -1.
<mgrwt>
<rscale>  0 0.13397260E+04</rscale>
<asrwt>0</asrwt>
<pdfrwt beam="1">  1        2 0.12230118E+00 0.13397260E+04</pdfrwt>
<pdfrwt beam="2">  1       -1 0.86838968E-01 0.13397260E+04</pdfrwt>
<totfact> 0.50679933E+01</totfact>
</mgrwt>
</event>
<event>
12    7  0.1729738E-007  0.2220719E+04  0.7818608E-02  0.8509854E-01
         -1   -1    0    0    0  501 -0.00000000000E+00  0.00000000000E+00  0.60197130419E+03  0.60197130419E+03  0.00000000000E+00 0.  1.
          2   -1    0    0  501    0  0.00000000000E+00 -0.00000000000E+00 -0.20481007589E+04  0.20481007589E+04  0.00000000000E+00 0. -1.
         24    2    1    2    0    0 -0.77912453242E+03 -0.35939178898E+03 -0.97875368639E+03  0.13042548945E+04  0.83213918743E+02 0.  0.
        254    2    1    2    0    0  0.77912453242E+03  0.35939178898E+03 -0.46737576835E+03  0.13458171686E+04  0.92551944736E+03 0.  0.
         23    2    4    4    0    0  0.89938447771E+03  0.77045440516E+02 -0.47956607992E+03  0.10262579834E+04  0.91615418002E+02 0.  0.
         23    2    4    4    0    0 -0.12025994530E+03  0.28234634846E+03  0.12190311569E+02  0.31955918520E+03  0.88247120166E+02 0.  0.
          4    1    3    3  502    0 -0.43270326021E+03 -0.21101733186E+03 -0.48798986793E+03  0.68548853889E+03  0.00000000000E+00 0. -1.
         -3    1    3    3    0  502 -0.34642127221E+03 -0.14837445712E+03 -0.49076381845E+03  0.61876635564E+03  0.00000000000E+00 0.  1.
         13    1    5    5    0    0  0.33056018332E+03  0.66695460069E+02 -0.15338098750E+03  0.37046463599E+03  0.00000000000E+00 0.  1.
        -13    1    5    5    0    0  0.56882429440E+03  0.10349980447E+02 -0.32618509242E+03  0.65579334741E+03  0.00000000000E+00 0. -1.
          1    1    6    6  503    0 -0.10271724667E+03  0.21383642006E+03  0.45231527718E+02  0.24150101119E+03  0.00000000000E+00 0. -1.
         -1    1    6    6    0  503 -0.17542698624E+02  0.68509928406E+02 -0.33041216149E+02  0.78058174010E+02  0.00000000000E+00 0.  1.
<mgrwt>
<rscale>  0 0.22207187E+04</rscale>
<asrwt>0</asrwt>
<pdfrwt beam="1">  1        2 0.31509243E+00 0.22207187E+04</pdfrwt>
<pdfrwt beam="2">  1       -1 0.92610969E-01 0.22207187E+04</pdfrwt>
<totfact> 0.73946588E+00</totfact>
</mgrwt>
</event>
<event>
12    7  0.1729738E-007  0.1873323E+04  0.7818608E-02  0.8668250E-01
         -1   -1    0    0    0  501 -0.00000000000E+00  0.00000000000E+00  0.33378664857E+03  0.33378664857E+03  0.00000000000E+00 0.  1.
          2   -1    0    0  501    0  0.00000000000E+00 -0.00000000000E+00 -0.26284308264E+04  0.26284308264E+04  0.00000000000E+00 0. -1.
         24    2    1    2    0    0  0.55620598110E+03  0.22399293906E+03 -0.32554703952E+03  0.68777902979E+03  0.86724787218E+02 0.  0.
        254    2    1    2    0    0 -0.55620598110E+03 -0.22399293906E+03 -0.19690971383E+04  0.22744384452E+04  0.96756848371E+03 0.  0.
         23    2    4    4    0    0 -0.49333901343E+03 -0.52734872603E+03 -0.17179060963E+04  0.18656931433E+04  0.90163673092E+02 0.  0.
         23    2    4    4    0    0 -0.62866967667E+02  0.30335578697E+03 -0.25119104196E+03  0.40874530192E+03  0.89435972447E+02 0.  0.
          2    1    3    3  502    0  0.41594905784E+02 -0.40179185828E+01 -0.34109722535E+02  0.53942126658E+02  0.00000000000E+00 0. -1.
         -1    1    3    3    0  502  0.51461107531E+03  0.22801085764E+03 -0.29143731699E+03  0.63383690313E+03  0.00000000000E+00 0.  1.
         13    1    5    5    0    0 -0.15085373061E+03 -0.21309886931E+03 -0.55543403302E+03  0.61373849576E+03  0.00000000000E+00 0. -1.
        -13    1    5    5    0    0 -0.34248528282E+03 -0.31424985672E+03 -0.11624720633E+04  0.12519546475E+04  0.00000000000E+00 0.  1.
          3    1    6    6  503    0 -0.57580491586E+02  0.19514038490E+03 -0.21119222965E+03  0.29325320236E+03  0.00000000000E+00 0. -1.
         -3    1    6    6    0  503 -0.52864760816E+01  0.10821540206E+03 -0.39998812311E+02  0.11549209956E+03  0.00000000000E+00 0.  1.
<mgrwt>
<rscale>  0 0.18733234E+04</rscale>
<asrwt>0</asrwt>
<pdfrwt beam="1">  1        2 0.40437398E+00 0.18733234E+04</pdfrwt>
<pdfrwt beam="2">  1       -1 0.51351791E-01 0.18733234E+04</pdfrwt>
<totfact> 0.11950602E+01</totfact>
</mgrwt>
</event>
<event>
12    7  0.1729738E-007  0.1481326E+04  0.7818608E-02  0.8896967E-01
         -1   -1    0    0    0  501 -0.00000000000E+00  0.00000000000E+00  0.90197871776E+03  0.90197871776E+03  0.00000000000E+00 0.  1.
          2   -1    0    0  501    0  0.00000000000E+00 -0.00000000000E+00 -0.60819797282E+03  0.60819797282E+03  0.00000000000E+00 0. -1.
         24    2    1    2    0    0  0.24273305527E+03  0.39626150671E+03  0.64717213475E+02  0.47641525173E+03  0.82708261640E+02 0.  0.
        254    2    1    2    0    0 -0.24273305527E+03 -0.39626150671E+03  0.22906353146E+03  0.10337614388E+04  0.89456698641E+03 0.  0.
         23    2    4    4    0    0 -0.29251595646E+03 -0.60950829348E+03 -0.29684024151E+02  0.68288882006E+03  0.91597241578E+02 0.  0.
         23    2    4    4    0    0  0.49782901193E+02  0.21324678677E+03  0.25874755562E+03  0.35087261879E+03  0.90602250317E+02 0.  0.
          2    1    3    3  502    0  0.29630495130E+02  0.55725062789E+02 -0.19313817450E+02  0.66002063673E+02  0.00000000000E+00 0. -1.
         -1    1    3    3    0  502  0.21310256014E+03  0.34053644392E+03  0.84031030925E+02  0.41041318806E+03  0.00000000000E+00 0.  1.
         13    1    5    5    0    0 -0.30892210121E+02 -0.86341150887E+02  0.25977693377E+02  0.95309829167E+02  0.00000000000E+00 0.  1.
        -13    1    5    5    0    0 -0.26162374634E+03 -0.52316714259E+03 -0.55661717528E+02  0.58757899089E+03  0.00000000000E+00 0. -1.
          4    1    6    6  503    0  0.34023542922E+02  0.21616678403E+03  0.25122899577E+03  0.33316915870E+03  0.00000000000E+00 0. -1.
         -4    1    6    6    0  503  0.15759358270E+02 -0.29199972655E+01  0.75185598473E+01  0.17703460094E+02  0.00000000000E+00 0.  1.
<mgrwt>
<rscale>  0 0.14813259E+04</rscale>
<asrwt>0</asrwt>
<pdfrwt beam="1">  1        2 0.93568919E-01 0.14813259E+04</pdfrwt>
<pdfrwt beam="2">  1       -1 0.13876596E+00 0.14813259E+04</pdfrwt>
<totfact> 0.23140885E+01</totfact>
</mgrwt>
</event>
<event>
12    7  0.1729738E-007  0.1705480E+04  0.7818608E-02  0.8758245E-01
          2   -1    0    0  501    0  0.00000000000E+00  0.00000000000E+00  0.29964241235E+04  0.29964241235E+04  0.00000000000E+00 0. -1.
         -1   -1    0    0    0  501 -0.00000000000E+00 -0.00000000000E+00 -0.24267770829E+03  0.24267770829E+03  0.00000000000E+00 0.  1.
         24    2    1    2    0    0  0.61242047910E+03  0.41165958345E+02  0.97831796768E+03  0.11576034611E+04  0.78652704464E+02 0.  0.
        254    2    1    2    0    0 -0.61242047910E+03 -0.41165958345E+02  0.17754284475E+04  0.20814983706E+04  0.89651314295E+03 0.  0.
         23    2    4    4    0    0  0.16369789014E+02  0.31243323618E+03  0.81040478093E+03  0.87325281738E+03  0.89062208823E+02 0.  0.
         23    2    4    4    0    0 -0.62879026811E+03 -0.35359919453E+03  0.96502366655E+03  0.12082455533E+04  0.90427033121E+02 0.  0.
          2    1    3    3  502    0  0.52493310789E+03  0.77392177145E+01  0.82013800286E+03  0.97377667203E+03  0.00000000000E+00 0. -1.
         -1    1    3    3    0  502  0.87487371205E+02  0.33426740631E+02  0.15817996482E+03  0.18382678907E+03  0.00000000000E+00 0.  1.
         13    1    5    5    0    0 -0.51883836908E+01  0.54278994867E+02  0.24989245967E+03  0.25577210561E+03  0.00000000000E+00 0. -1.
        -13    1    5    5    0    0  0.21558172705E+02  0.25815424132E+03  0.56051232127E+03  0.61748071177E+03  0.00000000000E+00 0.  1.
          1    1    6    6  503    0 -0.12464576819E+03 -0.60969639849E+02  0.24789815846E+03  0.28409041075E+03  0.00000000000E+00 0. -1.
         -1    1    6    6    0  503 -0.50414449992E+03 -0.29262955468E+03  0.71712550809E+03  0.92415514251E+03  0.00000000000E+00 0.  1.
<mgrwt>
<rscale>  0 0.17054798E+04</rscale>
<asrwt>0</asrwt>
<pdfrwt beam="1">  1        2 0.46098830E+00 0.17054798E+04</pdfrwt>
<pdfrwt beam="2">  1       -1 0.37335034E-01 0.17054798E+04</pdfrwt>
<totfact> 0.13152703E+01</totfact>
</mgrwt>
</event>
<event>
12    7  0.1729738E-007  0.2516364E+04  0.7818608E-02  0.8397179E-01
         -1   -1    0    0    0  501 -0.00000000000E+00  0.00000000000E+00  0.51321906427E+03  0.51321906427E+03  0.00000000000E+00 0.  1.
          2   -1    0    0  501    0  0.00000000000E+00 -0.00000000000E+00 -0.30844945836E+04  0.30844945836E+04  0.00000000000E+00 0. -1.
         24    2    1    2    0    0 -0.17158567491E+03 -0.28974779605E+03 -0.26131650899E+04  0.26359875041E+04  0.80018158432E+02 0.  0.
        254    2    1    2    0    0  0.17158567491E+03  0.28974779605E+03  0.41889570614E+02  0.96172614369E+03  0.89987055190E+03 0.  0.
         23    2    4    4    0    0  0.19262293301E+03  0.59719472832E+02  0.43996719312E+03  0.49252750698E+03  0.91335668566E+02 0.  0.
         23    2    4    4    0    0 -0.21037258099E+02  0.23002832322E+03 -0.39807762250E+03  0.46919863671E+03  0.91246761287E+02 0.  0.
          2    1    3    3  502    0 -0.17570977467E+03 -0.27130701141E+03 -0.25372197766E+04  0.25577266496E+04  0.00000000000E+00 0. -1.
         -1    1    3    3    0  502  0.41240997635E+01 -0.18440784641E+02 -0.75945313276E+02  0.78260854490E+02  0.00000000000E+00 0.  1.
         13    1    5    5    0    0  0.35885835324E+02 -0.91448119746E+01  0.28068945355E+02  0.46468123013E+02  0.00000000000E+00 0.  1.
        -13    1    5    5    0    0  0.15673709769E+03  0.68864284807E+02  0.41189824776E+03  0.44605938396E+03  0.00000000000E+00 0. -1.
          1    1    6    6  503    0 -0.27127512931E+02  0.23695611379E+03 -0.38873913294E+03  0.45607259871E+03  0.00000000000E+00 0. -1.
         -1    1    6    6    0  503  0.60902548314E+01 -0.69277905757E+01 -0.93384895674E+01  0.13126038000E+02  0.00000000000E+00 0.  1.
<mgrwt>
<rscale>  0 0.25163636E+04</rscale>
<asrwt>0</asrwt>
<pdfrwt beam="1">  1        2 0.47453763E+00 0.25163636E+04</pdfrwt>
<pdfrwt beam="2">  1       -1 0.78956779E-01 0.25163636E+04</pdfrwt>
<totfact> 0.25020182E+00</totfact>
</mgrwt>
</event>
<event>
12    7  0.1729738E-007  0.4761841E+04  0.7818608E-02  0.7866334E-01
          2   -1    0    0  501    0  0.00000000000E+00  0.00000000000E+00  0.34958715302E+04  0.34958715302E+04  0.00000000000E+00 0. -1.
         -1   -1    0    0    0  501 -0.00000000000E+00 -0.00000000000E+00 -0.16215648986E+04  0.16215648986E+04  0.00000000000E+00 0.  1.
         24    2    1    2    0    0 -0.37053765443E+03  0.18017194096E+04 -0.57282351050E+03  0.19282601453E+04  0.81052017677E+02 0.  0.
        254    2    1    2    0    0  0.37053765443E+03 -0.18017194096E+04  0.24471301421E+04  0.31891762835E+04  0.89381678809E+03 0.  0.
         23    2    4    4    0    0 -0.21354916253E+03 -0.76481242363E+03  0.64110516653E+03  0.10246670183E+04  0.91571696509E+02 0.  0.
         23    2    4    4    0    0  0.58408681696E+03 -0.10369069859E+04  0.18060249755E+04  0.21645092652E+04  0.83908519778E+02 0.  0.
          2    1    3    3  502    0 -0.66838907576E+02  0.30755439725E+03 -0.13014912856E+03  0.34058177065E+03  0.00000000000E+00 0. -1.
         -1    1    3    3    0  502 -0.30369874685E+03  0.14941650123E+04 -0.44267438194E+03  0.15876783746E+04  0.00000000000E+00 0.  1.
         13    1    5    5    0    0 -0.57820835362E+02 -0.35581711536E+03  0.31764471066E+03  0.48046563956E+03  0.00000000000E+00 0. -1.
        -13    1    5    5    0    0 -0.15572832717E+03 -0.40899530827E+03  0.32346045587E+03  0.54420137871E+03  0.00000000000E+00 0.  1.
          4    1    6    6  503    0  0.30559324136E+03 -0.54496429624E+03  0.10239234863E+04  0.11994968191E+04  0.00000000000E+00 0. -1.
         -4    1    6    6    0  503  0.27849357560E+03 -0.49194268971E+03  0.78210148925E+03  0.96501244608E+03  0.00000000000E+00 0.  1.
<mgrwt>
<rscale>  0 0.47618411E+04</rscale>
<asrwt>0</asrwt>
<pdfrwt beam="1">  1        2 0.53782639E+00 0.47618411E+04</pdfrwt>
<pdfrwt beam="2">  1       -1 0.24947152E+00 0.47618411E+04</pdfrwt>
<totfact> 0.48355012E-02</totfact>
</mgrwt>
</event>
<event>
12    7  0.1729738E-007  0.3915790E+04  0.7818608E-02  0.8021753E-01
         -1   -1    0    0    0  501 -0.00000000000E+00  0.00000000000E+00  0.15859310575E+04  0.15859310575E+04  0.00000000000E+00 0.  1.
          2   -1    0    0  501    0  0.00000000000E+00 -0.00000000000E+00 -0.24170993652E+04  0.24170993652E+04  0.00000000000E+00 0. -1.
         24    2    1    2    0    0 -0.16787314435E+04  0.17299984780E+03 -0.12083393867E+04  0.20770988439E+04  0.78659564158E+02 0.  0.
        254    2    1    2    0    0  0.16787314435E+04 -0.17299984780E+03  0.37717107899E+03  0.19259315789E+04  0.84787158040E+03 0.  0.
         23    2    4    4    0    0  0.13033127637E+04  0.19185497201E+03  0.95525909495E+02  0.13238447168E+04  0.89482648650E+02 0.  0.
         23    2    4    4    0    0  0.37541867980E+03 -0.36485481981E+03  0.28164516950E+03  0.60208686208E+03  0.95532001491E+02 0.  0.
          4    1    3    3  502    0 -0.16693943747E+04  0.16838754702E+03 -0.11938269077E+04  0.20592364191E+04  0.00000000000E+00 0. -1.
         -3    1    3    3    0  502 -0.93370688622E+01  0.46123007854E+01 -0.14512478971E+02  0.17862424789E+02  0.00000000000E+00 0.  1.
         13    1    5    5    0    0  0.99500532664E+03  0.11549349358E+03  0.49543179048E+02  0.10029102022E+04  0.00000000000E+00 0. -1.
        -13    1    5    5    0    0  0.30830743710E+03  0.76361478430E+02  0.45982730447E+02  0.32093451460E+03  0.00000000000E+00 0.  1.
          3    1    6    6  503    0  0.29737597199E+03 -0.23263919279E+03  0.18278124322E+03  0.41947877850E+03  0.00000000000E+00 0. -1.
         -3    1    6    6    0  503  0.78042707811E+02 -0.13221562702E+03  0.98863926273E+02  0.18260808358E+03  0.00000000000E+00 0.  1.
<mgrwt>
<rscale>  0 0.39157901E+04</rscale>
<asrwt>0</asrwt>
<pdfrwt beam="1">  1        2 0.37186144E+00 0.39157901E+04</pdfrwt>
<pdfrwt beam="2">  1       -1 0.24398939E+00 0.39157901E+04</pdfrwt>
<totfact> 0.26785244E-01</totfact>
</mgrwt>
</event>
<event>
12    7  0.1729738E-007  0.1666205E+04  0.7818608E-02  0.8780877E-01
         -1   -1    0    0    0  501 -0.00000000000E+00  0.00000000000E+00  0.27466982402E+03  0.27466982402E+03  0.00000000000E+00 0.  1.
          2   -1    0    0  501    0  0.00000000000E+00 -0.00000000000E+00 -0.25268864660E+04  0.25268864660E+04  0.00000000000E+00 0. -1.
         24    2    1    2    0    0  0.29586890209E+02 -0.39893883070E+03 -0.15100421449E+04  0.15639092685E+04  0.74547609664E+02 0.  0.
        254    2    1    2    0    0 -0.29586890209E+02  0.39893883070E+03 -0.74217449716E+03  0.12376470216E+04  0.90604613076E+03 0.  0.
         23    2    4    4    0    0  0.35360334947E+02 -0.90983937667E+02 -0.72186836800E+03  0.73441472575E+03  0.93501970397E+02 0.  0.
         23    2    4    4    0    0 -0.64947225156E+02  0.48992276837E+03 -0.20306129155E+02  0.50323229582E+03  0.92671158726E+02 0.  0.
          4    1    3    3  502    0  0.16638223778E+02 -0.36954877915E+03 -0.13069546274E+04  0.13582980265E+04  0.00000000000E+00 0. -1.
         -3    1    3    3    0  502  0.12948666431E+02 -0.29390051548E+02 -0.20308751746E+03  0.20561124201E+03  0.00000000000E+00 0.  1.
         13    1    5    5    0    0  0.32542126318E+01  0.10605410903E+02 -0.11056026765E+02  0.15662067811E+02  0.00000000000E+00 0. -1.
        -13    1    5    5    0    0  0.32106122315E+02 -0.10158934857E+03 -0.71081234124E+03  0.71875265794E+03  0.00000000000E+00 0.  1.
          3    1    6    6  503    0 -0.62292381860E+02  0.22450299020E+03 -0.42665361049E+02  0.23685917014E+03  0.00000000000E+00 0. -1.
         -3    1    6    6    0  503 -0.26548432958E+01  0.26541977817E+03  0.22359231894E+02  0.26637312569E+03  0.00000000000E+00 0.  1.
<mgrwt>
<rscale>  0 0.16662046E+04</rscale>
<asrwt>0</asrwt>
<pdfrwt beam="1">  1        2 0.38875177E+00 0.16662046E+04</pdfrwt>
<pdfrwt beam="2">  1       -1 0.42256896E-01 0.16662046E+04</pdfrwt>
<totfact> 0.20123901E+01</totfact>
</mgrwt>
</event>
<event>
12    7  0.1729738E-007  0.1595090E+04  0.7818608E-02  0.8823570E-01
          2   -1    0    0  501    0  0.00000000000E+00  0.00000000000E+00  0.77361161872E+03  0.77361161872E+03  0.00000000000E+00 0. -1.
         -1   -1    0    0    0  501 -0.00000000000E+00 -0.00000000000E+00 -0.82221895175E+03  0.82221895175E+03  0.00000000000E+00 0.  1.
         24    2    1    2    0    0  0.29442041813E+03  0.46907638530E+03 -0.52338276317E+00  0.55972484558E+03  0.81090017698E+02 0.  0.
        254    2    1    2    0    0 -0.29442041813E+03 -0.46907638530E+03 -0.48083950267E+02  0.10361057249E+04  0.87434945475E+03 0.  0.
         23    2    4    4    0    0 -0.53886597038E+03 -0.53187420040E+03 -0.48143965116E+02  0.76420283404E+03  0.91768355553E+02 0.  0.
         23    2    4    4    0    0  0.24444555225E+03  0.62797815100E+02  0.60014849891E-01  0.27190289085E+03  0.10116315958E+03 0.  0.
          2    1    3    3  502    0  0.20365863404E+03  0.29734321222E+03  0.35586022325E+02  0.36215492549E+03  0.00000000000E+00 0. -1.
         -1    1    3    3    0  502  0.90761784084E+02  0.17173317308E+03 -0.36109405088E+02  0.19756992009E+03  0.00000000000E+00 0.  1.
         13    1    5    5    0    0 -0.20139166864E+03 -0.26255535244E+03 -0.18108111264E+02  0.33139375520E+03  0.00000000000E+00 0. -1.
        -13    1    5    5    0    0 -0.33747430174E+03 -0.26931884796E+03 -0.30035853853E+02  0.43280907883E+03  0.00000000000E+00 0.  1.
          4    1    6    6  503    0  0.25238666640E+02  0.42233017845E+02 -0.14386538287E+02  0.51260029008E+02  0.00000000000E+00 0. -1.
         -4    1    6    6    0  503  0.21920688561E+03  0.20564797255E+02  0.14446553137E+02  0.22064286185E+03  0.00000000000E+00 0.  1.
<mgrwt>
<rscale>  0 0.15950901E+04</rscale>
<asrwt>0</asrwt>
<pdfrwt beam="1">  1        2 0.11901717E+00 0.15950901E+04</pdfrwt>
<pdfrwt beam="2">  1       -1 0.12649522E+00 0.15950901E+04</pdfrwt>
<totfact> 0.21431921E+01</totfact>
</mgrwt>
</event>
<event>
12    7  0.1729738E-007  0.1975769E+04  0.7818608E-02  0.8618034E-01
         -1   -1    0    0    0  501 -0.00000000000E+00  0.00000000000E+00  0.46928401795E+03  0.46928401795E+03  0.00000000000E+00 0.  1.
          2   -1    0    0  501    0  0.00000000000E+00 -0.00000000000E+00 -0.20795847781E+04  0.20795847781E+04  0.00000000000E+00 0. -1.
         24    2    1    2    0    0  0.37208439108E+03  0.47028039336E+03 -0.12846479651E+04  0.14200303631E+04  0.80965396049E+02 0.  0.
        254    2    1    2    0    0 -0.37208439108E+03 -0.47028039336E+03 -0.32565279505E+03  0.11288384330E+04  0.89923079483E+03 0.  0.
         23    2    4    4    0    0  0.54135188066E+02 -0.52473834269E+03 -0.42013637647E+03  0.67994166387E+03  0.86747591087E+02 0.  0.
         23    2    4    4    0    0 -0.42621957915E+03  0.54457949330E+02  0.94483581425E+02  0.44889676910E+03  0.89176029617E+02 0.  0.
          2    1    3    3  502    0  0.21216395142E+03  0.29778346666E+03 -0.86189745913E+03  0.93624556893E+03  0.00000000000E+00 0. -1.
         -1    1    3    3    0  502  0.15992043966E+03  0.17249692670E+03 -0.42275050596E+03  0.48378479413E+03  0.00000000000E+00 0.  1.
         13    1    5    5    0    0 -0.21376702724E+02 -0.93771072595E+02 -0.91328111005E+02  0.13263031831E+03  0.00000000000E+00 0. -1.
        -13    1    5    5    0    0  0.75511890790E+02 -0.43096727009E+03 -0.32880826547E+03  0.54731134556E+03  0.00000000000E+00 0.  1.
          1    1    6    6  503    0 -0.32564150921E+02  0.22720164771E+02  0.27559436415E+02  0.48333759919E+02  0.00000000000E+00 0. -1.
         -1    1    6    6    0  503 -0.39365542822E+03  0.31737784559E+02  0.66924145010E+02  0.40056300918E+03  0.00000000000E+00 0.  1.
<mgrwt>
<rscale>  0 0.19757691E+04</rscale>
<asrwt>0</asrwt>
<pdfrwt beam="1">  1        2 0.31993612E+00 0.19757691E+04</pdfrwt>
<pdfrwt beam="2">  1       -1 0.72197541E-01 0.19757691E+04</pdfrwt>
<totfact> 0.12374710E+01</totfact>
</mgrwt>
</event>
<event>
12    7  0.1729738E-007  0.2015350E+04  0.7818608E-02  0.8599477E-01
          2   -1    0    0  501    0  0.00000000000E+00  0.00000000000E+00  0.13682973294E+04  0.13682973294E+04  0.00000000000E+00 0. -1.
         -1   -1    0    0    0  501 -0.00000000000E+00 -0.00000000000E+00 -0.74209674110E+03  0.74209674110E+03  0.00000000000E+00 0.  1.
         24    2    1    2    0    0 -0.39983185655E+03  0.45368413256E+03 -0.28700122866E+03  0.67417681940E+03  0.80311100808E+02 0.  0.
        254    2    1    2    0    0  0.39983185655E+03 -0.45368413256E+03  0.91320181697E+03  0.14362172511E+04  0.92902509561E+03 0.  0.
         23    2    4    4    0    0  0.25491578656E+03 -0.65390889279E+03  0.93317762172E+03  0.11712276915E+04  0.91514661809E+02 0.  0.
         23    2    4    4    0    0  0.14491606999E+03  0.20022476023E+03 -0.19975804750E+02  0.26498955964E+03  0.93433462910E+02 0.  0.
          4    1    3    3  502    0 -0.32623311337E+02  0.35734626377E+02 -0.49605618275E+02  0.69296185533E+02  0.00000000000E+00 0. -1.
         -3    1    3    3    0  502 -0.36720854522E+03  0.41794950618E+03 -0.23739561038E+03  0.60488063386E+03  0.00000000000E+00 0.  1.
         13    1    5    5    0    0  0.12002987898E+03 -0.33027021558E+03  0.54161587800E+03  0.64562632106E+03  0.00000000000E+00 0. -1.
        -13    1    5    5    0    0  0.13488590758E+03 -0.32363867720E+03  0.39156174372E+03  0.52560137043E+03  0.00000000000E+00 0.  1.
          2    1    6    6  503    0  0.13901719342E+03  0.17312522938E+03 -0.46236859904E+02  0.22679500067E+03  0.00000000000E+00 0. -1.
         -2    1    6    6    0  503  0.58988765699E+01  0.27099530844E+02  0.26261055154E+02  0.38194558966E+02  0.00000000000E+00 0.  1.
<mgrwt>
<rscale>  0 0.20153501E+04</rscale>
<asrwt>0</asrwt>
<pdfrwt beam="1">  1        2 0.21050728E+00 0.20153501E+04</pdfrwt>
<pdfrwt beam="2">  1       -1 0.11416873E+00 0.20153501E+04</pdfrwt>
<totfact> 0.11147095E+01</totfact>
</mgrwt>
</event>
<event>
12    7  0.1729738E-007  0.1377324E+04  0.7818608E-02  0.8970398E-01
         -3   -1    0    0    0  501 -0.00000000000E+00  0.00000000000E+00  0.13821458088E+03  0.13821458088E+03  0.00000000000E+00 0.  1.
          2   -1    0    0  501    0  0.00000000000E+00 -0.00000000000E+00 -0.34312977717E+04  0.34312977717E+04  0.00000000000E+00 0. -1.
         24    2    1    2    0    0 -0.88071807577E+02 -0.26536582113E+03 -0.25152849795E+03  0.38422065732E+03  0.78633745377E+02 0.  0.
        254    2    1    2    0    0  0.88071807577E+02  0.26536582113E+03 -0.30415546928E+04  0.31852916952E+04  0.90379896655E+03 0.  0.
         23    2    4    4    0    0 -0.16002732206E+03  0.40539502805E+03 -0.26779543780E+04  0.27147260513E+04  0.91345553956E+02 0.  0.
         23    2    4    4    0    0  0.24809912963E+03 -0.14002920692E+03 -0.36360031485E+03  0.47056564398E+03  0.89808014234E+02 0.  0.
          2    1    3    3  502    0 -0.64237844306E+02 -0.23344915950E+03 -0.17771874066E+03  0.30034806724E+03  0.00000000000E+00 0. -1.
         -1    1    3    3    0  502 -0.23833963271E+02 -0.31916661631E+02 -0.73809757289E+02  0.83872590075E+02  0.00000000000E+00 0.  1.
         13    1    5    5    0    0  0.73360090761E+01  0.68615779868E+02 -0.38476496831E+03  0.39090410987E+03  0.00000000000E+00 0. -1.
        -13    1    5    5    0    0 -0.16736333113E+03  0.33677924819E+03 -0.22931894097E+04  0.23238219414E+04  0.00000000000E+00 0.  1.
          1    1    6    6  503    0  0.56058284135E+02 -0.76254995494E+02 -0.93159044615E+02  0.13280046367E+03  0.00000000000E+00 0. -1.
         -1    1    6    6    0  503  0.19204084550E+03 -0.63774211427E+02 -0.27044127023E+03  0.33776518031E+03  0.00000000000E+00 0.  1.
<mgrwt>
<rscale>  0 0.13773240E+04</rscale>
<asrwt>0</asrwt>
<pdfrwt beam="1">  1        2 0.52789197E+00 0.13773240E+04</pdfrwt>
<pdfrwt beam="2">  1       -3 0.21263781E-01 0.13773240E+04</pdfrwt>
<totfact> 0.12081105E+01</totfact>
</mgrwt>
</event>
<event>
12    7  0.1729738E-007  0.3728734E+04  0.7818608E-02  0.8061624E-01
         -1   -1    0    0    0  501 -0.00000000000E+00  0.00000000000E+00  0.14910962281E+04  0.14910962281E+04  0.00000000000E+00 0.  1.
          2   -1    0    0  501    0  0.00000000000E+00 -0.00000000000E+00 -0.23310802215E+04  0.23310802215E+04  0.00000000000E+00 0. -1.
         24    2    1    2    0    0 -0.63083552031E+03  0.13505890677E+04  0.55494901411E+03  0.15926009763E+04  0.79782064902E+02 0.  0.
        254    2    1    2    0    0  0.63083552031E+03 -0.13505890677E+04 -0.13949330075E+04  0.22295754733E+04  0.89617208853E+03 0.  0.
         23    2    4    4    0    0  0.63547376125E+03 -0.56258265261E+03 -0.10791789340E+04  0.13757631400E+04  0.88152728805E+02 0.  0.
         23    2    4    4    0    0 -0.46382409317E+01 -0.78800641510E+03 -0.31575407348E+03  0.85381233328E+03  0.91209878971E+02 0.  0.
          4    1    3    3  502    0 -0.21092431329E+03  0.38367457862E+03  0.18668085081E+03  0.47596742354E+03  0.00000000000E+00 0. -1.
         -3    1    3    3    0  502 -0.41991120703E+03  0.96691448909E+03  0.36826816330E+03  0.11166335527E+04  0.00000000000E+00 0.  1.
         13    1    5    5    0    0  0.16772432026E+03 -0.10478211801E+03 -0.27952898733E+03  0.34241377692E+03  0.00000000000E+00 0.  1.
        -13    1    5    5    0    0  0.46774944098E+03 -0.45780053460E+03 -0.79964994666E+03  0.10333493631E+04  0.00000000000E+00 0. -1.
          4    1    6    6  503    0 -0.12800373909E+02 -0.76506695955E+02 -0.61077909104E+01  0.77810212749E+02  0.00000000000E+00 0. -1.
         -4    1    6    6    0  503  0.81621329775E+01 -0.71149971915E+03 -0.30964628257E+03  0.77600212053E+03  0.00000000000E+00 0.  1.
<mgrwt>
<rscale>  0 0.37287343E+04</rscale>
<asrwt>0</asrwt>
<pdfrwt beam="1">  1        2 0.35862773E+00 0.37287343E+04</pdfrwt>
<pdfrwt beam="2">  1       -1 0.22939942E+00 0.37287343E+04</pdfrwt>
<totfact> 0.38018890E-01</totfact>
</mgrwt>
</event>
<event>
12    7  0.1729738E-007  0.1722176E+04  0.7818608E-02  0.8748816E-01
          2   -1    0    0  501    0  0.00000000000E+00  0.00000000000E+00  0.47513653045E+03  0.47513653045E+03  0.00000000000E+00 0. -1.
         -1   -1    0    0    0  501 -0.00000000000E+00 -0.00000000000E+00 -0.15605471075E+04  0.15605471075E+04  0.00000000000E+00 0.  1.
         24    2    1    2    0    0 -0.33482162595E+03  0.48904131427E+03 -0.20174389480E+03  0.63110909329E+03  0.79568588489E+02 0.  0.
        254    2    1    2    0    0  0.33482162595E+03 -0.48904131427E+03 -0.88366668220E+03  0.14045745446E+04  0.91689471472E+03 0.  0.
         23    2    4    4    0    0  0.25618289277E+03 -0.23316534304E+03 -0.10261370355E+04  0.10871157139E+04  0.94167976970E+02 0.  0.
         23    2    4    4    0    0  0.78638733181E+02 -0.25587597123E+03  0.14247035334E+03  0.31745883074E+03  0.93945434296E+02 0.  0.
          2    1    3    3  502    0 -0.17822154720E+03  0.25838261657E+03 -0.14863777157E+03  0.34730056661E+03  0.00000000000E+00 0. -1.
         -1    1    3    3    0  502 -0.15660007875E+03  0.23065869770E+03 -0.53106123232E+02  0.28380852668E+03  0.00000000000E+00 0.  1.
         13    1    5    5    0    0  0.20751595671E+03 -0.13925619931E+03 -0.64990005577E+03  0.69629393493E+03  0.00000000000E+00 0. -1.
        -13    1    5    5    0    0  0.48666936057E+02 -0.93909143731E+02 -0.37623697978E+03  0.39082177894E+03  0.00000000000E+00 0.  1.
          4    1    6    6  503    0 -0.15735247418E+02 -0.11319984366E+02  0.20904065224E+02  0.28508244426E+02  0.00000000000E+00 0. -1.
         -4    1    6    6    0  503  0.94373980600E+02 -0.24455598687E+03  0.12156628812E+03  0.28895058632E+03  0.00000000000E+00 0.  1.
<mgrwt>
<rscale>  0 0.17221765E+04</rscale>
<asrwt>0</asrwt>
<pdfrwt beam="1">  1        2 0.73097927E-01 0.17221765E+04</pdfrwt>
<pdfrwt beam="2">  1       -1 0.24008417E+00 0.17221765E+04</pdfrwt>
<totfact> 0.57442312E+00</totfact>
</mgrwt>
</event>
<event>
12    7  0.1729738E-007  0.1049114E+04  0.7818608E-02  0.9256259E-01
         -1   -1    0    0    0  501 -0.00000000000E+00  0.00000000000E+00  0.42237751011E+03  0.42237751011E+03  0.00000000000E+00 0.  1.
          2   -1    0    0  501    0  0.00000000000E+00 -0.00000000000E+00 -0.65145584757E+03  0.65145584757E+03  0.00000000000E+00 0. -1.
         24    2    1    2    0    0  0.14555101207E+02 -0.81560492949E+02  0.46872330738E+02  0.12383673712E+03  0.79212101918E+02 0.  0.
        254    2    1    2    0    0 -0.14555101207E+02  0.81560492949E+02 -0.27595066820E+03  0.94999662055E+03  0.90525181182E+03 0.  0.
         23    2    4    4    0    0 -0.22703383083E+03  0.27014415678E+03 -0.46990847071E+03  0.59449534237E+03  0.89936174448E+02 0.  0.
         23    2    4    4    0    0  0.21247872962E+03 -0.18858366383E+03  0.19395780251E+03  0.35550127818E+03  0.89724694659E+02 0.  0.
          2    1    3    3  502    0 -0.78589942174E+01  0.11056665763E+02 -0.60310730905E+01  0.14845453531E+02  0.00000000000E+00 0. -1.
         -1    1    3    3    0  502  0.22414095424E+02 -0.92617158713E+02  0.52903403828E+02  0.10899128359E+03  0.00000000000E+00 0.  1.
         13    1    5    5    0    0 -0.21403602782E+03  0.23836245909E+03 -0.45637067292E+03  0.55758611371E+03  0.00000000000E+00 0. -1.
        -13    1    5    5    0    0 -0.12997803005E+02  0.31781697688E+02 -0.13537797794E+02  0.36909228656E+02  0.00000000000E+00 0.  1.
          1    1    6    6  503    0  0.15474752936E+03 -0.18068323333E+03  0.17052013057E+03  0.29269496678E+03  0.00000000000E+00 0. -1.
         -1    1    6    6    0  503  0.57731200263E+02 -0.79004304927E+01  0.23437671942E+02  0.62806311401E+02  0.00000000000E+00 0.  1.
<mgrwt>
<rscale>  0 0.10491145E+04</rscale>
<asrwt>0</asrwt>
<pdfrwt beam="1">  1        2 0.10022398E+00 0.10491145E+04</pdfrwt>
<pdfrwt beam="2">  1       -1 0.64981156E-01 0.10491145E+04</pdfrwt>
<totfact> 0.12249905E+02</totfact>
</mgrwt>
</event>
<event>
12    7  0.1729738E-007  0.2405349E+04  0.7818608E-02  0.8437504E-01
          2   -1    0    0  501    0  0.00000000000E+00  0.00000000000E+00  0.19312138069E+04  0.19312138069E+04  0.00000000000E+00 0. -1.
         -1   -1    0    0    0  501 -0.00000000000E+00 -0.00000000000E+00 -0.74897252599E+03  0.74897252599E+03  0.00000000000E+00 0.  1.
         24    2    1    2    0    0  0.97209741091E+03  0.31739419697E+03  0.65362181158E+03  0.12162475520E+04  0.79524729179E+02 0.  0.
        254    2    1    2    0    0 -0.97209741091E+03 -0.31739419697E+03  0.52861946933E+03  0.14639387809E+04  0.90441459428E+03 0.  0.
         23    2    4    4    0    0  0.13544978512E+02 -0.10324998295E+03  0.42293436629E+03  0.44570688523E+03  0.94536362977E+02 0.  0.
         23    2    4    4    0    0 -0.98564238942E+03 -0.21414421402E+03  0.10568510303E+03  0.10182318957E+04  0.90984549092E+02 0.  0.
          4    1    3    3  502    0  0.13999996820E+03  0.58711727211E+02  0.12831064668E+03  0.19877293593E+03  0.00000000000E+00 0. -1.
         -3    1    3    3    0  502  0.83209744271E+03  0.25868246976E+03  0.52531116490E+03  0.10174746160E+04  0.00000000000E+00 0.  1.
         13    1    5    5    0    0  0.27228923458E+02 -0.42298779380E+02  0.32947152861E+03  0.33328979759E+03  0.00000000000E+00 0.  1.
        -13    1    5    5    0    0 -0.13683944946E+02 -0.60951203571E+02  0.93462837681E+02  0.11241708764E+03  0.00000000000E+00 0. -1.
          3    1    6    6  503    0 -0.38214617700E+03 -0.38444138311E+02  0.32978350827E+02  0.38548829293E+03  0.00000000000E+00 0. -1.
         -3    1    6    6    0  503 -0.60349621242E+03 -0.17570007571E+03  0.72706752208E+02  0.63274360275E+03  0.00000000000E+00 0.  1.
<mgrwt>
<rscale>  0 0.24053491E+04</rscale>
<asrwt>0</asrwt>
<pdfrwt beam="1">  1        2 0.29710981E+00 0.24053491E+04</pdfrwt>
<pdfrwt beam="2">  1       -1 0.11522654E+00 0.24053491E+04</pdfrwt>
<totfact> 0.50988534E+00</totfact>
</mgrwt>
</event>
<event>
12    7  0.1729738E-007  0.2816650E+04  0.7818608E-02  0.8298118E-01
         -1   -1    0    0    0  501 -0.00000000000E+00  0.00000000000E+00  0.62104929111E+03  0.62104929111E+03  0.00000000000E+00 0.  1.
          2   -1    0    0  501    0  0.00000000000E+00 -0.00000000000E+00 -0.31935937899E+04  0.31935937899E+04  0.00000000000E+00 0. -1.
         24    2    1    2    0    0 -0.20802847940E+03  0.11851433998E+04 -0.11965021558E+04  0.16992214195E+04  0.88855484888E+02 0.  0.
        254    2    1    2    0    0  0.20802847940E+03 -0.11851433998E+04 -0.13760423430E+04  0.21154216616E+04  0.10647420111E+04 0.  0.
         23    2    4    4    0    0  0.10309740725E+03 -0.11539475987E+04 -0.56453680114E+03  0.12916131813E+04  0.85666062669E+02 0.  0.
         23    2    4    4    0    0  0.10493107216E+03 -0.31195801080E+02 -0.81150554184E+03  0.82380848027E+03  0.90196783836E+02 0.  0.
          4    1    3    3  502    0 -0.18905397989E+03  0.10978878294E+04 -0.10723877902E+04  0.15463229500E+04  0.00000000000E+00 0. -1.
         -3    1    3    3    0  502 -0.18974499516E+02  0.87255570343E+02 -0.12411436568E+03  0.15289846944E+03  0.00000000000E+00 0.  1.
         13    1    5    5    0    0  0.59602977495E+02 -0.27948154210E+03 -0.15349173588E+03  0.32437965455E+03  0.00000000000E+00 0.  1.
        -13    1    5    5    0    0  0.43494429751E+02 -0.87446605661E+03 -0.41104506527E+03  0.96723352674E+03  0.00000000000E+00 0. -1.
          3    1    6    6  503    0  0.50949914831E+02 -0.50782200838E+02 -0.61168059172E+03  0.61589599124E+03  0.00000000000E+00 0. -1.
         -3    1    6    6    0  503  0.53981157325E+02  0.19586399757E+02 -0.19982495013E+03  0.20791248903E+03  0.00000000000E+00 0.  1.
<mgrwt>
<rscale>  0 0.28166499E+04</rscale>
<asrwt>0</asrwt>
<pdfrwt beam="1">  1        2 0.49132212E+00 0.28166499E+04</pdfrwt>
<pdfrwt beam="2">  1       -1 0.95546046E-01 0.28166499E+04</pdfrwt>
<totfact> 0.13662182E+00</totfact>
</mgrwt>
</event>
<event>
12    7  0.1729738E-007  0.1929632E+04  0.7818608E-02  0.8640245E-01
          2   -1    0    0  501    0  0.00000000000E+00  0.00000000000E+00  0.94022406409E+03  0.94022406409E+03  0.00000000000E+00 0. -1.
         -1   -1    0    0    0  501 -0.00000000000E+00 -0.00000000000E+00 -0.99005150284E+03  0.99005150284E+03  0.00000000000E+00 0.  1.
         24    2    1    2    0    0  0.28224598014E+02 -0.59100886848E+03 -0.49086295000E+03  0.77267246840E+03  0.77383442620E+02 0.  0.
        254    2    1    2    0    0 -0.28224598014E+02  0.59100886848E+03  0.44103551125E+03  0.11576030985E+04  0.89187695394E+03 0.  0.
         23    2    4    4    0    0 -0.20909554455E+03  0.73422670321E+03  0.48051460820E+03  0.90589206402E+03  0.83284719550E+02 0.  0.
         23    2    4    4    0    0  0.18087094653E+03 -0.14321783473E+03 -0.39479096942E+02  0.25171103450E+03  0.92596967075E+02 0.  0.
          4    1    3    3  502    0 -0.70269448193E+01 -0.36819542891E+03 -0.34060550766E+03  0.50162671746E+03  0.00000000000E+00 0. -1.
         -3    1    3    3    0  502  0.35251542834E+02 -0.22281343957E+03 -0.15025744234E+03  0.27104575094E+03  0.00000000000E+00 0.  1.
         13    1    5    5    0    0 -0.17823333016E+03  0.61637537245E+03  0.43795591532E+03  0.77684689838E+03  0.00000000000E+00 0. -1.
        -13    1    5    5    0    0 -0.30862214381E+02  0.11785133076E+03  0.42558692875E+02  0.12904516565E+03  0.00000000000E+00 0.  1.
          2    1    6    6  503    0  0.17345811922E+03 -0.15111266774E+03 -0.51278553779E+02  0.23569524296E+03  0.00000000000E+00 0. -1.
         -2    1    6    6    0  503  0.74128273135E+01  0.78948330162E+01  0.11799456837E+02  0.16015791544E+02  0.00000000000E+00 0.  1.
<mgrwt>
<rscale>  0 0.19296323E+04</rscale>
<asrwt>0</asrwt>
<pdfrwt beam="1">  1        2 0.14464986E+00 0.19296323E+04</pdfrwt>
<pdfrwt beam="2">  1       -1 0.15231562E+00 0.19296323E+04</pdfrwt>
<totfact> 0.98332438E+00</totfact>
</mgrwt>
</event>
<event>
12    7  0.1729738E-007  0.2761619E+04  0.7818608E-02  0.8315284E-01
          2   -1    0    0  501    0  0.00000000000E+00  0.00000000000E+00  0.36489588899E+04  0.36489588899E+04  0.00000000000E+00 0. -1.
         -1   -1    0    0    0  501 -0.00000000000E+00 -0.00000000000E+00 -0.52251475638E+03  0.52251475638E+03  0.00000000000E+00 0.  1.
         24    2    1    2    0    0  0.23531752298E+03  0.56605341660E+03 -0.21525731655E+03  0.65569613243E+03  0.88379288854E+02 0.  0.
        254    2    1    2    0    0 -0.23531752298E+03 -0.56605341660E+03  0.33417014501E+04  0.35157775139E+04  0.90439600756E+03 0.  0.
         23    2    4    4    0    0 -0.56709639991E+03 -0.42741017176E+03  0.23540282233E+04  0.24605622247E+04  0.92950544784E+02 0.  0.
         23    2    4    4    0    0  0.33177887693E+03 -0.13864324484E+03  0.98767322681E+03  0.10552152892E+04  0.93175807481E+02 0.  0.
          4    1    3    3  502    0 -0.15451461926E+01  0.35779479833E+02 -0.28077197349E+02  0.45507006767E+02  0.00000000000E+00 0. -1.
         -3    1    3    3    0  502  0.23686266917E+03  0.53027393676E+03 -0.18718011920E+03  0.61018912567E+03  0.00000000000E+00 0.  1.
         13    1    5    5    0    0 -0.46069710757E+03 -0.33073402355E+03  0.19881453455E+04  0.20674498142E+04  0.00000000000E+00 0. -1.
        -13    1    5    5    0    0 -0.10639929234E+03 -0.96676148211E+02  0.36588287778E+03  0.39311241051E+03  0.00000000000E+00 0.  1.
          4    1    6    6  503    0  0.15725476056E+03 -0.45817978502E+02  0.32897451874E+03  0.36749500793E+03  0.00000000000E+00 0. -1.
         -4    1    6    6    0  503  0.17452411637E+03 -0.92825266334E+02  0.65869870807E+03  0.68772028127E+03  0.00000000000E+00 0.  1.
<mgrwt>
<rscale>  0 0.27616190E+04</rscale>
<asrwt>0</asrwt>
<pdfrwt beam="1">  1        2 0.56137827E+00 0.27616190E+04</pdfrwt>
<pdfrwt beam="2">  1       -1 0.80386888E-01 0.27616190E+04</pdfrwt>
<totfact> 0.97484811E-01</totfact>
</mgrwt>
</event>
<event>
12    7  0.1729738E-007  0.1678534E+04  0.7818608E-02  0.8773703E-01
          2   -1    0    0  501    0  0.00000000000E+00  0.00000000000E+00  0.10205948337E+04  0.10205948337E+04  0.00000000000E+00 0. -1.
         -1   -1    0    0    0  501 -0.00000000000E+00 -0.00000000000E+00 -0.69015560875E+03  0.69015560875E+03  0.00000000000E+00 0.  1.
         24    2    1    2    0    0  0.48450785675E+03  0.18560490993E+03 -0.17200257909E+03  0.55233918607E+03  0.79351392000E+02 0.  0.
        254    2    1    2    0    0 -0.48450785675E+03 -0.18560490993E+03  0.50244180404E+03  0.11584112564E+04  0.90568859251E+03 0.  0.
         23    2    4    4    0    0  0.16850048345E+03 -0.28673745133E+03  0.31215892668E+03  0.46455988541E+03  0.88101717944E+02 0.  0.
         23    2    4    4    0    0 -0.65300834020E+03  0.10113254140E+03  0.19028287736E+03  0.69385137097E+03  0.92598424817E+02 0.  0.
          2    1    3    3  502    0  0.16713656602E+03  0.27607498795E+02 -0.40190767502E+02  0.17410371473E+03  0.00000000000E+00 0. -1.
         -1    1    3    3    0  502  0.31737129073E+03  0.15799741114E+03 -0.13181181159E+03  0.37823547134E+03  0.00000000000E+00 0.  1.
         13    1    5    5    0    0  0.50141724083E+01  0.57214351402E+01  0.14546601232E+02  0.16415856737E+02  0.00000000000E+00 0.  1.
        -13    1    5    5    0    0  0.16348631104E+03 -0.29245888647E+03  0.29761232544E+03  0.44814402867E+03  0.00000000000E+00 0. -1.
          2    1    6    6  503    0 -0.65335398013E+03  0.96531335482E+02  0.19352005960E+03  0.68821489054E+03  0.00000000000E+00 0. -1.
         -2    1    6    6    0  503  0.34563993243E+00  0.46012059159E+01 -0.32371822397E+01  0.56364804352E+01  0.00000000000E+00 0.  1.
<mgrwt>
<rscale>  0 0.16785342E+04</rscale>
<asrwt>0</asrwt>
<pdfrwt beam="1">  1        2 0.15701459E+00 0.16785342E+04</pdfrwt>
<pdfrwt beam="2">  1       -1 0.10617779E+00 0.16785342E+04</pdfrwt>
<totfact> 0.22042796E+01</totfact>
</mgrwt>
</event>
<event>
12    7  0.1729738E-007  0.1930902E+04  0.7818608E-02  0.8639626E-01
         -1   -1    0    0    0  501 -0.00000000000E+00  0.00000000000E+00  0.98542228611E+03  0.98542228611E+03  0.00000000000E+00 0.  1.
          2   -1    0    0  501    0  0.00000000000E+00 -0.00000000000E+00 -0.94588445701E+03  0.94588445701E+03  0.00000000000E+00 0. -1.
         24    2    1    2    0    0  0.24365094567E+03 -0.58982105194E+03  0.42802373104E+03  0.77255776235E+03  0.79915738084E+02 0.  0.
        254    2    1    2    0    0 -0.24365094567E+03  0.58982105194E+03 -0.38848590194E+03  0.11587489808E+04  0.88573316962E+03 0.  0.
         23    2    4    4    0    0 -0.64791474820E+02  0.78481810921E+03 -0.37862195779E+03  0.87870529490E+03  0.92903221774E+02 0.  0.
         23    2    4    4    0    0 -0.17885947085E+03 -0.19499705727E+03 -0.98639441482E+01  0.28004368586E+03  0.91173493622E+02 0.  0.
          2    1    3    3  502    0  0.16454959601E+02 -0.69733529047E+02  0.22779340937E+02  0.75182638569E+02  0.00000000000E+00 0. -1.
         -1    1    3    3    0  502  0.22719598607E+03 -0.52008752290E+03  0.40524439010E+03  0.69737512378E+03  0.00000000000E+00 0.  1.
         13    1    5    5    0    0  0.13172973894E+02  0.31721560033E+03 -0.12639096496E+03  0.34172202205E+03  0.00000000000E+00 0. -1.
        -13    1    5    5    0    0 -0.77964448714E+02  0.46760250888E+03 -0.25223099283E+03  0.53698327285E+03  0.00000000000E+00 0.  1.
          3    1    6    6  503    0 -0.13050160894E+03 -0.77594351716E+02  0.68189541542E+01  0.15198043127E+03  0.00000000000E+00 0. -1.
         -3    1    6    6    0  503 -0.48357861910E+02 -0.11740270555E+03 -0.16682898302E+02  0.12806325459E+03  0.00000000000E+00 0.  1.
<mgrwt>
<rscale>  0 0.19309020E+04</rscale>
<asrwt>0</asrwt>
<pdfrwt beam="1">  1        2 0.14552069E+00 0.19309020E+04</pdfrwt>
<pdfrwt beam="2">  1       -1 0.15160343E+00 0.19309020E+04</pdfrwt>
<totfact> 0.98725389E+00</totfact>
</mgrwt>
</event>
<event>
12    7  0.1729738E-007  0.1896445E+04  0.7818608E-02  0.8656628E-01
          2   -1    0    0  501    0  0.00000000000E+00  0.00000000000E+00  0.42849098286E+03  0.42849098286E+03  0.00000000000E+00 0. -1.
         -1   -1    0    0    0  501 -0.00000000000E+00 -0.00000000000E+00 -0.20983547891E+04  0.20983547891E+04  0.00000000000E+00 0.  1.
         24    2    1    2    0    0 -0.21161501095E+03 -0.57266986884E+03 -0.11994964989E+04  0.13483469939E+04  0.80722199968E+02 0.  0.
        254    2    1    2    0    0  0.21161501095E+03  0.57266986884E+03 -0.47036730735E+03  0.11784987781E+04  0.89156170540E+03 0.  0.
         23    2    4    4    0    0 -0.22041031074E+03  0.59058534177E+03 -0.31540902995E+03  0.71023107040E+03  0.87026238571E+02 0.  0.
         23    2    4    4    0    0  0.43202532168E+03 -0.17915472925E+02 -0.15495827740E+03  0.46826770766E+03  0.91080928607E+02 0.  0.
          2    1    3    3  502    0 -0.13603160276E+02 -0.17870091955E+02 -0.82913657612E+02  0.85901459677E+02  0.00000000000E+00 0. -1.
         -1    1    3    3    0  502 -0.19801185067E+03 -0.55479977688E+03 -0.11165828413E+04  0.12624455342E+04  0.00000000000E+00 0.  1.
         13    1    5    5    0    0 -0.12532284739E+03  0.44577285184E+03 -0.22524029741E+03  0.51492955158E+03  0.00000000000E+00 0. -1.
        -13    1    5    5    0    0 -0.95087463353E+02  0.14481248993E+03 -0.90168732537E+02  0.19530151882E+03  0.00000000000E+00 0.  1.
          2    1    6    6  503    0  0.30832508964E+03 -0.52414653098E+02 -0.97639874766E+02  0.32763577629E+03  0.00000000000E+00 0. -1.
         -2    1    6    6    0  503  0.12370023205E+03  0.34499180173E+02 -0.57318402632E+02  0.14063193137E+03  0.00000000000E+00 0.  1.
<mgrwt>
<rscale>  0 0.18964452E+04</rscale>
<asrwt>0</asrwt>
<pdfrwt beam="1">  1        2 0.65921690E-01 0.18964452E+04</pdfrwt>
<pdfrwt beam="2">  1       -1 0.32282381E+00 0.18964452E+04</pdfrwt>
<totfact> 0.18499812E+00</totfact>
</mgrwt>
</event>
<event>
12    7  0.1729738E-007  0.1306799E+04  0.7818608E-02  0.9024191E-01
         -1   -1    0    0    0  501 -0.00000000000E+00  0.00000000000E+00  0.27490768385E+03  0.27490768385E+03  0.00000000000E+00 0.  1.
          2   -1    0    0  501    0  0.00000000000E+00 -0.00000000000E+00 -0.15529980625E+04  0.15529980625E+04  0.00000000000E+00 0. -1.
         24    2    1    2    0    0 -0.28186695103E+01 -0.19349933414E+03  0.46109817010E+02  0.21414077898E+03  0.79247844050E+02 0.  0.
        254    2    1    2    0    0  0.28186695103E+01  0.19349933414E+03 -0.13242001957E+04  0.16137649674E+04  0.90182108788E+03 0.  0.
         23    2    4    4    0    0  0.32012097595E+03  0.32406521548E+03 -0.10984469165E+04  0.11925538558E+04  0.90018706026E+02 0.  0.
         23    2    4    4    0    0 -0.31730230644E+03 -0.13056588134E+03 -0.22575327911E+03  0.42121111156E+03  0.93413352530E+02 0.  0.
          4    1    3    3  502    0 -0.26688073380E+02 -0.49423192593E+02 -0.11171539323E+02  0.57268739445E+02  0.00000000000E+00 0. -1.
         -3    1    3    3    0  502  0.23869403870E+02 -0.14407614154E+03  0.57281356333E+02  0.15687203953E+03  0.00000000000E+00 0.  1.
         13    1    5    5    0    0  0.12451385555E+01  0.21322924581E+02 -0.88525126404E+02  0.91065446178E+02  0.00000000000E+00 0. -1.
        -13    1    5    5    0    0  0.31887583739E+03  0.30274229090E+03 -0.10099217901E+04  0.11014884096E+04  0.00000000000E+00 0.  1.
          1    1    6    6  503    0 -0.15175514283E+03 -0.52829298070E+02 -0.51865842243E+02  0.16885089192E+03  0.00000000000E+00 0. -1.
         -1    1    6    6    0  503 -0.16554716361E+03 -0.77736583272E+02 -0.17388743687E+03  0.25236021964E+03  0.00000000000E+00 0.  1.
<mgrwt>
<rscale>  0 0.13067993E+04</rscale>
<asrwt>0</asrwt>
<pdfrwt beam="1">  1        2 0.23892278E+00 0.13067993E+04</pdfrwt>
<pdfrwt beam="2">  1       -1 0.42293490E-01 0.13067993E+04</pdfrwt>
<totfact> 0.72689128E+01</totfact>
</mgrwt>
</event>
<event>
12    7  0.1729738E-007  0.1328089E+04  0.7818608E-02  0.9007583E-01
          2   -1    0    0  501    0  0.00000000000E+00  0.00000000000E+00  0.92221560291E+03  0.92221560291E+03  0.00000000000E+00 0. -1.
         -1   -1    0    0    0  501 -0.00000000000E+00 -0.00000000000E+00 -0.47814716502E+03  0.47814716502E+03  0.00000000000E+00 0.  1.
         24    2    1    2    0    0 -0.51458693886E+02  0.95959989772E+02 -0.23623345417E+03  0.27199967353E+03  0.79506356435E+02 0.  0.
        254    2    1    2    0    0  0.51458693886E+02 -0.95959989772E+02  0.68030189207E+03  0.11283630944E+04  0.89360857855E+03 0.  0.
         23    2    4    4    0    0  0.12170760170E+03  0.26757451504E+03 -0.42776786494E+02  0.31080913126E+03  0.91452726617E+02 0.  0.
         23    2    4    4    0    0 -0.70248907811E+02 -0.36353450481E+03  0.72307867856E+03  0.81755396314E+03  0.91975333804E+02 0.  0.
          4    1    3    3  502    0 -0.27046633346E+02 -0.74400066690E+01 -0.59701068571E+02  0.65962805149E+02  0.00000000000E+00 0. -1.
         -3    1    3    3    0  502 -0.24412060540E+02  0.10339999644E+03 -0.17653238560E+03  0.20603686838E+03  0.00000000000E+00 0.  1.
         13    1    5    5    0    0  0.55662649181E+02  0.18326404463E+03 -0.63382646028E+02  0.20174588071E+03  0.00000000000E+00 0.  1.
        -13    1    5    5    0    0  0.66044952516E+02  0.84310470408E+02  0.20605859533E+02  0.10906325055E+03  0.00000000000E+00 0. -1.
          1    1    6    6  503    0 -0.61370176831E+02 -0.23314715929E+03  0.37566515805E+03  0.44637227453E+03  0.00000000000E+00 0. -1.
         -1    1    6    6    0  503 -0.88787309800E+01 -0.13038734552E+03  0.34741352050E+03  0.37118168862E+03  0.00000000000E+00 0.  1.
<mgrwt>
<rscale>  0 0.13280885E+04</rscale>
<asrwt>0</asrwt>
<pdfrwt beam="1">  1        2 0.14187932E+00 0.13280885E+04</pdfrwt>
<pdfrwt beam="2">  1       -1 0.73561103E-01 0.13280885E+04</pdfrwt>
<totfact> 0.58893944E+01</totfact>
</mgrwt>
</event>
<event>
12    7  0.1729738E-007  0.1184253E+04  0.7818608E-02  0.9126752E-01
         -1   -1    0    0    0  501 -0.00000000000E+00  0.00000000000E+00  0.72031821938E+03  0.72031821938E+03  0.00000000000E+00 0.  1.
          2   -1    0    0  501    0  0.00000000000E+00 -0.00000000000E+00 -0.48674875041E+03  0.48674875041E+03  0.00000000000E+00 0. -1.
         24    2    1    2    0    0  0.77607239506E+02  0.23045627938E+03  0.35471406414E+02  0.25879721424E+03  0.81146762679E+02 0.  0.
        254    2    1    2    0    0 -0.77607239506E+02 -0.23045627938E+03  0.19809806256E+03  0.94826975555E+03  0.89489647813E+03 0.  0.
         23    2    4    4    0    0 -0.80182972173E+01 -0.41072424341E+03  0.45100598589E+03  0.61716904367E+03  0.93448017332E+02 0.  0.
         23    2    4    4    0    0 -0.69588942289E+02  0.18026796403E+03 -0.25290792333E+03  0.33110071188E+03  0.91247487539E+02 0.  0.
          2    1    3    3  502    0  0.28525835998E+02  0.44023847041E+02 -0.23089085265E+02  0.57314293907E+02  0.00000000000E+00 0. -1.
         -1    1    3    3    0  502  0.49081403508E+02  0.18643243234E+03  0.58560491679E+02  0.20148292033E+03  0.00000000000E+00 0.  1.
         13    1    5    5    0    0  0.58645568079E+01 -0.64885216685E+02  0.28818474807E+02  0.71238956064E+02  0.00000000000E+00 0.  1.
        -13    1    5    5    0    0 -0.13882854025E+02 -0.34583902672E+03  0.42218751108E+03  0.54593008761E+03  0.00000000000E+00 0. -1.
          4    1    6    6  503    0 -0.64978857786E+02  0.18417929863E+03 -0.25772724364E+03  0.32336913600E+03  0.00000000000E+00 0. -1.
         -4    1    6    6    0  503 -0.46100845032E+01 -0.39113346002E+01  0.48193203059E+01  0.77315758868E+01  0.00000000000E+00 0.  1.
<mgrwt>
<rscale>  0 0.11842533E+04</rscale>
<asrwt>0</asrwt>
<pdfrwt beam="1">  1        2 0.74884424E-01 0.11842533E+04</pdfrwt>
<pdfrwt beam="2">  1       -1 0.11081819E+00 0.11842533E+04</pdfrwt>
<totfact> 0.53848444E+01</totfact>
</mgrwt>
</event>
<event>
12    7  0.1729738E-007  0.1875014E+04  0.7818608E-02  0.8667394E-01
         -1   -1    0    0    0  501 -0.00000000000E+00  0.00000000000E+00  0.10142944997E+04  0.10142944997E+04  0.00000000000E+00 0.  1.
          2   -1    0    0  501    0  0.00000000000E+00 -0.00000000000E+00 -0.86653302342E+03  0.86653302342E+03  0.00000000000E+00 0. -1.
         24    2    1    2    0    0  0.20733980164E+03 -0.32783914802E+03  0.62882112708E+03  0.74305630511E+03  0.79046583590E+02 0.  0.
        254    2    1    2    0    0 -0.20733980164E+03  0.32783914802E+03 -0.48105965082E+03  0.11377712180E+04  0.95532018535E+03 0.  0.
         23    2    4    4    0    0  0.10706555676E+03 -0.29147352667E+03 -0.89505449102E+02  0.33523745051E+03  0.89180001192E+02 0.  0.
         23    2    4    4    0    0 -0.31440535841E+03  0.61931267469E+03 -0.39155420172E+03  0.80253376748E+03  0.91361023610E+02 0.  0.
          4    1    3    3  502    0  0.52385555058E+02 -0.14677216503E+03  0.21540483295E+03  0.26586755512E+03  0.00000000000E+00 0. -1.
         -3    1    3    3    0  502  0.15495424659E+03 -0.18106698299E+03  0.41341629413E+03  0.47718874999E+03  0.00000000000E+00 0.  1.
         13    1    5    5    0    0  0.22572489668E+02 -0.14197190791E+03 -0.49922303080E+01  0.14384179604E+03  0.00000000000E+00 0. -1.
        -13    1    5    5    0    0  0.84493067096E+02 -0.14950161876E+03 -0.84513218794E+02  0.19139565447E+03  0.00000000000E+00 0.  1.
          3    1    6    6  503    0 -0.31512915196E+03  0.60588683486E+03 -0.39460758554E+03  0.78874608439E+03  0.00000000000E+00 0. -1.
         -3    1    6    6    0  503  0.72379355399E+00  0.13425839832E+02  0.30533838219E+01  0.13787683092E+02  0.00000000000E+00 0.  1.
<mgrwt>
<rscale>  0 0.18750143E+04</rscale>
<asrwt>0</asrwt>
<pdfrwt beam="1">  1        2 0.13331277E+00 0.18750143E+04</pdfrwt>
<pdfrwt beam="2">  1       -1 0.15604531E+00 0.18750143E+04</pdfrwt>
<totfact> 0.10370535E+01</totfact>
</mgrwt>
</event>
<event>
12    7  0.1729738E-007  0.2626261E+04  0.7818608E-02  0.8359335E-01
          2   -1    0    0  501    0  0.00000000000E+00  0.00000000000E+00  0.30764047294E+04  0.30764047294E+04  0.00000000000E+00 0. -1.
         -1   -1    0    0    0  501 -0.00000000000E+00 -0.00000000000E+00 -0.56049554087E+03  0.56049554087E+03  0.00000000000E+00 0.  1.
         24    2    1    2    0    0 -0.50919087266E+03 -0.30558172434E+03 -0.26343837099E+03  0.65453149275E+03  0.79725558333E+02 0.  0.
        254    2    1    2    0    0  0.50919087266E+03  0.30558172434E+03  0.27793475596E+04  0.29823687775E+04  0.90393314654E+03 0.  0.
         23    2    4    4    0    0  0.59657001943E+02  0.16774261624E+03  0.44123672595E+02  0.20554307439E+03  0.92760518341E+02 0.  0.
         23    2    4    4    0    0  0.44953387071E+03  0.13783910810E+03  0.27352238870E+04  0.27768257031E+04  0.90724601062E+02 0.  0.
          2    1    3    3  502    0 -0.27406796014E+03 -0.14891550108E+03 -0.97147892751E+02  0.32669065842E+03  0.00000000000E+00 0. -1.
         -1    1    3    3    0  502 -0.23512291252E+03 -0.15666622326E+03 -0.16629047824E+03  0.32784083433E+03  0.00000000000E+00 0.  1.
         13    1    5    5    0    0 -0.17387160572E+02  0.21661606553E+02 -0.13161899713E+02  0.30737178714E+02  0.00000000000E+00 0. -1.
        -13    1    5    5    0    0  0.77044162515E+02  0.14608100969E+03  0.57285572308E+02  0.17480589568E+03  0.00000000000E+00 0.  1.
          1    1    6    6  503    0  0.29647427637E+03  0.96856381035E+02  0.15510680784E+04  0.15821157793E+04  0.00000000000E+00 0. -1.
         -1    1    6    6    0  503  0.15305959435E+03  0.40982727061E+02  0.11841558085E+04  0.11947099239E+04  0.00000000000E+00 0.  1.
<mgrwt>
<rscale>  0 0.26262606E+04</rscale>
<asrwt>0</asrwt>
<pdfrwt beam="1">  1        2 0.47329302E+00 0.26262606E+04</pdfrwt>
<pdfrwt beam="2">  1       -1 0.86230086E-01 0.26262606E+04</pdfrwt>
<totfact> 0.20743786E+00</totfact>
</mgrwt>
</event>
<event>
12    7  0.1729738E-007  0.2229543E+04  0.7818608E-02  0.8506232E-01
          2   -1    0    0  501    0  0.00000000000E+00  0.00000000000E+00  0.11162383723E+04  0.11162383723E+04  0.00000000000E+00 0. -1.
         -1   -1    0    0    0  501 -0.00000000000E+00 -0.00000000000E+00 -0.11133060750E+04  0.11133060750E+04  0.00000000000E+00 0.  1.
         24    2    1    2    0    0 -0.34923059849E+03 -0.68080377657E+03 -0.52059043747E+03  0.92956112009E+03  0.87256399657E+02 0.  0.
        254    2    1    2    0    0  0.34923059849E+03  0.68080377657E+03  0.52352273482E+03  0.12999833272E+04  0.91127646955E+03 0.  0.
         23    2    4    4    0    0  0.28296275188E+03  0.43120477282E+03 -0.17190571294E+03  0.55169020453E+03  0.93835135092E+02 0.  0.
         23    2    4    4    0    0  0.66267846614E+02  0.24959900375E+03  0.69542844775E+03  0.74829312265E+03  0.98136544106E+02 0.  0.
          2    1    3    3  502    0 -0.10141075176E+03 -0.28121971214E+03 -0.17974533711E+03  0.34882238070E+03  0.00000000000E+00 0. -1.
         -1    1    3    3    0  502 -0.24781984673E+03 -0.39958406443E+03 -0.34084510036E+03  0.58073873938E+03  0.00000000000E+00 0.  1.
         13    1    5    5    0    0  0.58795717911E+02  0.76987449355E+02 -0.72166317519E+02  0.12079727309E+03  0.00000000000E+00 0. -1.
        -13    1    5    5    0    0  0.22416703396E+03  0.35421732347E+03 -0.99739395419E+02  0.43089293143E+03  0.00000000000E+00 0.  1.
          4    1    6    6  503    0 -0.21531318455E+02  0.70206613452E+02  0.14080045002E+03  0.15879966301E+03  0.00000000000E+00 0. -1.
         -4    1    6    6    0  503  0.87799165070E+02  0.17939239029E+03  0.55462799773E+03  0.58949345963E+03  0.00000000000E+00 0.  1.
<mgrwt>
<rscale>  0 0.22295425E+04</rscale>
<asrwt>0</asrwt>
<pdfrwt beam="1">  1        2 0.17172898E+00 0.22295425E+04</pdfrwt>
<pdfrwt beam="2">  1       -1 0.17127786E+00 0.22295425E+04</pdfrwt>
<totfact> 0.53299747E+00</totfact>
</mgrwt>
</event>
<event>
12    7  0.1729738E-007  0.2722049E+04  0.7818608E-02  0.8327886E-01
         -1   -1    0    0    0  501 -0.00000000000E+00  0.00000000000E+00  0.22287319563E+04  0.22287319563E+04  0.00000000000E+00 0.  1.
          2   -1    0    0  501    0  0.00000000000E+00 -0.00000000000E+00 -0.83113952395E+03  0.83113952395E+03  0.00000000000E+00 0. -1.
         24    2    1    2    0    0  0.15146528029E+03  0.12012658582E+04  0.63949039207E+03  0.13716310322E+04  0.80264149396E+02 0.  0.
        254    2    1    2    0    0 -0.15146528029E+03 -0.12012658582E+04  0.75810204029E+03  0.16882404481E+04  0.89969756793E+03 0.  0.
         23    2    4    4    0    0 -0.49670214587E+03 -0.75249770543E+03  0.61810770689E+03  0.10969522851E+04  0.91001979016E+02 0.  0.
         23    2    4    4    0    0  0.34523686558E+03 -0.44876815278E+03  0.13999433340E+03  0.59128816292E+03  0.97169593587E+02 0.  0.
          4    1    3    3  502    0  0.12543092393E+02  0.35771945624E+03  0.16941124800E+03  0.39600594628E+03  0.00000000000E+00 0. -1.
         -3    1    3    3    0  502  0.13892218790E+03  0.84354640198E+03  0.47007914407E+03  0.97562508591E+03  0.00000000000E+00 0.  1.
         13    1    5    5    0    0 -0.16553917220E+03 -0.21620361115E+03  0.23247582103E+03  0.35803942014E+03  0.00000000000E+00 0.  1.
        -13    1    5    5    0    0 -0.33116297367E+03 -0.53629409428E+03  0.38563188585E+03  0.73891286501E+03  0.00000000000E+00 0. -1.
          3    1    6    6  503    0  0.23252328244E+03 -0.29114449234E+03  0.13848526910E+03  0.39750517236E+03  0.00000000000E+00 0. -1.
         -3    1    6    6    0  503  0.11271358314E+03 -0.15762366044E+03  0.15090643086E+01  0.19378299056E+03  0.00000000000E+00 0.  1.
<mgrwt>
<rscale>  0 0.27220487E+04</rscale>
<asrwt>0</asrwt>
<pdfrwt beam="1">  1        2 0.12786762E+00 0.27220487E+04</pdfrwt>
<pdfrwt beam="2">  1       -1 0.34288184E+00 0.27220487E+04</pdfrwt>
<totfact> 0.56584490E-01</totfact>
</mgrwt>
</event>
<event>
12    7  0.1729738E-007  0.1760768E+04  0.7818608E-02  0.8727445E-01
         -1   -1    0    0    0  501 -0.00000000000E+00  0.00000000000E+00  0.93580234708E+03  0.93580234708E+03  0.00000000000E+00 0.  1.
          2   -1    0    0  501    0  0.00000000000E+00 -0.00000000000E+00 -0.82824755042E+03  0.82824755042E+03  0.00000000000E+00 0. -1.
         24    2    1    2    0    0 -0.44302602328E+03  0.47703041852E+03  0.30668806041E+02  0.65656657349E+03  0.79429290956E+02 0.  0.
        254    2    1    2    0    0  0.44302602328E+03 -0.47703041852E+03  0.76885990620E+02  0.11074833240E+04  0.89262409776E+03 0.  0.
         23    2    4    4    0    0  0.59074983345E+03 -0.44765229260E+03  0.31543943495E+03  0.81073220487E+03  0.91688222276E+02 0.  0.
         23    2    4    4    0    0 -0.14772381018E+03 -0.29378125919E+02 -0.23855344433E+03  0.29675111913E+03  0.92022184985E+02 0.  0.
          2    1    3    3  502    0 -0.37920324468E+03  0.41005621695E+03  0.54100535306E+02  0.56113106290E+03  0.00000000000E+00 0. -1.
         -1    1    3    3    0  502 -0.63822778602E+02  0.66974201566E+02 -0.23431729265E+02  0.95435510583E+02  0.00000000000E+00 0.  1.
         13    1    5    5    0    0  0.52491279873E+03 -0.41423711992E+03  0.30900575357E+03  0.73662092933E+03  0.00000000000E+00 0.  1.
        -13    1    5    5    0    0  0.65837034729E+02 -0.33415172683E+02  0.64336813797E+01  0.74111275549E+02  0.00000000000E+00 0. -1.
          3    1    6    6  503    0 -0.55279052808E+02 -0.36437072396E+02 -0.39323960625E+02  0.77005245299E+02  0.00000000000E+00 0. -1.
         -3    1    6    6    0  503 -0.92444757369E+02  0.70589464770E+01 -0.19922948370E+03  0.21974587383E+03  0.00000000000E+00 0.  1.
<mgrwt>
<rscale>  0 0.17607680E+04</rscale>
<asrwt>0</asrwt>
<pdfrwt beam="1">  1        2 0.12742270E+00 0.17607680E+04</pdfrwt>
<pdfrwt beam="2">  1       -1 0.14396959E+00 0.17607680E+04</pdfrwt>
<totfact> 0.13839940E+01</totfact>
</mgrwt>
</event>
<event>
12    7  0.1729738E-007  0.2580814E+04  0.7818608E-02  0.8374747E-01
         -1   -1    0    0    0  501 -0.00000000000E+00  0.00000000000E+00  0.38056848045E+03  0.38056848045E+03  0.00000000000E+00 0.  1.
          2   -1    0    0  501    0  0.00000000000E+00 -0.00000000000E+00 -0.43754302878E+04  0.43754302878E+04  0.00000000000E+00 0. -1.
         24    2    1    2    0    0  0.71038736888E+03  0.50562474877E+03 -0.30746012230E+04  0.31965989969E+04  0.69035248572E+02 0.  0.
        254    2    1    2    0    0 -0.71038736888E+03 -0.50562474877E+03 -0.92026058434E+03  0.15593997714E+04  0.90804267719E+03 0.  0.
         23    2    4    4    0    0  0.18596365463E+03 -0.55887169041E+01 -0.27293230691E+03  0.34246947780E+03  0.90441055238E+02 0.  0.
         23    2    4    4    0    0 -0.89635102352E+03 -0.50003603186E+03 -0.64732827743E+03  0.12169302936E+04  0.91674697991E+02 0.  0.
          4    1    3    3  502    0  0.60174656443E+02  0.46237955403E+02 -0.34616542447E+03  0.35438600268E+03  0.00000000000E+00 0. -1.
         -3    1    3    3    0  502  0.65021271244E+03  0.45938679336E+03 -0.27284357986E+04  0.28422129942E+04  0.00000000000E+00 0.  1.
         13    1    5    5    0    0  0.13080775334E+03 -0.32604679688E+01 -0.25101634493E+03  0.28307331985E+03  0.00000000000E+00 0. -1.
        -13    1    5    5    0    0  0.55155901297E+02 -0.23282489353E+01 -0.21915961971E+02  0.59396157957E+02  0.00000000000E+00 0.  1.
          3    1    6    6  503    0 -0.81454146158E+03 -0.47908331787E+03 -0.57862751891E+03  0.11080651712E+04  0.00000000000E+00 0. -1.
         -3    1    6    6    0  503 -0.81809561937E+02 -0.20952713992E+02 -0.68700758520E+02  0.10886512237E+03  0.00000000000E+00 0.  1.
<mgrwt>
<rscale>  0 0.25808145E+04</rscale>
<asrwt>0</asrwt>
<pdfrwt beam="1">  1        2 0.67314307E+00 0.25808145E+04</pdfrwt>
<pdfrwt beam="2">  1       -1 0.58549001E-01 0.25808145E+04</pdfrwt>
<totfact> 0.48385693E-01</totfact>
</mgrwt>
</event>
<event>
12    7  0.1729738E-007  0.3111929E+04  0.7818608E-02  0.8212472E-01
         -1   -1    0    0    0  501 -0.00000000000E+00  0.00000000000E+00  0.11826470898E+04  0.11826470898E+04  0.00000000000E+00 0.  1.
          2   -1    0    0  501    0  0.00000000000E+00 -0.00000000000E+00 -0.20471247314E+04  0.20471247314E+04  0.00000000000E+00 0. -1.
         24    2    1    2    0    0  0.33831004968E+03  0.11910502772E+04 -0.11214717695E+04  0.16724768861E+04  0.80159543142E+02 0.  0.
        254    2    1    2    0    0 -0.33831004968E+03 -0.11910502772E+04  0.25699412790E+03  0.15572949351E+04  0.90888232496E+03 0.  0.
         23    2    4    4    0    0 -0.37549093836E+03 -0.92305159186E+03 -0.19769725932E+03  0.10201596047E+04  0.92864022456E+02 0.  0.
         23    2    4    4    0    0  0.37180888681E+02 -0.26799868533E+03  0.45469138722E+03  0.53713533042E+03  0.92543998981E+02 0.  0.
          2    1    3    3  502    0  0.17344235610E+03  0.75122621333E+03 -0.68887963209E+03  0.10339140303E+04  0.00000000000E+00 0. -1.
         -1    1    3    3    0  502  0.16486769359E+03  0.43982406385E+03 -0.43259213744E+03  0.63856285588E+03  0.00000000000E+00 0.  1.
         13    1    5    5    0    0 -0.37849375700E+03 -0.90513532295E+03 -0.20158826930E+03  0.10015814032E+04  0.00000000000E+00 0. -1.
        -13    1    5    5    0    0  0.30028186425E+01 -0.17916268909E+02  0.38910099739E+01  0.18578201475E+02  0.00000000000E+00 0.  1.
          2    1    6    6  503    0 -0.86862666836E+01  0.92066627174E+00  0.26019158127E+01  0.91142098494E+01  0.00000000000E+00 0.  1.
         -2    1    6    6    0  503  0.45867155364E+02 -0.26891935160E+03  0.45208947141E+03  0.52802112057E+03  0.00000000000E+00 0. -1.
<mgrwt>
<rscale>  0 0.31119294E+04</rscale>
<asrwt>0</asrwt>
<pdfrwt beam="1">  1        2 0.31494226E+00 0.31119294E+04</pdfrwt>
<pdfrwt beam="2">  1       -1 0.18194571E+00 0.31119294E+04</pdfrwt>
<totfact> 0.12227387E+00</totfact>
</mgrwt>
</event>
<event>
12    7  0.1729738E-007  0.1477471E+04  0.7818608E-02  0.8899574E-01
          2   -1    0    0  501    0  0.00000000000E+00  0.00000000000E+00  0.45760769386E+03  0.45760769386E+03  0.00000000000E+00 0. -1.
         -1   -1    0    0    0  501 -0.00000000000E+00 -0.00000000000E+00 -0.11925716361E+04  0.11925716361E+04  0.00000000000E+00 0.  1.
         24    2    1    2    0    0 -0.10133655430E+03  0.25824770372E+03  0.18097439987E+03  0.34058854373E+03  0.79295958253E+02 0.  0.
        254    2    1    2    0    0  0.10133655430E+03 -0.25824770372E+03 -0.91593834214E+03  0.13095907863E+04  0.89393736198E+03 0.  0.
         23    2    4    4    0    0  0.46627981670E+02 -0.56507400034E+03 -0.39986527987E+03  0.69951328220E+03  0.89127972013E+02 0.  0.
         23    2    4    4    0    0  0.54708572627E+02  0.30682629662E+03 -0.51607306228E+03  0.61007750406E+03  0.93422433811E+02 0.  0.
          4    1    3    3  502    0 -0.86396201341E+02  0.25951914121E+03  0.17087293849E+03  0.32250899114E+03  0.00000000000E+00 0. -1.
         -3    1    3    3    0  502 -0.14940352956E+02 -0.12714374834E+01  0.10101461378E+02  0.18079552585E+02  0.00000000000E+00 0.  1.
         13    1    5    5    0    0  0.37504467364E+02 -0.52732452207E+03 -0.39591933185E+03  0.66047698974E+03  0.00000000000E+00 0. -1.
        -13    1    5    5    0    0  0.91235143057E+01 -0.37749478278E+02 -0.39459480208E+01  0.39036292464E+02  0.00000000000E+00 0.  1.
          3    1    6    6  503    0  0.28179413234E+02  0.14347173602E+03 -0.15608648588E+03  0.21387194636E+03  0.00000000000E+00 0. -1.
         -3    1    6    6    0  503  0.26529159393E+02  0.16335456061E+03 -0.35998657640E+03  0.39620555770E+03  0.00000000000E+00 0.  1.
<mgrwt>
<rscale>  0 0.14774708E+04</rscale>
<asrwt>0</asrwt>
<pdfrwt beam="1">  1        2 0.70401185E-01 0.14774708E+04</pdfrwt>
<pdfrwt beam="2">  1       -1 0.18347256E+00 0.14774708E+04</pdfrwt>
<totfact> 0.14837987E+01</totfact>
</mgrwt>
</event>
<event>
12    7  0.1729738E-007  0.1611645E+04  0.7818608E-02  0.8813426E-01
         -1   -1    0    0    0  501 -0.00000000000E+00  0.00000000000E+00  0.95449630978E+03  0.95449630978E+03  0.00000000000E+00 0.  1.
          2   -1    0    0  501    0  0.00000000000E+00 -0.00000000000E+00 -0.68030665398E+03  0.68030665398E+03  0.00000000000E+00 0. -1.
         24    2    1    2    0    0 -0.36227819459E+03 -0.40688627149E+03  0.35660191789E+02  0.55218214274E+03  0.82653138331E+02 0.  0.
        254    2    1    2    0    0  0.36227819459E+03  0.40688627149E+03  0.23852946401E+03  0.10826208210E+04  0.90463783290E+03 0.  0.
         23    2    4    4    0    0 -0.27475794681E+03  0.24883563688E+03  0.16432825255E+03  0.41501626588E+03  0.88451245565E+02 0.  0.
         23    2    4    4    0    0  0.63703614139E+03  0.15805063461E+03  0.74201211459E+02  0.66760455515E+03  0.96927672662E+02 0.  0.
          4    1    3    3  502    0 -0.80637171705E+02 -0.12898494737E+03  0.36845386266E+02  0.15651534301E+03  0.00000000000E+00 0. -1.
         -3    1    3    3    0  502 -0.28164102288E+03 -0.27790132412E+03 -0.11851944769E+01  0.39566679973E+03  0.00000000000E+00 0.  1.
         13    1    5    5    0    0 -0.94479934344E+02  0.13072253677E+03  0.10130265935E+03  0.19046539949E+03  0.00000000000E+00 0.  1.
        -13    1    5    5    0    0 -0.18027801246E+03  0.11811310011E+03  0.63025593194E+02  0.22455086638E+03  0.00000000000E+00 0. -1.
          2    1    6    6  503    0  0.39214152559E+03  0.13541828917E+03  0.75411655847E+02  0.42166338111E+03  0.00000000000E+00 0. -1.
         -2    1    6    6    0  503  0.24489461580E+03  0.22632345444E+02 -0.12104443880E+01  0.24594117403E+03  0.00000000000E+00 0.  1.
<mgrwt>
<rscale>  0 0.16116454E+04</rscale>
<asrwt>0</asrwt>
<pdfrwt beam="1">  1        2 0.10466256E+00 0.16116454E+04</pdfrwt>
<pdfrwt beam="2">  1       -1 0.14684559E+00 0.16116454E+04</pdfrwt>
<totfact> 0.17171999E+01</totfact>
</mgrwt>
</event>
<event>
12    7  0.1729738E-007  0.1745400E+04  0.7818608E-02  0.8735886E-01
          2   -1    0    0  501    0  0.00000000000E+00  0.00000000000E+00  0.27666275073E+04  0.27666275073E+04  0.00000000000E+00 0. -1.
         -1   -1    0    0    0  501 -0.00000000000E+00 -0.00000000000E+00 -0.27528292712E+03  0.27528292712E+03  0.00000000000E+00 0.  1.
         24    2    1    2    0    0  0.24905530837E+03  0.58724188085E+03  0.91954587597E+03  0.11220040856E+04  0.80293068669E+02 0.  0.
        254    2    1    2    0    0 -0.24905530837E+03 -0.58724188085E+03  0.15717987042E+04  0.19199063488E+04  0.89922613861E+03 0.  0.
         23    2    4    4    0    0 -0.48499685388E+03 -0.19691355898E+03  0.12383510510E+04  0.13475039368E+04  0.90866034230E+02 0.  0.
         23    2    4    4    0    0  0.23594154552E+03 -0.39032832187E+03  0.33344765324E+03  0.57240241203E+03  0.91829037313E+02 0.  0.
          4    1    3    3  502    0  0.23350902743E+03  0.48296035450E+03  0.79100201559E+03  0.95575172434E+03  0.00000000000E+00 0. -1.
         -3    1    3    3    0  502  0.15546280941E+02  0.10428152636E+03  0.12854386038E+03  0.16625236128E+03  0.00000000000E+00 0.  1.
         13    1    5    5    0    0 -0.16404202500E+02 -0.29202602274E+02  0.83934209000E+02  0.90370577511E+02  0.00000000000E+00 0. -1.
        -13    1    5    5    0    0 -0.46859265138E+03 -0.16771095671E+03  0.11544168420E+04  0.12571333593E+04  0.00000000000E+00 0.  1.
          1    1    6    6  503    0  0.75217689987E+02 -0.89616026508E+02  0.13192726229E+03  0.17633359189E+03  0.00000000000E+00 0. -1.
         -1    1    6    6    0  503  0.16072385553E+03 -0.30071229536E+03  0.20152039095E+03  0.39606882014E+03  0.00000000000E+00 0.  1.
<mgrwt>
<rscale>  0 0.17454000E+04</rscale>
<asrwt>0</asrwt>
<pdfrwt beam="1">  1        2 0.42563498E+00 0.17454000E+04</pdfrwt>
<pdfrwt beam="2">  1       -1 0.42351222E-01 0.17454000E+04</pdfrwt>
<totfact> 0.14377166E+01</totfact>
</mgrwt>
</event>
<event>
12    7  0.1729738E-007  0.2327303E+04  0.7818608E-02  0.8467233E-01
         -1   -1    0    0    0  501 -0.00000000000E+00  0.00000000000E+00  0.14224176774E+04  0.14224176774E+04  0.00000000000E+00 0.  1.
          2   -1    0    0  501    0  0.00000000000E+00 -0.00000000000E+00 -0.95196014472E+03  0.95196014472E+03  0.00000000000E+00 0. -1.
         24    2    1    2    0    0 -0.72237909355E+03  0.32783385751E+03 -0.39308223090E+03  0.88867166875E+03  0.76922699280E+02 0.  0.
        254    2    1    2    0    0  0.72237909355E+03 -0.32783385751E+03  0.86353976363E+03  0.14857061534E+04  0.91231313593E+03 0.  0.
         23    2    4    4    0    0  0.39530817391E+03  0.29263601302E+03  0.38547696449E+03  0.63199463412E+03  0.94447545851E+02 0.  0.
         23    2    4    4    0    0  0.32707091964E+03 -0.62046987053E+03  0.47806279913E+03  0.85371151930E+03  0.91219907727E+02 0.  0.
          2    1    3    3  502    0 -0.46794103629E+03  0.23490565772E+03 -0.22504961136E+03  0.56990947443E+03  0.00000000000E+00 0. -1.
         -1    1    3    3    0  502 -0.25443805726E+03  0.92928199792E+02 -0.16803261954E+03  0.31876219432E+03  0.00000000000E+00 0.  1.
         13    1    5    5    0    0  0.40239088374E+01  0.12914647150E+02  0.33054695003E+02  0.35715442249E+02  0.00000000000E+00 0. -1.
        -13    1    5    5    0    0  0.39128426508E+03  0.27972136587E+03  0.35242226949E+03  0.59627919187E+03  0.00000000000E+00 0.  1.
          4    1    6    6  503    0 -0.38858014023E+01 -0.27750687763E+02  0.13424399744E+02  0.31071122161E+02  0.00000000000E+00 0. -1.
         -4    1    6    6    0  503  0.33095672104E+03 -0.59271918276E+03  0.46463839939E+03  0.82264039714E+03  0.00000000000E+00 0.  1.
<mgrwt>
<rscale>  0 0.23273031E+04</rscale>
<asrwt>0</asrwt>
<pdfrwt beam="1">  1        2 0.14645541E+00 0.23273031E+04</pdfrwt>
<pdfrwt beam="2">  1       -1 0.21883349E+00 0.23273031E+04</pdfrwt>
<totfact> 0.31288849E+00</totfact>
</mgrwt>
</event>
<event>
12    7  0.1729738E-007  0.2252347E+04  0.7818608E-02  0.8496951E-01
         -1   -1    0    0    0  501 -0.00000000000E+00  0.00000000000E+00  0.15040358703E+04  0.15040358703E+04  0.00000000000E+00 0.  1.
          2   -1    0    0  501    0  0.00000000000E+00 -0.00000000000E+00 -0.84324217293E+03  0.84324217293E+03  0.00000000000E+00 0. -1.
         24    2    1    2    0    0 -0.72424536987E+03 -0.95284776752E+02  0.90044294404E+03  0.11622801872E+04  0.80543116432E+02 0.  0.
        254    2    1    2    0    0  0.72424536987E+03  0.95284776752E+02 -0.23964924668E+03  0.11849978560E+04  0.90176361254E+03 0.  0.
         23    2    4    4    0    0  0.41413348283E+02  0.29776874841E+03 -0.33604894215E+03  0.46035862237E+03  0.92843291221E+02 0.  0.
         23    2    4    4    0    0  0.68283202159E+03 -0.20248397166E+03  0.96399695466E+02  0.72463923366E+03  0.92465070068E+02 0.  0.
          2    1    3    3  502    0 -0.93466720788E+02 -0.27818237557E+02  0.15861521428E+03  0.18619524279E+03  0.00000000000E+00 0. -1.
         -1    1    3    3    0  502 -0.63077864908E+03 -0.67466539194E+02  0.74182772976E+03  0.97608494441E+03  0.00000000000E+00 0.  1.
         13    1    5    5    0    0  0.59996518043E+02  0.14599094663E+03 -0.13452178771E+03  0.20738623398E+03  0.00000000000E+00 0. -1.
        -13    1    5    5    0    0 -0.18583169760E+02  0.15177780178E+03 -0.20152715444E+03  0.25297238839E+03  0.00000000000E+00 0.  1.
          4    1    6    6  503    0  0.79279427902E+02 -0.50876160223E+02 -0.40237065995E+01  0.94285744322E+02  0.00000000000E+00 0. -1.
         -4    1    6    6    0  503  0.60355259369E+03 -0.15160781144E+03  0.10042340207E+03  0.63035348934E+03  0.00000000000E+00 0.  1.
<mgrwt>
<rscale>  0 0.22523468E+04</rscale>
<asrwt>0</asrwt>
<pdfrwt beam="1">  1        2 0.12972957E+00 0.22523468E+04</pdfrwt>
<pdfrwt beam="2">  1       -1 0.23139013E+00 0.22523468E+04</pdfrwt>
<totfact> 0.30783316E+00</totfact>
</mgrwt>
</event>
<event>
12    7  0.1729738E-007  0.1608989E+04  0.7818608E-02  0.8815044E-01
          2   -1    0    0  501    0  0.00000000000E+00  0.00000000000E+00  0.10781709367E+04  0.10781709367E+04  0.00000000000E+00 0. -1.
         -1   -1    0    0    0  501 -0.00000000000E+00 -0.00000000000E+00 -0.60028680150E+03  0.60028680150E+03  0.00000000000E+00 0.  1.
         24    2    1    2    0    0 -0.32038064135E+03  0.29154892894E+03  0.51804676717E+03  0.67882945850E+03  0.69227504885E+02 0.  0.
        254    2    1    2    0    0  0.32038064135E+03 -0.29154892894E+03 -0.40162631950E+02  0.99962827973E+03  0.89999951517E+03 0.  0.
         23    2    4    4    0    0  0.62355454352E+03 -0.18580300386E+03  0.31211481408E+02  0.65764902969E+03  0.90471347332E+02 0.  0.
         23    2    4    4    0    0 -0.30317390218E+03 -0.10574592508E+03 -0.71374113357E+02  0.34197925004E+03  0.93589143411E+02 0.  0.
          4    1    3    3  502    0 -0.30925072916E+03  0.25615093193E+03  0.47285958732E+03  0.62035917237E+03  0.00000000000E+00 0. -1.
         -3    1    3    3    0  502 -0.11129912184E+02  0.35397997016E+02  0.45187179850E+02  0.58470286136E+02  0.00000000000E+00 0.  1.
         13    1    5    5    0    0  0.22429610934E+03 -0.30199219247E+02 -0.14054439727E+02  0.22675595865E+03  0.00000000000E+00 0. -1.
        -13    1    5    5    0    0  0.39925843419E+03 -0.15560378461E+03  0.45265921135E+02  0.43089307104E+03  0.00000000000E+00 0.  1.
          3    1    6    6  503    0 -0.27366172849E+03 -0.67800616009E+02 -0.40454907688E+02  0.28482321662E+03  0.00000000000E+00 0. -1.
         -3    1    6    6    0  503 -0.29512173692E+02 -0.37945309075E+02 -0.30919205669E+02  0.57156033417E+02  0.00000000000E+00 0.  1.
<mgrwt>
<rscale>  0 0.16089895E+04</rscale>
<asrwt>0</asrwt>
<pdfrwt beam="1">  1        2 0.16587245E+00 0.16089895E+04</pdfrwt>
<pdfrwt beam="2">  1       -1 0.92351816E-01 0.16089895E+04</pdfrwt>
<totfact> 0.28030661E+01</totfact>
</mgrwt>
</event>
<event>
12    7  0.1729738E-007  0.1334375E+04  0.7818608E-02  0.9002741E-01
         -1   -1    0    0    0  501 -0.00000000000E+00  0.00000000000E+00  0.47355408144E+03  0.47355408144E+03  0.00000000000E+00 0.  1.
          2   -1    0    0  501    0  0.00000000000E+00 -0.00000000000E+00 -0.93999658475E+03  0.93999658475E+03  0.00000000000E+00 0. -1.
         24    2    1    2    0    0  0.26219183553E+03 -0.93416479111E+02  0.11353823242E+03  0.31022951088E+03  0.76682605659E+02 0.  0.
        254    2    1    2    0    0 -0.26219183553E+03  0.93416479111E+02 -0.57998073573E+03  0.11033211553E+04  0.89636416749E+03 0.  0.
         23    2    4    4    0    0 -0.50994101365E+03 -0.12375500014E+03 -0.54086106034E+03  0.75929063985E+03  0.92932511602E+02 0.  0.
         23    2    4    4    0    0  0.24774917811E+03  0.21717147925E+03 -0.39119675384E+02  0.34403051546E+03  0.91013954469E+02 0.  0.
          2    1    3    3  502    0  0.25085872546E+03 -0.77360970715E+02  0.85695163816E+02  0.27614938173E+03  0.00000000000E+00 0. -1.
         -1    1    3    3    0  502  0.11333110079E+02 -0.16055508396E+02  0.27843068604E+02  0.34080129155E+02  0.00000000000E+00 0.  1.
         13    1    5    5    0    0 -0.11292884321E+03 -0.24593653088E+02 -0.68585523662E+02  0.13439399338E+03  0.00000000000E+00 0.  1.
        -13    1    5    5    0    0 -0.39701217044E+03 -0.99161347056E+02 -0.47227553668E+03  0.62489664648E+03  0.00000000000E+00 0. -1.
          2    1    6    6  503    0  0.22074738238E+03  0.20962039825E+03 -0.11441540278E+02  0.30463260993E+03  0.00000000000E+00 0. -1.
         -2    1    6    6    0  503  0.27001795732E+02  0.75510810089E+01 -0.27678135107E+02  0.39397905530E+02  0.00000000000E+00 0.  1.
<mgrwt>
<rscale>  0 0.13343751E+04</rscale>
<asrwt>0</asrwt>
<pdfrwt beam="1">  1        2 0.14461486E+00 0.13343751E+04</pdfrwt>
<pdfrwt beam="2">  1       -1 0.72854474E-01 0.13343751E+04</pdfrwt>
<totfact> 0.58442376E+01</totfact>
</mgrwt>
</event>
<event>
12    7  0.1729738E-007  0.1807635E+04  0.7818608E-02  0.8702250E-01
          2   -1    0    0  501    0  0.00000000000E+00  0.00000000000E+00  0.18836114281E+04  0.18836114281E+04  0.00000000000E+00 0. -1.
         -1   -1    0    0    0  501 -0.00000000000E+00 -0.00000000000E+00 -0.43368090331E+03  0.43368090331E+03  0.00000000000E+00 0.  1.
         24    2    1    2    0    0  0.50296850564E+03  0.69404304639E+02  0.11128778407E+04  0.12259834870E+04  0.82122755098E+02 0.  0.
        254    2    1    2    0    0 -0.50296850564E+03 -0.69404304639E+02  0.33705268413E+03  0.10913088444E+04  0.90529343692E+03 0.  0.
         23    2    4    4    0    0 -0.27300659547E+03  0.25310020944E+03  0.51871154646E+03  0.64499670770E+03  0.91470035145E+02 0.  0.
         23    2    4    4    0    0 -0.22996191017E+03 -0.32250451408E+03 -0.18165886233E+03  0.44631213675E+03  0.96451746553E+02 0.  0.
          2    1    3    3  502    0  0.15793024131E+03  0.32107258245E+02  0.26979208399E+03  0.31426200174E+03  0.00000000000E+00 0. -1.
         -1    1    3    3    0  502  0.34503826433E+03  0.37297046394E+02  0.84308575671E+03  0.91172148526E+03  0.00000000000E+00 0.  1.
         13    1    5    5    0    0 -0.62429938648E+02  0.15724768818E+02  0.11147458485E+03  0.12872975049E+03  0.00000000000E+00 0.  1.
        -13    1    5    5    0    0 -0.21057665682E+03  0.23737544062E+03  0.40723696161E+03  0.51626695721E+03  0.00000000000E+00 0. -1.
          3    1    6    6  503    0 -0.10257334501E+03 -0.15531575858E+03 -0.13781681835E+03  0.23159825429E+03  0.00000000000E+00 0. -1.
         -3    1    6    6    0  503 -0.12738856515E+03 -0.16718875550E+03 -0.43842043975E+02  0.21471388245E+03  0.00000000000E+00 0.  1.
<mgrwt>
<rscale>  0 0.18076353E+04</rscale>
<asrwt>0</asrwt>
<pdfrwt beam="1">  1        2 0.28978637E+00 0.18076353E+04</pdfrwt>
<pdfrwt beam="2">  1       -1 0.66720140E-01 0.18076353E+04</pdfrwt>
<totfact> 0.18963208E+01</totfact>
</mgrwt>
</event>
<event>
12    7  0.1729738E-007  0.2410848E+04  0.7818608E-02  0.8435453E-01
          2   -1    0    0  501    0  0.00000000000E+00  0.00000000000E+00  0.18403622809E+04  0.18403622809E+04  0.00000000000E+00 0. -1.
         -1   -1    0    0    0  501 -0.00000000000E+00 -0.00000000000E+00 -0.78954380982E+03  0.78954380982E+03  0.00000000000E+00 0.  1.
         24    2    1    2    0    0  0.31254458087E+02  0.85594653032E+03 -0.17385969027E+03  0.87766436731E+03  0.80288516207E+02 0.  0.
        254    2    1    2    0    0 -0.31254458087E+02 -0.85594653032E+03  0.12246781614E+04  0.17522417234E+04  0.91481864569E+03 0.  0.
         23    2    4    4    0    0  0.39954489574E+03 -0.21586238360E+03  0.33656709205E+03  0.57234710746E+03  0.89839365530E+02 0.  0.
         23    2    4    4    0    0 -0.43079935383E+03 -0.64008414671E+03  0.88811106932E+03  0.11798946160E+04  0.90079049939E+02 0.  0.
          2    1    3    3  502    0  0.43502975364E+00  0.28109490689E+03 -0.94434129007E+02  0.29653387775E+03  0.00000000000E+00 0. -1.
         -1    1    3    3    0  502  0.30819428334E+02  0.57485162342E+03 -0.79425561265E+02  0.58113048956E+03  0.00000000000E+00 0.  1.
         13    1    5    5    0    0  0.31266176353E+03 -0.14056219042E+03  0.21312102527E+03  0.40365291918E+03  0.00000000000E+00 0.  1.
        -13    1    5    5    0    0  0.86883132209E+02 -0.75300193178E+02  0.12344606678E+03  0.16869418828E+03  0.00000000000E+00 0. -1.
          1    1    6    6  503    0 -0.19486898847E+03 -0.27350293098E+03  0.32072993265E+03  0.46437642664E+03  0.00000000000E+00 0. -1.
         -1    1    6    6    0  503 -0.23593036536E+03 -0.36658121573E+03  0.56738113667E+03  0.71551818933E+03  0.00000000000E+00 0.  1.
<mgrwt>
<rscale>  0 0.24108477E+04</rscale>
<asrwt>0</asrwt>
<pdfrwt beam="1">  1        2 0.28313266E+00 0.24108477E+04</pdfrwt>
<pdfrwt beam="2">  1       -1 0.12146828E+00 0.24108477E+04</pdfrwt>
<totfact> 0.50352924E+00</totfact>
</mgrwt>
</event>
<event>
12    7  0.1729738E-007  0.1999129E+04  0.7818608E-02  0.8607028E-01
          2   -1    0    0  501    0  0.00000000000E+00  0.00000000000E+00  0.16926657079E+04  0.16926657079E+04  0.00000000000E+00 0. -1.
         -1   -1    0    0    0  501 -0.00000000000E+00 -0.00000000000E+00 -0.59026942846E+03  0.59026942846E+03  0.00000000000E+00 0.  1.
         24    2    1    2    0    0 -0.43507069699E+03  0.56876954797E+03  0.82021630815E+03  0.10916813943E+04  0.78918720157E+02 0.  0.
        254    2    1    2    0    0  0.43507069699E+03 -0.56876954797E+03  0.28217997132E+03  0.11912537421E+04  0.90921649335E+03 0.  0.
         23    2    4    4    0    0  0.41108874823E+03 -0.58789525038E+03 -0.15896324028E+03  0.74016915468E+03  0.89254027577E+02 0.  0.
         23    2    4    4    0    0  0.23981948758E+02  0.19125702411E+02  0.44114321160E+03  0.45108458742E+03  0.89045188005E+02 0.  0.
          2    1    3    3  502    0 -0.43580319414E+03  0.55319919960E+03  0.80833651614E+03  0.10720828801E+04  0.00000000000E+00 0. -1.
         -1    1    3    3    0  502  0.73249714747E+00  0.15570348366E+02  0.11879792018E+02  0.19598514196E+02  0.00000000000E+00 0.  1.
         13    1    5    5    0    0  0.22809613841E+03 -0.36298415971E+03 -0.55343283009E+02  0.43225944469E+03  0.00000000000E+00 0. -1.
        -13    1    5    5    0    0  0.18299260983E+03 -0.22491109068E+03 -0.10361995727E+03  0.30790970999E+03  0.00000000000E+00 0.  1.
          1    1    6    6  503    0 -0.18680817065E+02  0.17504918947E+02  0.38813908381E+02  0.46496393380E+02  0.00000000000E+00 0. -1.
         -1    1    6    6    0  503  0.42662765822E+02  0.16207834640E+01  0.40232930322E+03  0.40458819404E+03  0.00000000000E+00 0.  1.
<mgrwt>
<rscale>  0 0.19991286E+04</rscale>
<asrwt>0</asrwt>
<pdfrwt beam="1">  1        2 0.26041011E+00 0.19991286E+04</pdfrwt>
<pdfrwt beam="2">  1       -1 0.90810682E-01 0.19991286E+04</pdfrwt>
<totfact> 0.12405473E+01</totfact>
</mgrwt>
</event>
<event>
12    7  0.1729738E-007  0.1320984E+04  0.7818608E-02  0.9013088E-01
         -1   -1    0    0    0  501 -0.00000000000E+00  0.00000000000E+00  0.24855100966E+03  0.24855100966E+03  0.00000000000E+00 0.  1.
          2   -1    0    0  501    0  0.00000000000E+00 -0.00000000000E+00 -0.17551710190E+04  0.17551710190E+04  0.00000000000E+00 0. -1.
         24    2    1    2    0    0  0.55489153948E+02  0.66666319260E+02  0.11427343415E+03  0.16356058087E+03  0.78550630376E+02 0.  0.
        254    2    1    2    0    0 -0.55489153948E+02 -0.66666319260E+02 -0.16208934435E+04  0.18401614478E+04  0.86681898598E+03 0.  0.
         23    2    4    4    0    0 -0.16565184773E+03 -0.28606167951E+03 -0.15224903402E+04  0.15604740516E+04  0.88490737083E+02 0.  0.
         23    2    4    4    0    0  0.11016269378E+03  0.21939536025E+03 -0.98403103282E+02  0.27968739619E+03  0.90949027747E+02 0.  0.
          4    1    3    3  502    0  0.13188218259E+02 -0.10799754705E+02 -0.24518962292E+01  0.17221370377E+02  0.00000000000E+00 0. -1.
         -3    1    3    3    0  502  0.42300935689E+02  0.77466073965E+02  0.11672533038E+03  0.14633921049E+03  0.00000000000E+00 0.  1.
         13    1    5    5    0    0 -0.13314271210E+03 -0.20580419901E+03 -0.12730022343E+04  0.12963861457E+04  0.00000000000E+00 0. -1.
        -13    1    5    5    0    0 -0.32509135629E+02 -0.80257480507E+02 -0.24948810590E+03  0.26408790594E+03  0.00000000000E+00 0.  1.
          1    1    6    6  503    0  0.12111746868E+02  0.56942190541E+02  0.13002632912E+02  0.59650447932E+02  0.00000000000E+00 0. -1.
         -1    1    6    6    0  503  0.98050946915E+02  0.16245316971E+03 -0.11140573619E+03  0.22003694826E+03  0.00000000000E+00 0.  1.
<mgrwt>
<rscale>  0 0.13209838E+04</rscale>
<asrwt>0</asrwt>
<pdfrwt beam="1">  1        2 0.27002631E+00 0.13209838E+04</pdfrwt>
<pdfrwt beam="2">  1       -1 0.38238617E-01 0.13209838E+04</pdfrwt>
<totfact> 0.67381981E+01</totfact>
</mgrwt>
</event>
<event>
12    7  0.1729738E-007  0.2124082E+04  0.7818608E-02  0.8550709E-01
          2   -1    0    0  501    0  0.00000000000E+00  0.00000000000E+00  0.17874741754E+04  0.17874741754E+04  0.00000000000E+00 0. -1.
         -1   -1    0    0    0  501 -0.00000000000E+00 -0.00000000000E+00 -0.63101939442E+03  0.63101939442E+03  0.00000000000E+00 0.  1.
         24    2    1    2    0    0  0.67477925963E+03 -0.49994993267E+03  0.22369589584E+03  0.87272957013E+03  0.79624521064E+02 0.  0.
        254    2    1    2    0    0 -0.67477925963E+03  0.49994993267E+03  0.93275888514E+03  0.15457639997E+04  0.90225840008E+03 0.  0.
         23    2    4    4    0    0 -0.64135941740E+03  0.48556917060E+03  0.10918797492E+04  0.13592206389E+04  0.90332920722E+02 0.  0.
         23    2    4    4    0    0 -0.33419842229E+02  0.14380762073E+02 -0.15912086411E+03  0.18654336082E+03  0.90306610486E+02 0.  0.
          4    1    3    3  502    0  0.41960776764E+02 -0.30560770808E+02  0.34822700367E+02  0.62508303127E+02  0.00000000000E+00 0. -1.
         -3    1    3    3    0  502  0.63281848287E+03 -0.46938916186E+03  0.18887319548E+03  0.81022126700E+03  0.00000000000E+00 0.  1.
         13    1    5    5    0    0 -0.11095111450E+03  0.79379846602E+02  0.24644690117E+03  0.28168667869E+03  0.00000000000E+00 0. -1.
        -13    1    5    5    0    0 -0.53040830290E+03  0.40618932400E+03  0.84543284808E+03  0.10775339602E+04  0.00000000000E+00 0.  1.
          2    1    6    6  503    0  0.98176804840E+01 -0.21973326748E+02 -0.82467178176E+01  0.25440563933E+02  0.00000000000E+00 0. -1.
         -2    1    6    6    0  503 -0.43237522713E+02  0.36354088821E+02 -0.15087414630E+03  0.16110279689E+03  0.00000000000E+00 0.  1.
<mgrwt>
<rscale>  0 0.21240818E+04</rscale>
<asrwt>0</asrwt>
<pdfrwt beam="1">  1        2 0.27499602E+00 0.21240818E+04</pdfrwt>
<pdfrwt beam="2">  1       -1 0.97079908E-01 0.21240818E+04</pdfrwt>
<totfact> 0.93628950E+00</totfact>
</mgrwt>
</event>
<event>
12    7  0.1729738E-007  0.1257904E+04  0.7818608E-02  0.9063630E-01
         -1   -1    0    0    0  501 -0.00000000000E+00  0.00000000000E+00  0.65372601366E+03  0.65372601366E+03  0.00000000000E+00 0.  1.
          2   -1    0    0  501    0  0.00000000000E+00 -0.00000000000E+00 -0.60511678331E+03  0.60511678331E+03  0.00000000000E+00 0. -1.
         24    2    1    2    0    0 -0.20075681214E+03 -0.15874843488E+03  0.14496428146E+03  0.30476955313E+03  0.79783923303E+02 0.  0.
        254    2    1    2    0    0  0.20075681214E+03  0.15874843488E+03 -0.96355051110E+02  0.95407324384E+03  0.91403889170E+03 0.  0.
         23    2    4    4    0    0 -0.33599212783E+02 -0.35022909879E+03 -0.12846171238E+03  0.38534495347E+03  0.90548290336E+02 0.  0.
         23    2    4    4    0    0  0.23435602492E+03  0.50897753367E+03  0.32106661273E+02  0.56872829037E+03  0.91870312768E+02 0.  0.
          4    1    3    3  502    0 -0.13059772728E+02 -0.24277502224E+02 -0.68885456080E+01  0.28414905218E+02  0.00000000000E+00 0. -1.
         -1    1    3    3    0  502 -0.18769703941E+03 -0.13447093266E+03  0.15185282707E+03  0.27635464791E+03  0.00000000000E+00 0.  1.
         13    1    5    5    0    0  0.45796994073E+01 -0.29089609193E+03 -0.87707661977E+02  0.30386533846E+03  0.00000000000E+00 0.  1.
        -13    1    5    5    0    0 -0.38178912190E+02 -0.59333006859E+02 -0.40754050406E+02  0.81479615018E+02  0.00000000000E+00 0. -1.
          3    1    6    6  503    0  0.22053483047E+03  0.39003292692E+03  0.26871323755E+02  0.44886898264E+03  0.00000000000E+00 0. -1.
         -3    1    6    6    0  503  0.13821194451E+02  0.11894460675E+03  0.52353375182E+01  0.11985930773E+03  0.00000000000E+00 0.  1.
<mgrwt>
<rscale>  0 0.12579039E+04</rscale>
<asrwt>0</asrwt>
<pdfrwt beam="1">  1        2 0.93094890E-01 0.12579039E+04</pdfrwt>
<pdfrwt beam="2">  1       -1 0.10057323E+00 0.12579039E+04</pdfrwt>
<totfact> 0.51899826E+01</totfact>
</mgrwt>
</event>
<event>
12    7  0.1729738E-007  0.1299413E+04  0.7818608E-02  0.9030031E-01
          2   -1    0    0  501    0  0.00000000000E+00  0.00000000000E+00  0.15212563868E+04  0.15212563868E+04  0.00000000000E+00 0. -1.
         -1   -1    0    0    0  501 -0.00000000000E+00 -0.00000000000E+00 -0.27748013207E+03  0.27748013207E+03  0.00000000000E+00 0.  1.
         24    2    1    2    0    0 -0.95685687692E+02  0.64462330296E+02 -0.10106057145E+03  0.17665205581E+03  0.87644548392E+02 0.  0.
        254    2    1    2    0    0  0.95685687692E+02 -0.64462330296E+02  0.13448368262E+04  0.16220844630E+04  0.89958922479E+03 0.  0.
         23    2    4    4    0    0  0.43631607342E+03 -0.78056291417E+02  0.36613915150E+03  0.58191078477E+03  0.89987680386E+02 0.  0.
         23    2    4    4    0    0 -0.34063038573E+03  0.13593961121E+02  0.97869767467E+03  0.10401736783E+04  0.88872307751E+02 0.  0.
          4    1    3    3  502    0 -0.51971096331E+02  0.11696870419E+01 -0.30677446048E+01  0.52074697105E+02  0.00000000000E+00 0. -1.
         -3    1    3    3    0  502 -0.43714591361E+02  0.63292643254E+02 -0.97992826848E+02  0.12457735870E+03  0.00000000000E+00 0.  1.
         13    1    5    5    0    0  0.25677241039E+03 -0.27000864970E+02  0.26342582039E+03  0.36885536501E+03  0.00000000000E+00 0.  1.
        -13    1    5    5    0    0  0.17954366303E+03 -0.51055426447E+02  0.10271333110E+03  0.21305541976E+03  0.00000000000E+00 0. -1.
          1    1    6    6  503    0 -0.15408602102E+03  0.46439577849E+02  0.50446543616E+03  0.52951346776E+03  0.00000000000E+00 0. -1.
         -1    1    6    6    0  503 -0.18654436471E+03 -0.32845616728E+02  0.47423223851E+03  0.51066021050E+03  0.00000000000E+00 0.  1.
<mgrwt>
<rscale>  0 0.12994128E+04</rscale>
<asrwt>0</asrwt>
<pdfrwt beam="1">  1        2 0.23403944E+00 0.12994128E+04</pdfrwt>
<pdfrwt beam="2">  1       -1 0.42689252E-01 0.12994128E+04</pdfrwt>
<totfact> 0.74485565E+01</totfact>
</mgrwt>
</event>
<event>
12    7  0.1729738E-007  0.1308241E+04  0.7818608E-02  0.9023055E-01
          2   -1    0    0  501    0  0.00000000000E+00  0.00000000000E+00  0.12000447217E+04  0.12000447217E+04  0.00000000000E+00 0. -1.
         -1   -1    0    0    0  501 -0.00000000000E+00 -0.00000000000E+00 -0.35654812532E+03  0.35654812532E+03  0.00000000000E+00 0.  1.
         24    2    1    2    0    0 -0.24429919905E+03  0.20312401735E+03  0.16470190681E+03  0.36628469358E+03  0.78078765094E+02 0.  0.
        254    2    1    2    0    0  0.24429919905E+03 -0.20312401735E+03  0.67879468960E+03  0.11903081535E+04  0.92473228803E+03 0.  0.
         23    2    4    4    0    0 -0.28056839894E+03 -0.14820824422E+03  0.54404967921E+03  0.63797749612E+03  0.10169032385E+03 0.  0.
         23    2    4    4    0    0  0.52486759800E+03 -0.54915773131E+02  0.13474501040E+03  0.55233065736E+03  0.91712592762E+02 0.  0.
          2    1    3    3  502    0 -0.12177581426E+03  0.95875039908E+02  0.12388181466E+03  0.19841390128E+03  0.00000000000E+00 0. -1.
         -1    1    3    3    0  502 -0.12252338479E+03  0.10724897745E+03  0.40820092143E+02  0.16787079230E+03  0.00000000000E+00 0.  1.
         13    1    5    5    0    0 -0.26189926297E+03 -0.13581835436E+03  0.42827861445E+03  0.52005809380E+03  0.00000000000E+00 0. -1.
        -13    1    5    5    0    0 -0.18669135970E+02 -0.12389889863E+02  0.11577106476E+03  0.11791940232E+03  0.00000000000E+00 0.  1.
          3    1    6    6  503    0  0.38364567418E+03 -0.24527192007E+01  0.79046639248E+02  0.39171212685E+03  0.00000000000E+00 0. -1.
         -3    1    6    6    0  503  0.14122192382E+03 -0.52463053930E+02  0.55698371148E+02  0.16061853051E+03  0.00000000000E+00 0.  1.
<mgrwt>
<rscale>  0 0.13082411E+04</rscale>
<asrwt>0</asrwt>
<pdfrwt beam="1">  1        2 0.18462226E+00 0.13082411E+04</pdfrwt>
<pdfrwt beam="2">  1       -1 0.54853558E-01 0.13082411E+04</pdfrwt>
<totfact> 0.71033485E+01</totfact>
</mgrwt>
</event>
<event>
12    7  0.1729738E-007  0.1534921E+04  0.7818608E-02  0.8861558E-01
         -1   -1    0    0    0  501 -0.00000000000E+00  0.00000000000E+00  0.23462160439E+04  0.23462160439E+04  0.00000000000E+00 0.  1.
          2   -1    0    0  501    0  0.00000000000E+00 -0.00000000000E+00 -0.25104053808E+03  0.25104053808E+03  0.00000000000E+00 0. -1.
         24    2    1    2    0    0 -0.48819534657E+03  0.27816604341E+02  0.60359790694E+03  0.78099002216E+03  0.80663012332E+02 0.  0.
        254    2    1    2    0    0  0.48819534657E+03 -0.27816604341E+02  0.14915775989E+04  0.18162665598E+04  0.91373520399E+03 0.  0.
         23    2    4    4    0    0  0.48339153724E+02  0.38883952586E+03  0.77904140205E+03  0.87655409520E+03  0.88931012863E+02 0.  0.
         23    2    4    4    0    0  0.43985619284E+03 -0.41665613020E+03  0.71253619682E+03  0.93971246463E+03  0.90971881276E+02 0.  0.
          2    1    3    3  502    0 -0.48387395422E+03  0.36709349861E+02  0.59569850381E+03  0.76833474956E+03  0.00000000000E+00 0. -1.
         -1    1    3    3    0  502 -0.43213923486E+01 -0.88927455206E+01  0.78994031357E+01  0.12655272602E+02  0.00000000000E+00 0.  1.
         13    1    5    5    0    0 -0.14531672680E+02  0.23512885435E+03  0.46863465246E+03  0.52451423732E+03  0.00000000000E+00 0. -1.
        -13    1    5    5    0    0  0.62870826404E+02  0.15371067151E+03  0.31040674959E+03  0.35203985789E+03  0.00000000000E+00 0.  1.
          3    1    6    6  503    0  0.38096821123E+03 -0.38210242743E+03  0.59063810332E+03  0.79999525756E+03  0.00000000000E+00 0. -1.
         -3    1    6    6    0  503  0.58887981608E+02 -0.34553702772E+02  0.12189809350E+03  0.13971720707E+03  0.00000000000E+00 0.  1.
<mgrwt>
<rscale>  0 0.15349206E+04</rscale>
<asrwt>0</asrwt>
<pdfrwt beam="1">  1        2 0.38621623E-01 0.15349206E+04</pdfrwt>
<pdfrwt beam="2">  1       -1 0.36095630E+00 0.15349206E+04</pdfrwt>
<totfact> 0.19526737E+00</totfact>
</mgrwt>
</event>
<event>
12    7  0.1729738E-007  0.3061831E+04  0.7818608E-02  0.8226292E-01
         -1   -1    0    0    0  501 -0.00000000000E+00  0.00000000000E+00  0.13382535989E+04  0.13382535989E+04  0.00000000000E+00 0.  1.
          2   -1    0    0  501    0  0.00000000000E+00 -0.00000000000E+00 -0.17513137152E+04  0.17513137152E+04  0.00000000000E+00 0. -1.
         24    2    1    2    0    0 -0.65291284054E+03  0.94031984949E+03 -0.99751839731E+03  0.15204269325E+04  0.78476158753E+02 0.  0.
        254    2    1    2    0    0  0.65291284054E+03 -0.94031984949E+03  0.58445828094E+03  0.15691403815E+04  0.90006303010E+03 0.  0.
         23    2    4    4    0    0  0.48579563334E+03 -0.48420065054E+03  0.77550423547E+03  0.10392424739E+04  0.90390447412E+02 0.  0.
         23    2    4    4    0    0  0.16711720720E+03 -0.45611919895E+03 -0.19104595453E+03  0.52989790764E+03  0.91215959056E+02 0.  0.
          2    1    3    3  502    0 -0.24664513025E+03  0.35857092799E+03 -0.43020421538E+03  0.61194983259E+03  0.00000000000E+00 0. -1.
         -1    1    3    3    0  502 -0.40626771028E+03  0.58174892151E+03 -0.56731418193E+03  0.90847709994E+03  0.00000000000E+00 0.  1.
         13    1    5    5    0    0  0.87568918521E+02 -0.12165375233E+03  0.21349332121E+03  0.26085886825E+03  0.00000000000E+00 0. -1.
        -13    1    5    5    0    0  0.39822671482E+03 -0.36254689821E+03  0.56201091426E+03  0.77838360565E+03  0.00000000000E+00 0.  1.
          4    1    6    6  503    0  0.47314831791E+02 -0.44396338598E+02 -0.16596570013E+02  0.66971444098E+02  0.00000000000E+00 0. -1.
         -4    1    6    6    0  503  0.11980237541E+03 -0.41172286035E+03 -0.17444938451E+03  0.46292646354E+03  0.00000000000E+00 0.  1.
<mgrwt>
<rscale>  0 0.30618307E+04</rscale>
<asrwt>0</asrwt>
<pdfrwt beam="1">  1        2 0.26943288E+00 0.30618307E+04</pdfrwt>
<pdfrwt beam="2">  1       -1 0.20588517E+00 0.30618307E+04</pdfrwt>
<totfact> 0.12206171E+00</totfact>
</mgrwt>
</event>
<event>
12    7  0.1729738E-007  0.2288384E+04  0.7818608E-02  0.8482515E-01
          2   -1    0    0  501    0  0.00000000000E+00  0.00000000000E+00  0.38488080068E+04  0.38488080068E+04  0.00000000000E+00 0. -1.
         -1   -1    0    0    0  501 -0.00000000000E+00 -0.00000000000E+00 -0.34015099585E+03  0.34015099585E+03  0.00000000000E+00 0.  1.
         24    2    1    2    0    0  0.69046446903E+03  0.56591952203E+03  0.23090723476E+04  0.24769526175E+04  0.80455418621E+02 0.  0.
        254    2    1    2    0    0 -0.69046446903E+03 -0.56591952203E+03  0.11995846633E+04  0.17120063851E+04  0.83364045600E+03 0.  0.
         23    2    4    4    0    0 -0.79267438471E+03 -0.30321559314E+03  0.11120206133E+04  0.14019112753E+04  0.92157492738E+02 0.  0.
         23    2    4    4    0    0  0.10220991568E+03 -0.26270392888E+03  0.87564050041E+02  0.31009510980E+03  0.95033116067E+02 0.  0.
          2    1    3    3  502    0  0.48640029027E+03  0.35772680000E+03  0.16127697608E+04  0.17220859465E+04  0.00000000000E+00 0. -1.
         -1    1    3    3    0  502  0.20406417876E+03  0.20819272203E+03  0.69630258680E+03  0.75486667097E+03  0.00000000000E+00 0.  1.
         13    1    5    5    0    0 -0.32978622693E+03 -0.17433568393E+03  0.47291462509E+03  0.60232892077E+03  0.00000000000E+00 0. -1.
        -13    1    5    5    0    0 -0.46288815778E+03 -0.12887990921E+03  0.63910598817E+03  0.79958235456E+03  0.00000000000E+00 0.  1.
          2    1    6    6  503    0  0.11298066752E+03 -0.18045038120E+03  0.77330963742E+02  0.22651059415E+03  0.00000000000E+00 0. -1.
         -2    1    6    6    0  503 -0.10770751840E+02 -0.82253547684E+02  0.10233086299E+02  0.83584515654E+02  0.00000000000E+00 0.  1.
<mgrwt>
<rscale>  0 0.22883845E+04</rscale>
<asrwt>0</asrwt>
<pdfrwt beam="1">  1        2 0.59212428E+00 0.22883845E+04</pdfrwt>
<pdfrwt beam="2">  1       -1 0.52330925E-01 0.22883845E+04</pdfrwt>
<totfact> 0.17195189E+00</totfact>
</mgrwt>
</event>
<event>
12    7  0.1729738E-007  0.2853576E+04  0.7818608E-02  0.8286825E-01
          2   -1    0    0  501    0  0.00000000000E+00  0.00000000000E+00  0.25234033126E+04  0.25234033126E+04  0.00000000000E+00 0. -1.
         -1   -1    0    0    0  501 -0.00000000000E+00 -0.00000000000E+00 -0.80673770180E+03  0.80673770180E+03  0.00000000000E+00 0.  1.
         24    2    1    2    0    0  0.12670841226E+04 -0.19391302284E+03  0.67107515942E+03  0.14487503948E+04  0.73698050339E+02 0.  0.
        254    2    1    2    0    0 -0.12670841226E+04  0.19391302284E+03  0.10455904514E+04  0.18813906196E+04  0.89625154803E+03 0.  0.
         23    2    4    4    0    0 -0.43196455170E+03 -0.75768134250E+02  0.87496274683E+03  0.98276114918E+03  0.89025186913E+02 0.  0.
         23    2    4    4    0    0 -0.83511957091E+03  0.26968115709E+03  0.17062770454E+03  0.89862947042E+03  0.90931223218E+02 0.  0.
          4    1    3    3  502    0  0.12395050136E+03 -0.34036726074E+02  0.49249079753E+02  0.13765063518E+03  0.00000000000E+00 0. -1.
         -3    1    3    3    0  502  0.11431336213E+04 -0.15987629677E+03  0.62182607967E+03  0.13110997596E+04  0.00000000000E+00 0.  1.
         13    1    5    5    0    0 -0.18697318267E+03 -0.60872033398E+02  0.31449978494E+03  0.37091035334E+03  0.00000000000E+00 0.  1.
        -13    1    5    5    0    0 -0.24499136903E+03 -0.14896100853E+02  0.56046296189E+03  0.61185079584E+03  0.00000000000E+00 0. -1.
          1    1    6    6  503    0 -0.68359763875E+03  0.25660826443E+03  0.14367849362E+03  0.74417541118E+03  0.00000000000E+00 0.  1.
         -1    1    6    6    0  503 -0.15152193216E+03  0.13072892660E+02  0.26949210922E+02  0.15445405924E+03  0.00000000000E+00 0. -1.
<mgrwt>
<rscale>  0 0.28535764E+04</rscale>
<asrwt>0</asrwt>
<pdfrwt beam="1">  1        2 0.38821589E+00 0.28535764E+04</pdfrwt>
<pdfrwt beam="2">  1       -1 0.12411349E+00 0.28535764E+04</pdfrwt>
<totfact> 0.18922074E+00</totfact>
</mgrwt>
</event>
<event>
12    7  0.1729738E-007  0.1843168E+04  0.7818608E-02  0.8683674E-01
         -1   -1    0    0    0  501 -0.00000000000E+00  0.00000000000E+00  0.68480620000E+03  0.68480620000E+03  0.00000000000E+00 0.  1.
          2   -1    0    0  501    0  0.00000000000E+00 -0.00000000000E+00 -0.12402298266E+04  0.12402298266E+04  0.00000000000E+00 0. -1.
         24    2    1    2    0    0  0.66679022257E+03  0.37601905026E+02  0.40906339975E+01  0.67270649203E+03  0.80586518443E+02 0.  0.
        254    2    1    2    0    0 -0.66679022257E+03 -0.37601905026E+02 -0.55951426058E+03  0.12523295346E+04  0.89958320969E+03 0.  0.
         23    2    4    4    0    0  0.18585055543E+03 -0.61040914633E+02 -0.27287667325E+03  0.34764938409E+03  0.90177565086E+02 0.  0.
         23    2    4    4    0    0 -0.85264077800E+03  0.23439009606E+02 -0.28663758733E+03  0.90468015047E+03  0.93484676287E+02 0.  0.
          2    1    3    3  502    0  0.34896569352E+03 -0.81588956209E+01 -0.26994920183E+02  0.35010333981E+03  0.00000000000E+00 0. -1.
         -1    1    3    3    0  502  0.31782452905E+03  0.45760800647E+02  0.31085554181E+02  0.32260315222E+03  0.00000000000E+00 0.  1.
         13    1    5    5    0    0  0.13614094520E+03 -0.62246038114E+02 -0.13686100511E+03  0.20282963526E+03  0.00000000000E+00 0. -1.
        -13    1    5    5    0    0  0.49709610225E+02  0.12051234813E+01 -0.13601566814E+03  0.14481974883E+03  0.00000000000E+00 0.  1.
          3    1    6    6  503    0 -0.12755016451E+03  0.29712433679E+02 -0.66511185657E+02  0.14688638806E+03  0.00000000000E+00 0. -1.
         -3    1    6    6    0  503 -0.72509061349E+03 -0.62734240729E+01 -0.22012640167E+03  0.75779376240E+03  0.00000000000E+00 0.  1.
<mgrwt>
<rscale>  0 0.18431680E+04</rscale>
<asrwt>0</asrwt>
<pdfrwt beam="1">  1        2 0.19080459E+00 0.18431680E+04</pdfrwt>
<pdfrwt beam="2">  1       -1 0.10535480E+00 0.18431680E+04</pdfrwt>
<totfact> 0.16242030E+01</totfact>
</mgrwt>
</event>
<event>
12    7  0.1729738E-007  0.1252764E+04  0.7818608E-02  0.9067886E-01
         -1   -1    0    0    0  501 -0.00000000000E+00  0.00000000000E+00  0.35813852587E+03  0.35813852587E+03  0.00000000000E+00 0.  1.
          2   -1    0    0  501    0  0.00000000000E+00 -0.00000000000E+00 -0.10955386418E+04  0.10955386418E+04  0.00000000000E+00 0. -1.
         24    2    1    2    0    0 -0.62126168034E+02  0.29181813151E+03 -0.18838052370E+03  0.36168476175E+03  0.79442825634E+02 0.  0.
        254    2    1    2    0    0  0.62126168034E+02 -0.29181813151E+03 -0.54901959226E+03  0.10919924060E+04  0.89554866944E+03 0.  0.
         23    2    4    4    0    0 -0.24042534406E+03  0.19367907339E+03 -0.36148777571E+03  0.48400307621E+03  0.90937540406E+02 0.  0.
         23    2    4    4    0    0  0.30255151210E+03 -0.48549720489E+03 -0.18753181655E+03  0.60798932975E+03  0.85075786414E+02 0.  0.
          2    1    3    3  502    0 -0.21229969657E+02  0.10270135936E+03 -0.11263405917E+03  0.15389838241E+03  0.00000000000E+00 0. -1.
         -1    1    3    3    0  502 -0.40896198377E+02  0.18911677215E+03 -0.75746464537E+02  0.20778637934E+03  0.00000000000E+00 0.  1.
         13    1    5    5    0    0 -0.24530758379E+03  0.19563727761E+03 -0.36158542069E+03  0.47874186313E+03  0.00000000000E+00 0. -1.
        -13    1    5    5    0    0  0.48822397232E+01 -0.19582042228E+01  0.97644987370E-01  0.52612130765E+01  0.00000000000E+00 0.  1.
          1    1    6    6  503    0  0.21554132264E+03 -0.33594522974E+03 -0.89250134232E+02  0.40900225625E+03  0.00000000000E+00 0. -1.
         -1    1    6    6    0  503  0.87010189452E+02 -0.14955197515E+03 -0.98281682322E+02  0.19898707350E+03  0.00000000000E+00 0.  1.
<mgrwt>
<rscale>  0 0.12527643E+04</rscale>
<asrwt>0</asrwt>
<pdfrwt beam="1">  1        2 0.16854440E+00 0.12527643E+04</pdfrwt>
<pdfrwt beam="2">  1       -1 0.55098236E-01 0.12527643E+04</pdfrwt>
<totfact> 0.81849330E+01</totfact>
</mgrwt>
</event>
<event>
12    7  0.1729738E-007  0.2591424E+04  0.7818608E-02  0.8371120E-01
         -1   -1    0    0    0  501 -0.00000000000E+00  0.00000000000E+00  0.16794759074E+04  0.16794759074E+04  0.00000000000E+00 0.  1.
          2   -1    0    0  501    0  0.00000000000E+00 -0.00000000000E+00 -0.99963871993E+03  0.99963871993E+03  0.00000000000E+00 0. -1.
         24    2    1    2    0    0  0.92505009517E+02  0.86138128852E+03  0.10629025962E+04  0.13734346619E+04  0.77626932893E+02 0.  0.
        254    2    1    2    0    0 -0.92505009517E+02 -0.86138128852E+03 -0.38306540867E+03  0.13056799654E+04  0.89862459557E+03 0.  0.
         23    2    4    4    0    0  0.38223544436E+03 -0.36590767914E+03 -0.28214193018E+03  0.60619804028E+03  0.88767283916E+02 0.  0.
         23    2    4    4    0    0 -0.47474045387E+03 -0.49547360938E+03 -0.10092347849E+03  0.69948192513E+03  0.90646670887E+02 0.  0.
          2    1    3    3  502    0  0.13882094875E+02  0.10567452740E+03  0.93649273786E+02  0.14188024803E+03  0.00000000000E+00 0. -1.
         -1    1    3    3    0  502  0.78622914642E+02  0.75570676112E+03  0.96925332238E+03  0.12315544139E+04  0.00000000000E+00 0.  1.
         13    1    5    5    0    0  0.38140680090E+03 -0.37022272581E+03 -0.27684394584E+03  0.59931509645E+03  0.00000000000E+00 0. -1.
        -13    1    5    5    0    0  0.82864345225E+00  0.43150466659E+01 -0.52979843447E+01  0.68829438336E+01  0.00000000000E+00 0.  1.
          2    1    6    6  503    0 -0.21919401342E+02 -0.60181038304E+02 -0.96527639738E+01  0.64771856380E+02  0.00000000000E+00 0.  1.
         -2    1    6    6    0  503 -0.45282105253E+03 -0.43529257107E+03 -0.91270714516E+02  0.63471006875E+03  0.00000000000E+00 0. -1.
<mgrwt>
<rscale>  0 0.25914237E+04</rscale>
<asrwt>0</asrwt>
<pdfrwt beam="1">  1        2 0.15379057E+00 0.25914237E+04</pdfrwt>
<pdfrwt beam="2">  1       -1 0.25838091E+00 0.25914237E+04</pdfrwt>
<totfact> 0.15633336E+00</totfact>
</mgrwt>
</event>
<event>
12    7  0.1729738E-007  0.2425031E+04  0.7818608E-02  0.8430191E-01
         -1   -1    0    0    0  501 -0.00000000000E+00  0.00000000000E+00  0.79178123494E+03  0.79178123494E+03  0.00000000000E+00 0.  1.
          2   -1    0    0  501    0  0.00000000000E+00 -0.00000000000E+00 -0.18568177765E+04  0.18568177765E+04  0.00000000000E+00 0. -1.
         24    2    1    2    0    0  0.51659727339E+03  0.52212607925E+03 -0.12723311246E+04  0.14712712837E+04  0.79525555914E+02 0.  0.
        254    2    1    2    0    0 -0.51659727339E+03 -0.52212607925E+03  0.20729458300E+03  0.11773277278E+04  0.89646034435E+03 0.  0.
         23    2    4    4    0    0 -0.54598087497E+03  0.69078559225E+02  0.13695891805E+03  0.57425919331E+03  0.90271328171E+02 0.  0.
         23    2    4    4    0    0  0.29383601579E+02 -0.59120463848E+03  0.70335664958E+02  0.60306853449E+03  0.91423360946E+02 0.  0.
          4    1    3    3  502    0  0.47590916909E+03  0.49366857509E+03 -0.11453127644E+04  0.13348930772E+04  0.00000000000E+00 0. -1.
         -3    1    3    3    0  502  0.40688104301E+02  0.28457504161E+02 -0.12701836021E+03  0.13637820649E+03  0.00000000000E+00 0.  1.
         13    1    5    5    0    0 -0.45446981005E+03  0.88668068308E+02  0.12704455901E+03  0.48015117885E+03  0.00000000000E+00 0. -1.
        -13    1    5    5    0    0 -0.91511064920E+02 -0.19589509083E+02  0.99143590370E+01  0.94108014451E+02  0.00000000000E+00 0.  1.
          2    1    6    6  503    0  0.19955410343E+02 -0.45721776277E+03  0.92573336980E+02  0.46692196748E+03  0.00000000000E+00 0. -1.
         -2    1    6    6    0  503  0.94281912366E+01 -0.13398687570E+03 -0.22237672022E+02  0.13614656700E+03  0.00000000000E+00 0.  1.
<mgrwt>
<rscale>  0 0.24250307E+04</rscale>
<asrwt>0</asrwt>
<pdfrwt beam="1">  1        2 0.28566427E+00 0.24250307E+04</pdfrwt>
<pdfrwt beam="2">  1       -1 0.12181250E+00 0.24250307E+04</pdfrwt>
<totfact> 0.48903011E+00</totfact>
</mgrwt>
</event>
<event>
12    7  0.1729738E-007  0.1351233E+04  0.7818608E-02  0.8989895E-01
          2   -1    0    0  501    0  0.00000000000E+00  0.00000000000E+00  0.23607259178E+04  0.23607259178E+04  0.00000000000E+00 0. -1.
         -1   -1    0    0    0  501 -0.00000000000E+00 -0.00000000000E+00 -0.19335481174E+03  0.19335481174E+03  0.00000000000E+00 0.  1.
         24    2    1    2    0    0  0.46941948280E+02  0.34307451881E+03  0.35402417921E+03  0.50167491872E+03  0.80255421272E+02 0.  0.
        254    2    1    2    0    0 -0.46941948280E+02 -0.34307451881E+03  0.18133469268E+04  0.20524058108E+04  0.89679365697E+03 0.  0.
         23    2    4    4    0    0 -0.29935900507E+03 -0.16928757456E+03  0.16591904308E+04  0.16968887172E+04  0.90798325461E+02 0.  0.
         23    2    4    4    0    0  0.25241705679E+03 -0.17378694425E+03  0.15415649602E+03  0.35551709364E+03  0.93337591844E+02 0.  0.
          2    1    3    3  502    0  0.54241031418E+01  0.80785552969E+01  0.38157674151E+02  0.39378827398E+02  0.00000000000E+00 0. -1.
         -1    1    3    3    0  502  0.41517845138E+02  0.33499596351E+03  0.31586650505E+03  0.46229609132E+03  0.00000000000E+00 0.  1.
         13    1    5    5    0    0 -0.38298270120E+01 -0.15043462496E+02  0.28309313914E+02  0.32286074291E+02  0.00000000000E+00 0. -1.
        -13    1    5    5    0    0 -0.29552917806E+03 -0.15424411206E+03  0.16308811169E+04  0.16646026429E+04  0.00000000000E+00 0.  1.
          3    1    6    6  503    0  0.71769803556E+02 -0.10276207182E+02  0.60679393126E+02  0.94543608386E+02  0.00000000000E+00 0. -1.
         -3    1    6    6    0  503  0.18064725324E+03 -0.16351073707E+03  0.93477102897E+02  0.26097348525E+03  0.00000000000E+00 0.  1.
<mgrwt>
<rscale>  0 0.13512331E+04</rscale>
<asrwt>0</asrwt>
<pdfrwt beam="1">  1        2 0.36318858E+00 0.13512331E+04</pdfrwt>
<pdfrwt beam="2">  1       -1 0.29746896E-01 0.13512331E+04</pdfrwt>
<totfact> 0.48378569E+01</totfact>
</mgrwt>
</event>
<event>
12    7  0.1729738E-007  0.2580777E+04  0.7818608E-02  0.8374760E-01
          2   -1    0    0  501    0  0.00000000000E+00  0.00000000000E+00  0.71384430031E+03  0.71384430031E+03  0.00000000000E+00 0. -1.
         -1   -1    0    0    0  501 -0.00000000000E+00 -0.00000000000E+00 -0.23325847594E+04  0.23325847594E+04  0.00000000000E+00 0.  1.
         24    2    1    2    0    0  0.98046443051E+03 -0.33464165821E+03 -0.12459105575E+04  0.16223233870E+04  0.79652468913E+02 0.  0.
        254    2    1    2    0    0 -0.98046443051E+03  0.33464165821E+03 -0.37282990156E+03  0.14241056727E+04  0.90320501137E+03 0.  0.
         23    2    4    4    0    0 -0.10366528610E+04  0.10909750684E+03 -0.94161302456E+02  0.10506210435E+04  0.91579506038E+02 0.  0.
         23    2    4    4    0    0  0.56188430517E+02  0.22554415137E+03 -0.27866859910E+03  0.37348462916E+03  0.88358792171E+02 0.  0.
          4    1    3    3  502    0  0.33007279322E+03 -0.95301467362E+02 -0.46656963570E+03  0.57941146301E+03  0.00000000000E+00 0. -1.
         -3    1    3    3    0  502  0.65039163729E+03 -0.23934019084E+03 -0.77934092181E+03  0.10429119240E+04  0.00000000000E+00 0.  1.
         13    1    5    5    0    0 -0.91752220252E+03  0.82520808408E+02 -0.10904840363E+03  0.92765738841E+03  0.00000000000E+00 0. -1.
        -13    1    5    5    0    0 -0.11913065851E+03  0.26576698432E+02  0.14887101174E+02  0.12296365511E+03  0.00000000000E+00 0.  1.
          3    1    6    6  503    0  0.39321060036E+02  0.22796686156E+03 -0.26385679846E+03  0.35090660556E+03  0.00000000000E+00 0. -1.
         -3    1    6    6    0  503  0.16867370481E+02 -0.24227101893E+01 -0.14811800646E+02  0.22578023607E+02  0.00000000000E+00 0.  1.
<mgrwt>
<rscale>  0 0.25807769E+04</rscale>
<asrwt>0</asrwt>
<pdfrwt beam="1">  1        2 0.10982220E+00 0.25807769E+04</pdfrwt>
<pdfrwt beam="2">  1       -1 0.35885919E+00 0.25807769E+04</pdfrwt>
<totfact> 0.54798438E-01</totfact>
</mgrwt>
</event>
<event>
12    7  0.1729738E-007  0.1670757E+04  0.7818608E-02  0.8778221E-01
          2   -1    0    0  501    0  0.00000000000E+00  0.00000000000E+00  0.93988284272E+03  0.93988284272E+03  0.00000000000E+00 0. -1.
         -1   -1    0    0    0  501 -0.00000000000E+00 -0.00000000000E+00 -0.74249373922E+03  0.74249373922E+03  0.00000000000E+00 0.  1.
         24    2    1    2    0    0  0.22030853150E+03  0.17687631124E+03 -0.45403781487E+03  0.54098183862E+03  0.81792015872E+02 0.  0.
        254    2    1    2    0    0 -0.22030853150E+03 -0.17687631124E+03  0.65142691836E+03  0.11413947433E+04  0.89364637949E+03 0.  0.
         23    2    4    4    0    0 -0.25268726158E+03  0.28371016789E+03  0.74120224811E+02  0.39702798944E+03  0.88289892658E+02 0.  0.
         23    2    4    4    0    0  0.32378730083E+02 -0.46058647913E+03  0.57730669355E+03  0.74436675388E+03  0.87238517529E+02 0.  0.
          4    1    3    3  502    0 -0.50844689769E+01  0.11195379287E+02 -0.86534742062E+01  0.15035656221E+02  0.00000000000E+00 0. -1.
         -3    1    3    3    0  502  0.22539300048E+03  0.16568093196E+03 -0.44538434066E+03  0.52594618240E+03  0.00000000000E+00 0.  1.
         13    1    5    5    0    0 -0.10462253789E+03  0.86993044139E+02  0.64624703494E+02  0.15063205988E+03  0.00000000000E+00 0. -1.
        -13    1    5    5    0    0 -0.14806472370E+03  0.19671712375E+03  0.94955213168E+01  0.24639592956E+03  0.00000000000E+00 0.  1.
          1    1    6    6  503    0 -0.14359648035E+02 -0.12401434457E+02  0.28952677495E+02  0.34615785451E+02  0.00000000000E+00 0. -1.
         -1    1    6    6    0  503  0.46738378118E+02 -0.44818504467E+03  0.54835401606E+03  0.70975096843E+03  0.00000000000E+00 0.  1.
<mgrwt>
<rscale>  0 0.16707569E+04</rscale>
<asrwt>0</asrwt>
<pdfrwt beam="1">  1        2 0.14459736E+00 0.16707569E+04</pdfrwt>
<pdfrwt beam="2">  1       -1 0.11422981E+00 0.16707569E+04</pdfrwt>
<totfact> 0.20935485E+01</totfact>
</mgrwt>
</event>
<event>
12    7  0.1729738E-007  0.1817788E+04  0.7818608E-02  0.8696897E-01
          2   -1    0    0  501    0  0.00000000000E+00  0.00000000000E+00  0.40793459448E+04  0.40793459448E+04  0.00000000000E+00 0. -1.
         -1   -1    0    0    0  501 -0.00000000000E+00 -0.00000000000E+00 -0.20250514568E+03  0.20250514568E+03  0.00000000000E+00 0.  1.
         24    2    1    2    0    0  0.42180646277E+03  0.46158472838E+02  0.20497444882E+03  0.47774301901E+03  0.78565710641E+02 0.  0.
        254    2    1    2    0    0 -0.42180646277E+03 -0.46158472838E+02  0.36718663503E+04  0.38041080714E+04  0.89921322739E+03 0.  0.
         23    2    4    4    0    0 -0.46955468714E+03 -0.22943721399E+03  0.34748466696E+04  0.35150995859E+04  0.90789217801E+02 0.  0.
         23    2    4    4    0    0  0.47748224367E+02  0.18327874115E+03  0.19701968066E+03  0.28900848555E+03  0.94011490065E+02 0.  0.
          2    1    3    3  502    0  0.35866584420E+02  0.11028445973E+02  0.44727309328E+02  0.58382965823E+02  0.00000000000E+00 0. -1.
         -3    1    3    3    0  502  0.38593987835E+03  0.35130026865E+02  0.16024713949E+03  0.41936005319E+03  0.00000000000E+00 0.  1.
         13    1    5    5    0    0 -0.29606598570E+03 -0.16624016784E+03  0.24961709318E+04  0.25191586258E+04  0.00000000000E+00 0.  1.
        -13    1    5    5    0    0 -0.17348870144E+03 -0.63197046150E+02  0.97867573781E+03  0.99594096007E+03  0.00000000000E+00 0. -1.
          1    1    6    6  503    0  0.40971774893E+01 -0.35085171426E+01  0.42094234852E+02  0.42438439694E+02  0.00000000000E+00 0. -1.
         -1    1    6    6    0  503  0.43651046878E+02  0.18678725829E+03  0.15492544581E+03  0.24657004586E+03  0.00000000000E+00 0.  1.
<mgrwt>
<rscale>  0 0.18177883E+04</rscale>
<asrwt>0</asrwt>
<pdfrwt beam="1">  1        2 0.62759162E+00 0.18177883E+04</pdfrwt>
<pdfrwt beam="2">  1       -1 0.31154641E-01 0.18177883E+04</pdfrwt>
<totfact> 0.30636809E+00</totfact>
</mgrwt>
</event>
<event>
12    7  0.1729738E-007  0.2070473E+04  0.7818608E-02  0.8574363E-01
         -1   -1    0    0    0  501 -0.00000000000E+00  0.00000000000E+00  0.57679959391E+03  0.57679959391E+03  0.00000000000E+00 0.  1.
          2   -1    0    0  501    0  0.00000000000E+00 -0.00000000000E+00 -0.18580369153E+04  0.18580369153E+04  0.00000000000E+00 0. -1.
         24    2    1    2    0    0 -0.70126633031E+03 -0.36625349638E+03 -0.20310862575E+03  0.82075978037E+03  0.80482380578E+02 0.  0.
        254    2    1    2    0    0  0.70126633031E+03  0.36625349638E+03 -0.10781286957E+04  0.16140767289E+04  0.90386177738E+03 0.  0.
         23    2    4    4    0    0  0.36011555630E+03  0.57118102408E+03 -0.98209377930E+03  0.11953220334E+04  0.91408949013E+02 0.  0.
         23    2    4    4    0    0  0.34115077401E+03 -0.20492752770E+03 -0.96034916349E+02  0.41875469548E+03  0.88054798925E+02 0.  0.
          4    1    3    3  502    0 -0.22926098896E+03 -0.89100038655E+02 -0.36884479487E+02  0.24871647065E+03  0.00000000000E+00 0. -1.
         -3    1    3    3    0  502 -0.47200534135E+03 -0.27715345772E+03 -0.16622414626E+03  0.57204330972E+03  0.00000000000E+00 0.  1.
         13    1    5    5    0    0  0.27066280330E+03  0.39191519463E+03 -0.75291840172E+03  0.89092199014E+03  0.00000000000E+00 0.  1.
        -13    1    5    5    0    0  0.89452753004E+02  0.17926582945E+03 -0.22917537759E+03  0.30440004323E+03  0.00000000000E+00 0. -1.
          1    1    6    6  503    0  0.25679122703E+03 -0.15951602254E+03 -0.11049534792E+03  0.32186381847E+03  0.00000000000E+00 0. -1.
         -1    1    6    6    0  503  0.84359546985E+02 -0.45411505158E+02  0.14460431570E+02  0.96890877019E+02  0.00000000000E+00 0.  1.
<mgrwt>
<rscale>  0 0.20704733E+04</rscale>
<asrwt>0</asrwt>
<pdfrwt beam="1">  1        2 0.28585183E+00 0.20704733E+04</pdfrwt>
<pdfrwt beam="2">  1       -1 0.88738399E-01 0.20704733E+04</pdfrwt>
<totfact> 0.10500745E+01</totfact>
</mgrwt>
</event>
<event>
12    7  0.1729738E-007  0.2128682E+04  0.7818608E-02  0.8548713E-01
          2   -1    0    0  501    0  0.00000000000E+00  0.00000000000E+00  0.12218624096E+04  0.12218624096E+04  0.00000000000E+00 0. -1.
         -1   -1    0    0    0  501 -0.00000000000E+00 -0.00000000000E+00 -0.92712668566E+03  0.92712668566E+03  0.00000000000E+00 0.  1.
         24    2    1    2    0    0 -0.59777025812E+03 -0.43937031114E+02 -0.51499766536E+03  0.79430991628E+03  0.80286384822E+02 0.  0.
        254    2    1    2    0    0  0.59777025812E+03  0.43937031114E+02  0.80973338924E+03  0.13546791789E+04  0.90566427112E+03 0.  0.
         23    2    4    4    0    0  0.57353184377E+03 -0.33703728409E+03  0.63858844842E+03  0.92664229980E+03  0.91311766158E+02 0.  0.
         23    2    4    4    0    0  0.24238414352E+02  0.38097431521E+03  0.17114494082E+03  0.42803687913E+03  0.90532036021E+02 0.  0.
          2    1    3    3  502    0 -0.26343534476E+03 -0.33509441530E+01 -0.17855504548E+03  0.31826296354E+03  0.00000000000E+00 0. -1.
         -1    1    3    3    0  502 -0.33433491336E+03 -0.40586086961E+02 -0.33644261988E+03  0.47604695275E+03  0.00000000000E+00 0.  1.
         13    1    5    5    0    0  0.44073632559E+03 -0.26779682775E+03  0.54352945693E+03  0.74925824667E+03  0.00000000000E+00 0. -1.
        -13    1    5    5    0    0  0.13279551818E+03 -0.69240456343E+02  0.95058991489E+02  0.17738405313E+03  0.00000000000E+00 0.  1.
          1    1    6    6  503    0  0.34814652035E+02  0.31437302007E+03  0.17311804687E+03  0.36057220345E+03  0.00000000000E+00 0. -1.
         -1    1    6    6    0  503 -0.10576237683E+02  0.66601295138E+02 -0.19731060493E+01  0.67464675683E+02  0.00000000000E+00 0.  1.
<mgrwt>
<rscale>  0 0.21286815E+04</rscale>
<asrwt>0</asrwt>
<pdfrwt beam="1">  1        2 0.18797883E+00 0.21286815E+04</pdfrwt>
<pdfrwt beam="2">  1       -1 0.14263487E+00 0.21286815E+04</pdfrwt>
<totfact> 0.76890305E+00</totfact>
</mgrwt>
</event>
<event>
12    7  0.1729738E-007  0.1557959E+04  0.7818608E-02  0.8846800E-01
         -1   -1    0    0    0  501 -0.00000000000E+00  0.00000000000E+00  0.87476505698E+03  0.87476505698E+03  0.00000000000E+00 0.  1.
          2   -1    0    0  501    0  0.00000000000E+00 -0.00000000000E+00 -0.69368189912E+03  0.69368189912E+03  0.00000000000E+00 0. -1.
         24    2    1    2    0    0  0.18076504002E+03 -0.14852639856E+03  0.51695546815E+03  0.57279050575E+03  0.78165955970E+02 0.  0.
        254    2    1    2    0    0 -0.18076504002E+03  0.14852639856E+03 -0.33587231029E+03  0.99565645035E+03  0.90762628187E+03 0.  0.
         23    2    4    4    0    0  0.22678621030E+03  0.37855268507E+03 -0.23532050404E+03  0.50834300771E+03  0.91119445308E+02 0.  0.
         23    2    4    4    0    0 -0.40755125031E+03 -0.23002628650E+03 -0.10055180625E+03  0.48731344264E+03  0.91398093668E+02 0.  0.
          2    1    3    3  502    0  0.27032868181E+02  0.68517705649E+01  0.51420462067E+02  0.58496039534E+02  0.00000000000E+00 0. -1.
         -1    1    3    3    0  502  0.15373217184E+03 -0.15537816913E+03  0.46553500608E+03  0.51429446622E+03  0.00000000000E+00 0.  1.
         13    1    5    5    0    0  0.71186410980E+02  0.11901833397E+03 -0.27864483802E+02  0.14145422718E+03  0.00000000000E+00 0. -1.
        -13    1    5    5    0    0  0.15559979932E+03  0.25953435110E+03 -0.20745602023E+03  0.36688878053E+03  0.00000000000E+00 0.  1.
          4    1    6    6  503    0 -0.99353889253E+02 -0.77951826525E+02 -0.64358842363E+02  0.14173829108E+03  0.00000000000E+00 0. -1.
         -4    1    6    6    0  503 -0.30819736106E+03 -0.15207445998E+03 -0.36192963886E+02  0.34557515156E+03  0.00000000000E+00 0.  1.
<mgrwt>
<rscale>  0 0.15579585E+04</rscale>
<asrwt>0</asrwt>
<pdfrwt beam="1">  1        2 0.10672029E+00 0.15579585E+04</pdfrwt>
<pdfrwt beam="2">  1       -1 0.13457924E+00 0.15579585E+04</pdfrwt>
<totfact> 0.21149763E+01</totfact>
</mgrwt>
</event>
<event>
12    7  0.1729738E-007  0.1725940E+04  0.7818608E-02  0.8746707E-01
          2   -1    0    0  501    0  0.00000000000E+00  0.00000000000E+00  0.21570480623E+04  0.21570480623E+04  0.00000000000E+00 0. -1.
         -1   -1    0    0    0  501 -0.00000000000E+00 -0.00000000000E+00 -0.34524823747E+03  0.34524823747E+03  0.00000000000E+00 0.  1.
         24    2    1    2    0    0 -0.93382365634E+01 -0.56791854481E+03  0.10358112738E+04  0.11839701986E+04  0.79131283649E+02 0.  0.
        254    2    1    2    0    0  0.93382365634E+01  0.56791854481E+03  0.77598855107E+03  0.13183261012E+04  0.90177979658E+03 0.  0.
         23    2    4    4    0    0  0.29737718867E+03  0.61270837836E+03  0.74109023966E+03  0.10104984662E+04  0.89708737610E+02 0.  0.
         23    2    4    4    0    0 -0.28803895210E+03 -0.44789833553E+02  0.34898311408E+02  0.30782763501E+03  0.92560216164E+02 0.  0.
          2    1    3    3  502    0  0.38961423188E+01 -0.41838557994E+03  0.68943424776E+03  0.80646218473E+03  0.00000000000E+00 0. -1.
         -1    1    3    3    0  502 -0.13234378882E+02 -0.14953296488E+03  0.34637702601E+03  0.37750801385E+03  0.00000000000E+00 0.  1.
         13    1    5    5    0    0  0.21125110580E+03  0.33649326640E+03  0.41392708367E+03  0.57375114695E+03  0.00000000000E+00 0.  1.
        -13    1    5    5    0    0  0.86126082872E+02  0.27621511196E+03  0.32716315599E+03  0.43674731924E+03  0.00000000000E+00 0. -1.
          1    1    6    6  503    0 -0.37675745508E+02 -0.37169266624E+02 -0.85418503318E+01  0.53609508374E+02  0.00000000000E+00 0. -1.
         -1    1    6    6    0  503 -0.25036320660E+03 -0.76205669287E+01  0.43440161740E+02  0.25421812663E+03  0.00000000000E+00 0.  1.
<mgrwt>
<rscale>  0 0.17259398E+04</rscale>
<asrwt>0</asrwt>
<pdfrwt beam="1">  1        2 0.33185354E+00 0.17259398E+04</pdfrwt>
<pdfrwt beam="2">  1       -1 0.53115115E-01 0.17259398E+04</pdfrwt>
<totfact> 0.21110191E+01</totfact>
</mgrwt>
</event>
<event>
12    7  0.1729738E-007  0.1261467E+04  0.7818608E-02  0.9060693E-01
         -1   -1    0    0    0  501 -0.00000000000E+00  0.00000000000E+00  0.31478959687E+03  0.31478959687E+03  0.00000000000E+00 0.  1.
          2   -1    0    0  501    0  0.00000000000E+00 -0.00000000000E+00 -0.12637793101E+04  0.12637793101E+04  0.00000000000E+00 0. -1.
         24    2    1    2    0    0  0.10927875250E+03 -0.10124526532E+03  0.10813160478E+03  0.20207788912E+03  0.83370137463E+02 0.  0.
        254    2    1    2    0    0 -0.10927875250E+03  0.10124526532E+03 -0.10571213180E+04  0.13764910178E+04  0.86892438779E+03 0.  0.
         23    2    4    4    0    0  0.58129722365E+02  0.40706110110E+03 -0.24378994110E+03  0.48691345966E+03  0.92592533026E+02 0.  0.
         23    2    4    4    0    0 -0.16740847486E+03 -0.30581583577E+03 -0.81333137686E+03  0.88957755814E+03  0.91057017775E+02 0.  0.
          2    1    3    3  502    0 -0.12648208722E+01  0.12229568685E+02  0.77866522780E+01  0.14553146593E+02  0.00000000000E+00 0. -1.
         -3    1    3    3    0  502  0.11054357337E+03 -0.11347483401E+03  0.10034495250E+03  0.18752474252E+03  0.00000000000E+00 0.  1.
         13    1    5    5    0    0  0.43100337686E+02  0.29573271470E+03 -0.12656892702E+03  0.32455380284E+03  0.00000000000E+00 0.  1.
        -13    1    5    5    0    0  0.15029384679E+02  0.11132838640E+03 -0.11722101408E+03  0.16235965682E+03  0.00000000000E+00 0. -1.
          3    1    6    6  503    0 -0.10263068775E+03 -0.11095841153E+03 -0.28207731723E+03  0.32001943699E+03  0.00000000000E+00 0. -1.
         -3    1    6    6    0  503 -0.64777787115E+02 -0.19485742425E+03 -0.53125405963E+03  0.56955812114E+03  0.00000000000E+00 0.  1.
<mgrwt>
<rscale>  0 0.12614667E+04</rscale>
<asrwt>0</asrwt>
<pdfrwt beam="1">  1        2 0.19442758E+00 0.12614667E+04</pdfrwt>
<pdfrwt beam="2">  1       -1 0.48429170E-01 0.12614667E+04</pdfrwt>
<totfact> 0.82916179E+01</totfact>
</mgrwt>
</event>
<event>
12    7  0.1729738E-007  0.1533866E+04  0.7818608E-02  0.8862240E-01
         -1   -1    0    0    0  501 -0.00000000000E+00  0.00000000000E+00  0.67707664831E+03  0.67707664831E+03  0.00000000000E+00 0.  1.
          2   -1    0    0  501    0  0.00000000000E+00 -0.00000000000E+00 -0.86871389744E+03  0.86871389744E+03  0.00000000000E+00 0. -1.
         24    2    1    2    0    0  0.65733756692E+02 -0.17591663039E+03  0.40045470634E+03  0.44963590467E+03  0.80875752352E+02 0.  0.
        254    2    1    2    0    0 -0.65733756692E+02  0.17591663039E+03 -0.59209195548E+03  0.10961546411E+04  0.90316915681E+03 0.  0.
         23    2    4    4    0    0 -0.39042265610E+03  0.33766994824E+03 -0.22086894232E+03  0.56909760930E+03  0.92941674675E+02 0.  0.
         23    2    4    4    0    0  0.32468889940E+03 -0.16175331785E+03 -0.37122301316E+03  0.52705703178E+03  0.91627354110E+02 0.  0.
          2    1    3    3  502    0  0.75875173539E+01 -0.22985594379E+02  0.98200714817E+01  0.26121672467E+02  0.00000000000E+00 0. -1.
         -1    1    3    3    0  502  0.58146239338E+02 -0.15293103601E+03  0.39063463486E+03  0.42351423220E+03  0.00000000000E+00 0.  1.
         13    1    5    5    0    0 -0.37439671455E+01  0.21591470779E+02 -0.23375952951E+02  0.32041287065E+02  0.00000000000E+00 0. -1.
        -13    1    5    5    0    0 -0.38667868895E+03  0.31607847747E+03 -0.19749298937E+03  0.53705632224E+03  0.00000000000E+00 0.  1.
          3    1    6    6  503    0  0.35496653879E+02 -0.33743512995E+02 -0.16168302138E+02  0.51575683222E+02  0.00000000000E+00 0. -1.
         -3    1    6    6    0  503  0.28919224552E+03 -0.12800980486E+03 -0.35505471102E+03  0.47548134856E+03  0.00000000000E+00 0.  1.
<mgrwt>
<rscale>  0 0.15338656E+04</rscale>
<asrwt>0</asrwt>
<pdfrwt beam="1">  1        2 0.13364829E+00 0.15338656E+04</pdfrwt>
<pdfrwt beam="2">  1       -1 0.10416564E+00 0.15338656E+04</pdfrwt>
<totfact> 0.29397696E+01</totfact>
</mgrwt>
</event>
<event>
12    7  0.1729738E-007  0.1146239E+04  0.7818608E-02  0.9161261E-01
          2   -1    0    0  501    0  0.00000000000E+00  0.00000000000E+00  0.92785135184E+03  0.92785135184E+03  0.00000000000E+00 0. -1.
         -1   -1    0    0    0  501 -0.00000000000E+00 -0.00000000000E+00 -0.35400683793E+03  0.35400683793E+03  0.00000000000E+00 0.  1.
         24    2    1    2    0    0  0.60531188792E+02 -0.14446360176E+03  0.28362869941E+03  0.33357473459E+03  0.79329108020E+02 0.  0.
        254    2    1    2    0    0 -0.60531188792E+02  0.14446360176E+03  0.29021581449E+03  0.94828345518E+03  0.88909084763E+03 0.  0.
         23    2    4    4    0    0 -0.17902522025E+03 -0.12325737840E+03  0.51672935260E+03  0.56720792170E+03  0.86447624488E+02 0.  0.
         23    2    4    4    0    0  0.11849403146E+03  0.26772098015E+03 -0.22651353812E+03  0.38107553348E+03  0.90525248199E+02 0.  0.
          2    1    3    3  502    0  0.60322622808E+02 -0.13578915022E+03  0.28784132891E+03  0.32392922494E+03  0.00000000000E+00 0. -1.
         -1    1    3    3    0  502  0.20856598334E+00 -0.86744515372E+01 -0.42126294971E+01  0.96455096559E+01  0.00000000000E+00 0.  1.
         13    1    5    5    0    0 -0.12807173731E+03 -0.53527876590E+02  0.23926770315E+03  0.27661640812E+03  0.00000000000E+00 0. -1.
        -13    1    5    5    0    0 -0.50953482935E+02 -0.69729501809E+02  0.27746164945E+03  0.29059151358E+03  0.00000000000E+00 0.  1.
          4    1    6    6  503    0  0.67345299076E+02  0.54987977227E+02 -0.76334067303E+02  0.11569769565E+03  0.00000000000E+00 0. -1.
         -4    1    6    6    0  503  0.51148732380E+02  0.21273300293E+03 -0.15017947081E+03  0.26537783783E+03  0.00000000000E+00 0.  1.
<mgrwt>
<rscale>  0 0.11462386E+04</rscale>
<asrwt>0</asrwt>
<pdfrwt beam="1">  1        2 0.14274636E+00 0.11462386E+04</pdfrwt>
<pdfrwt beam="2">  1       -1 0.54462591E-01 0.11462386E+04</pdfrwt>
<totfact> 0.10801785E+02</totfact>
</mgrwt>
</event>
<event>
12    7  0.1729738E-007  0.1503691E+04  0.7818608E-02  0.8882002E-01
         -1   -1    0    0    0  501 -0.00000000000E+00  0.00000000000E+00  0.38757936944E+03  0.38757936944E+03  0.00000000000E+00 0.  1.
          2   -1    0    0  501    0  0.00000000000E+00 -0.00000000000E+00 -0.14584665767E+04  0.14584665767E+04  0.00000000000E+00 0. -1.
         24    2    1    2    0    0 -0.45290511558E+03 -0.41062113464E+02 -0.52098554663E+03  0.69612601766E+03  0.79726731938E+02 0.  0.
        254    2    1    2    0    0  0.45290511558E+03  0.41062113464E+02 -0.54990166067E+03  0.11499199285E+04  0.90172881994E+03 0.  0.
         23    2    4    4    0    0  0.14642733272E+03  0.11659715626E+02 -0.75052280746E+03  0.77020014617E+03  0.91361194744E+02 0.  0.
         23    2    4    4    0    0  0.30647778286E+03  0.29402397838E+02  0.20062114679E+03  0.37971978235E+03  0.95630205402E+02 0.  0.
          2    1    3    3  502    0 -0.31099412633E+03 -0.54983873696E+02 -0.39597275938E+03  0.50649284215E+03  0.00000000000E+00 0. -1.
         -1    1    3    3    0  502 -0.14191098925E+03  0.13921760232E+02 -0.12501278725E+03  0.18963317551E+03  0.00000000000E+00 0.  1.
         13    1    5    5    0    0  0.11283276999E+03 -0.76717170769E+00 -0.69517602301E+03  0.70427375750E+03  0.00000000000E+00 0.  1.
        -13    1    5    5    0    0  0.33594562730E+02  0.12426887333E+02 -0.55346784446E+02  0.65926388665E+02  0.00000000000E+00 0. -1.
          4    1    6    6  503    0  0.14548339451E+03 -0.33566358923E+02  0.86013352529E+02  0.17230906924E+03  0.00000000000E+00 0. -1.
         -4    1    6    6    0  503  0.16099438835E+03  0.62968756761E+02  0.11460779426E+03  0.20741071311E+03  0.00000000000E+00 0.  1.
<mgrwt>
<rscale>  0 0.15036909E+04</rscale>
<asrwt>0</asrwt>
<pdfrwt beam="1">  1        2 0.22437948E+00 0.15036909E+04</pdfrwt>
<pdfrwt beam="2">  1       -1 0.59627593E-01 0.15036909E+04</pdfrwt>
<totfact> 0.42059862E+01</totfact>
</mgrwt>
</event>
<event>
12    7  0.1729738E-007  0.1376471E+04  0.7818608E-02  0.8971029E-01
         -1   -1    0    0    0  501 -0.00000000000E+00  0.00000000000E+00  0.36167848467E+03  0.36167848467E+03  0.00000000000E+00 0.  1.
          2   -1    0    0  501    0  0.00000000000E+00 -0.00000000000E+00 -0.13096381309E+04  0.13096381309E+04  0.00000000000E+00 0. -1.
         24    2    1    2    0    0  0.27520521279E+03  0.83832923157E+02 -0.59809687779E+03  0.66834232810E+03  0.78712922434E+02 0.  0.
        254    2    1    2    0    0 -0.27520521279E+03 -0.83832923157E+02 -0.34986276846E+03  0.10029742875E+04  0.89486736250E+03 0.  0.
         23    2    4    4    0    0  0.19374859976E+02  0.37300680127E+03 -0.92835847498E+02  0.39485290249E+03  0.88209189022E+02 0.  0.
         23    2    4    4    0    0 -0.29458007276E+03 -0.45683972443E+03 -0.25702692096E+03  0.60812138500E+03  0.90933094682E+02 0.  0.
          2    1    3    3  502    0  0.26786077847E+03  0.62104459871E+02 -0.56023686259E+03  0.62407668021E+03  0.00000000000E+00 0. -1.
         -1    1    3    3    0  502  0.73444343213E+01  0.21728463285E+02 -0.37860015192E+02  0.44265647884E+02  0.00000000000E+00 0.  1.
         13    1    5    5    0    0 -0.30383673570E+02  0.12152355055E+03 -0.10987127994E+02  0.12574521040E+03  0.00000000000E+00 0.  1.
        -13    1    5    5    0    0  0.49758533546E+02  0.25148325073E+03 -0.81848719504E+02  0.26910769209E+03  0.00000000000E+00 0. -1.
          3    1    6    6  503    0 -0.49536827813E+02 -0.37467025036E+02 -0.90493246392E+01  0.62765958539E+02  0.00000000000E+00 0. -1.
         -3    1    6    6    0  503 -0.24504324495E+03 -0.41937269939E+03 -0.24797759633E+03  0.54535542646E+03  0.00000000000E+00 0.  1.
<mgrwt>
<rscale>  0 0.13764708E+04</rscale>
<asrwt>0</asrwt>
<pdfrwt beam="1">  1        2 0.20148279E+00 0.13764708E+04</pdfrwt>
<pdfrwt beam="2">  1       -1 0.55642843E-01 0.13764708E+04</pdfrwt>
<totfact> 0.59231191E+01</totfact>
</mgrwt>
</event>
<event>
12    7  0.1729738E-007  0.2521959E+04  0.7818608E-02  0.8395204E-01
          2   -1    0    0  501    0  0.00000000000E+00  0.00000000000E+00  0.15848890958E+04  0.15848890958E+04  0.00000000000E+00 0. -1.
         -1   -1    0    0    0  501 -0.00000000000E+00 -0.00000000000E+00 -0.10032687114E+04  0.10032687114E+04  0.00000000000E+00 0.  1.
         24    2    1    2    0    0  0.32268118504E+03  0.67540426990E+03  0.10712698028E+04  0.13093948838E+04  0.81252053658E+02 0.  0.
        254    2    1    2    0    0 -0.32268118504E+03 -0.67540426990E+03 -0.48964941844E+03  0.12787629234E+04  0.91388401145E+03 0.  0.
         23    2    4    4    0    0 -0.19057048519E+03  0.10107841982E+03  0.13459262747E+03  0.26985128240E+03  0.90391274249E+02 0.  0.
         23    2    4    4    0    0 -0.13211069984E+03 -0.77648268972E+03 -0.62424204591E+03  0.10089116410E+04  0.88577441146E+02 0.  0.
          4    1    3    3  502    0  0.16458456527E+03  0.34288411704E+03  0.61485918433E+03  0.72298645450E+03  0.00000000000E+00 0. -1.
         -3    1    3    3    0  502  0.15809661977E+03  0.33252015286E+03  0.45641061852E+03  0.58640842928E+03  0.00000000000E+00 0.  1.
         13    1    5    5    0    0 -0.10030126852E+03  0.10029647794E+03  0.98197769916E+02  0.17251820185E+03  0.00000000000E+00 0.  1.
        -13    1    5    5    0    0 -0.90269216673E+02  0.78194188628E+00  0.36394857556E+02  0.97333080545E+02  0.00000000000E+00 0. -1.
          4    1    6    6  503    0 -0.62198424757E+02 -0.58092246410E+03 -0.47869213866E+03  0.75530504894E+03  0.00000000000E+00 0. -1.
         -4    1    6    6    0  503 -0.69912275088E+02 -0.19556022562E+03 -0.14554990725E+03  0.25360659210E+03  0.00000000000E+00 0.  1.
<mgrwt>
<rscale>  0 0.25219593E+04</rscale>
<asrwt>0</asrwt>
<pdfrwt beam="1">  1        2 0.24382909E+00 0.25219593E+04</pdfrwt>
<pdfrwt beam="2">  1       -1 0.15434903E+00 0.25219593E+04</pdfrwt>
<totfact> 0.37218537E+00</totfact>
</mgrwt>
</event>
<event>
12    7  0.1729738E-007  0.1696227E+04  0.7818608E-02  0.8763519E-01
         -1   -1    0    0    0  501 -0.00000000000E+00  0.00000000000E+00  0.47527758286E+03  0.47527758286E+03  0.00000000000E+00 0.  1.
          2   -1    0    0  501    0  0.00000000000E+00 -0.00000000000E+00 -0.15134241666E+04  0.15134241666E+04  0.00000000000E+00 0. -1.
         24    2    1    2    0    0 -0.67629539763E+02 -0.45032195032E+03 -0.82153449613E+03  0.94214382066E+03  0.73160350556E+02 0.  0.
        254    2    1    2    0    0  0.67629539763E+02  0.45032195032E+03 -0.21661208761E+03  0.10465579288E+04  0.91706002434E+03 0.  0.
         23    2    4    4    0    0 -0.33627901998E+03  0.20775220573E+03 -0.36382725422E+03  0.54451759746E+03  0.88795184359E+02 0.  0.
         23    2    4    4    0    0  0.40390855974E+03  0.24256974459E+03  0.14721516662E+03  0.50204033134E+03  0.91596852477E+02 0.  0.
          4    1    3    3  502    0 -0.58765414845E+02 -0.27180289625E+03 -0.43508879425E+03  0.51636464564E+03  0.00000000000E+00 0. -1.
         -3    1    3    3    0  502 -0.88641249174E+01 -0.17851905408E+03 -0.38644570188E+03  0.42577917502E+03  0.00000000000E+00 0.  1.
         13    1    5    5    0    0 -0.29077672415E+03  0.13807894891E+03 -0.29111292595E+03  0.43400879610E+03  0.00000000000E+00 0.  1.
        -13    1    5    5    0    0 -0.45502295831E+02  0.69673256818E+02 -0.72714328272E+02  0.11050880136E+03  0.00000000000E+00 0. -1.
          3    1    6    6  503    0  0.23153257952E+03  0.14459616785E+03  0.13191356487E+03  0.30317746574E+03  0.00000000000E+00 0. -1.
         -3    1    6    6    0  503  0.17237598022E+03  0.97973576739E+02  0.15301601743E+02  0.19886286560E+03  0.00000000000E+00 0.  1.
<mgrwt>
<rscale>  0 0.16962271E+04</rscale>
<asrwt>0</asrwt>
<pdfrwt beam="1">  1        2 0.23283448E+00 0.16962271E+04</pdfrwt>
<pdfrwt beam="2">  1       -1 0.73119630E-01 0.16962271E+04</pdfrwt>
<totfact> 0.25505664E+01</totfact>
</mgrwt>
</event>
<event>
12    7  0.1729738E-007  0.1418814E+04  0.7818608E-02  0.8940312E-01
         -3   -1    0    0    0  501 -0.00000000000E+00  0.00000000000E+00  0.14689457497E+03  0.14689457497E+03  0.00000000000E+00 0.  1.
          2   -1    0    0  501    0  0.00000000000E+00 -0.00000000000E+00 -0.34259824918E+04  0.34259824918E+04  0.00000000000E+00 0. -1.
         24    2    1    2    0    0 -0.21608893834E+03  0.23527255496E+02 -0.78648841963E+02  0.24450563383E+03  0.79683145069E+02 0.  0.
        254    2    1    2    0    0  0.21608893834E+03 -0.23527255496E+02 -0.32004390749E+04  0.33283714330E+04  0.88769260592E+03 0.  0.
         23    2    4    4    0    0  0.20436726036E+02  0.12374691976E+03 -0.29853820058E+04  0.29894143644E+04  0.91441574730E+02 0.  0.
         23    2    4    4    0    0  0.19565221230E+03 -0.14727417526E+03 -0.21505706914E+03  0.33895706861E+03  0.93128301252E+02 0.  0.
          2    1    3    3  502    0 -0.45359744951E+02  0.27945743081E+00 -0.53876703005E+02  0.70429281447E+02  0.00000000000E+00 0. -1.
         -1    1    3    3    0  502 -0.17072919339E+03  0.23247798065E+02 -0.24772138958E+02  0.17407635238E+03  0.00000000000E+00 0.  1.
         13    1    5    5    0    0 -0.82369021317E+01  0.11788582838E+03 -0.26878244735E+04  0.26904210294E+04  0.00000000000E+00 0.  1.
        -13    1    5    5    0    0  0.28673628168E+02  0.58610913822E+01 -0.29755753223E+03  0.29899333492E+03  0.00000000000E+00 0. -1.
          4    1    6    6  503    0  0.72372638932E+02 -0.61707863101E+01 -0.79540960736E+02  0.10771556018E+03  0.00000000000E+00 0. -1.
         -4    1    6    6    0  503  0.12327957337E+03 -0.14110338895E+03 -0.13551610840E+03  0.23124150843E+03  0.00000000000E+00 0.  1.
<mgrwt>
<rscale>  0 0.14188139E+04</rscale>
<asrwt>0</asrwt>
<pdfrwt beam="1">  1        2 0.52707426E+00 0.14188139E+04</pdfrwt>
<pdfrwt beam="2">  1       -3 0.22599164E-01 0.14188139E+04</pdfrwt>
<totfact> 0.10846570E+01</totfact>
</mgrwt>
</event>
<event>
12    7  0.1729738E-007  0.1915810E+04  0.7818608E-02  0.8647027E-01
         -1   -1    0    0    0  501 -0.00000000000E+00  0.00000000000E+00  0.87451384116E+03  0.87451384116E+03  0.00000000000E+00 0.  1.
          2   -1    0    0  501    0  0.00000000000E+00 -0.00000000000E+00 -0.10492479415E+04  0.10492479415E+04  0.00000000000E+00 0. -1.
         24    2    1    2    0    0  0.48358471554E+03  0.40220933275E+03  0.32471475705E+03  0.71240809737E+03  0.80368521824E+02 0.  0.
        254    2    1    2    0    0 -0.48358471554E+03 -0.40220933275E+03 -0.49944885741E+03  0.12113536853E+04  0.90680872585E+03 0.  0.
         23    2    4    4    0    0 -0.39133340854E+03  0.21479448739E+03 -0.31702554652E+03  0.55484894139E+03  0.89853448271E+02 0.  0.
         23    2    4    4    0    0 -0.92251307001E+02 -0.61700382014E+03 -0.18242331089E+03  0.65650474392E+03  0.92283241837E+02 0.  0.
          2    1    3    3  502    0  0.13102667413E+03  0.91107163061E+02  0.47181903659E+02  0.16641705600E+03  0.00000000000E+00 0. -1.
         -1    1    3    3    0  502  0.35255804141E+03  0.31110216969E+03  0.27753285339E+03  0.54599104137E+03  0.00000000000E+00 0.  1.
         13    1    5    5    0    0 -0.25118943965E+03  0.12999741618E+03 -0.25131830366E+03  0.37836008320E+03  0.00000000000E+00 0.  1.
        -13    1    5    5    0    0 -0.14014396889E+03  0.84797071205E+02 -0.65707242861E+02  0.17648885819E+03  0.00000000000E+00 0. -1.
          1    1    6    6  503    0 -0.81614375532E+02 -0.61229580070E+03 -0.18452684020E+03  0.64468380513E+03  0.00000000000E+00 0. -1.
         -1    1    6    6    0  503 -0.10636931470E+02 -0.47080194389E+01  0.21035293182E+01  0.11820938783E+02  0.00000000000E+00 0.  1.
<mgrwt>
<rscale>  0 0.19158099E+04</rscale>
<asrwt>0</asrwt>
<pdfrwt beam="1">  1        2 0.16142276E+00 0.19158099E+04</pdfrwt>
<pdfrwt beam="2">  1       -1 0.13454059E+00 0.19158099E+04</pdfrwt>
<totfact> 0.11619369E+01</totfact>
</mgrwt>
</event>
<event>
12    7  0.1729738E-007  0.3070805E+04  0.7818608E-02  0.8223796E-01
         -1   -1    0    0    0  501 -0.00000000000E+00  0.00000000000E+00  0.21169524829E+04  0.21169524829E+04  0.00000000000E+00 0.  1.
          2   -1    0    0  501    0  0.00000000000E+00 -0.00000000000E+00 -0.11136107141E+04  0.11136107141E+04  0.00000000000E+00 0. -1.
         24    2    1    2    0    0 -0.53109222222E+03 -0.87605525463E+03  0.14696195448E+04  0.17932742497E+04  0.80741378883E+02 0.  0.
        254    2    1    2    0    0  0.53109222222E+03  0.87605525463E+03 -0.46627777603E+03  0.14372889474E+04  0.89378565445E+03 0.  0.
         23    2    4    4    0    0  0.52809656905E+02  0.68871011964E+03 -0.57642150248E+03  0.90423229577E+03  0.90905486230E+02 0.  0.
         23    2    4    4    0    0  0.47828256531E+03  0.18734513498E+03  0.11014372645E+03  0.53305665158E+03  0.90362278842E+02 0.  0.
          2    1    3    3  502    0 -0.15785306553E+03 -0.19365095909E+03  0.35785719024E+03  0.43644020537E+03  0.00000000000E+00 0. -1.
         -1    1    3    3    0  502 -0.37323915669E+03 -0.68240429554E+03  0.11117623546E+04  0.13568340443E+04  0.00000000000E+00 0.  1.
         13    1    5    5    0    0  0.58970298865E+02  0.67207787087E+03 -0.54161194415E+03  0.86516452696E+03  0.00000000000E+00 0. -1.
        -13    1    5    5    0    0 -0.61606419603E+01  0.16632248774E+02 -0.34809558330E+02  0.39067768810E+02  0.00000000000E+00 0.  1.
          3    1    6    6  503    0  0.41370552316E+03  0.16655338960E+03  0.62903300711E+02  0.45038774042E+03  0.00000000000E+00 0. -1.
         -3    1    6    6    0  503  0.64577042156E+02  0.20791745385E+02  0.47240425737E+02  0.82668911167E+02  0.00000000000E+00 0.  1.
<mgrwt>
<rscale>  0 0.30708051E+04</rscale>
<asrwt>0</asrwt>
<pdfrwt beam="1">  1        2 0.17132473E+00 0.30708051E+04</pdfrwt>
<pdfrwt beam="2">  1       -1 0.32568500E+00 0.30708051E+04</pdfrwt>
<totfact> 0.46546492E-01</totfact>
</mgrwt>
</event>
<event>
12    7  0.1729738E-007  0.1989023E+04  0.7818608E-02  0.8611770E-01
          2   -1    0    0  501    0  0.00000000000E+00  0.00000000000E+00  0.20925472935E+04  0.20925472935E+04  0.00000000000E+00 0. -1.
         -1   -1    0    0    0  501 -0.00000000000E+00 -0.00000000000E+00 -0.47265506929E+03  0.47265506929E+03  0.00000000000E+00 0.  1.
         24    2    1    2    0    0  0.56424132330E+03  0.35970584564E+03  0.11821606631E+04  0.13607480111E+04  0.79842030826E+02 0.  0.
        254    2    1    2    0    0 -0.56424132330E+03 -0.35970584564E+03  0.43773156111E+03  0.12044543517E+04  0.90074680102E+03 0.  0.
         23    2    4    4    0    0 -0.56855290662E+02  0.27824894284E+03  0.16140048253E+03  0.33908187553E+03  0.90947261026E+02 0.  0.
         23    2    4    4    0    0 -0.50738603263E+03 -0.63795478848E+03  0.27633107858E+03  0.86537247621E+03  0.89909728839E+02 0.  0.
          2    1    3    3  502    0  0.39288710232E+03  0.27573043894E+03  0.78485252689E+03  0.91998969510E+03  0.00000000000E+00 0. -1.
         -1    1    3    3    0  502  0.17135422098E+03  0.83975406703E+02  0.39730813622E+03  0.44075831595E+03  0.00000000000E+00 0.  1.
         13    1    5    5    0    0 -0.25379389426E+02  0.87391226445E+01  0.13364540189E+02  0.29984939664E+02  0.00000000000E+00 0.  1.
        -13    1    5    5    0    0 -0.31475901236E+02  0.26950982019E+03  0.14803594234E+03  0.30909693587E+03  0.00000000000E+00 0. -1.
          1    1    6    6  503    0 -0.50543695305E+03 -0.61065896285E+03  0.26757350472E+03  0.83663998401E+03  0.00000000000E+00 0. -1.
         -1    1    6    6    0  503 -0.19490795815E+01 -0.27295825635E+02  0.87575738603E+01  0.28732492203E+02  0.00000000000E+00 0.  1.
<mgrwt>
<rscale>  0 0.19890230E+04</rscale>
<asrwt>0</asrwt>
<pdfrwt beam="1">  1        2 0.32193035E+00 0.19890230E+04</pdfrwt>
<pdfrwt beam="2">  1       -1 0.72716166E-01 0.19890230E+04</pdfrwt>
<totfact> 0.11977424E+01</totfact>
</mgrwt>
</event>
<event>
12    7  0.1729738E-007  0.1357400E+04  0.7818608E-02  0.8985246E-01
          2   -1    0    0  501    0  0.00000000000E+00  0.00000000000E+00  0.44957101399E+03  0.44957101399E+03  0.00000000000E+00 0. -1.
         -1   -1    0    0    0  501 -0.00000000000E+00 -0.00000000000E+00 -0.10246065833E+04  0.10246065833E+04  0.00000000000E+00 0.  1.
         24    2    1    2    0    0 -0.26643853408E+03  0.38516835940E+02 -0.42855258982E+03  0.51212019829E+03  0.78337322935E+02 0.  0.
        254    2    1    2    0    0  0.26643853408E+03 -0.38516835940E+02 -0.14648297948E+03  0.96205739900E+03  0.91193428304E+03 0.  0.
         23    2    4    4    0    0  0.57273428778E+03 -0.12058217156E+03  0.19810009248E+02  0.59243777448E+03  0.89584907570E+02 0.  0.
         23    2    4    4    0    0 -0.30629575371E+03  0.82065335620E+02 -0.16629298873E+03  0.36961962451E+03  0.91725136566E+02 0.  0.
          4    1    3    3  502    0 -0.72325517651E+02  0.46692554311E+02 -0.13093986628E+03  0.15670489371E+03  0.00000000000E+00 0. -1.
         -3    1    3    3    0  502 -0.19411301643E+03 -0.81757183715E+01 -0.29761272354E+03  0.35541530458E+03  0.00000000000E+00 0.  1.
         13    1    5    5    0    0  0.50258398404E+03 -0.90237510285E+02 -0.91514074814E+01  0.51070267038E+03  0.00000000000E+00 0.  1.
        -13    1    5    5    0    0  0.70150303747E+02 -0.30344661275E+02  0.28961416730E+02  0.81735104103E+02  0.00000000000E+00 0. -1.
          2    1    6    6  503    0 -0.10532544431E+03  0.83654425795E+01 -0.10014004420E+03  0.14557286252E+03  0.00000000000E+00 0. -1.
         -2    1    6    6    0  503 -0.20097030939E+03  0.73699893040E+02 -0.66152944528E+02  0.22404676200E+03  0.00000000000E+00 0.  1.
<mgrwt>
<rscale>  0 0.13573996E+04</rscale>
<asrwt>0</asrwt>
<pdfrwt beam="1">  1        2 0.69164772E-01 0.13573996E+04</pdfrwt>
<pdfrwt beam="2">  1       -1 0.15763178E+00 0.13573996E+04</pdfrwt>
<totfact> 0.23685325E+01</totfact>
</mgrwt>
</event>
<event>
12    7  0.1729738E-007  0.1633581E+04  0.7818608E-02  0.8800180E-01
         -1   -1    0    0    0  501 -0.00000000000E+00  0.00000000000E+00  0.55594268599E+03  0.55594268599E+03  0.00000000000E+00 0.  1.
          2   -1    0    0  501    0  0.00000000000E+00 -0.00000000000E+00 -0.12000273214E+04  0.12000273214E+04  0.00000000000E+00 0. -1.
         24    2    1    2    0    0 -0.31322498639E+03  0.47936206150E+03 -0.21235286874E+03  0.61632742447E+03  0.82872644338E+02 0.  0.
        254    2    1    2    0    0  0.31322498639E+03 -0.47936206150E+03 -0.43173176671E+03  0.11396425830E+04  0.88571723502E+03 0.  0.
         23    2    4    4    0    0  0.30193184483E+03 -0.10961495241E+03 -0.62767954255E+03  0.71107346015E+03  0.92008591332E+02 0.  0.
         23    2    4    4    0    0  0.11293141567E+02 -0.36974710909E+03  0.19594777584E+03  0.42856912282E+03  0.91844991417E+02 0.  0.
          2    1    3    3  502    0 -0.24703454284E+03  0.43019611001E+03 -0.18510451815E+03  0.52948884886E+03  0.00000000000E+00 0. -1.
         -1    1    3    3    0  502 -0.66190443553E+02  0.49165951485E+02 -0.27248350590E+02  0.86838575605E+02  0.00000000000E+00 0.  1.
         13    1    5    5    0    0  0.20597718267E+03 -0.90298109180E+02 -0.51407917503E+03  0.56112186422E+03  0.00000000000E+00 0. -1.
        -13    1    5    5    0    0  0.95954662153E+02 -0.19316843226E+02 -0.11360036752E+03  0.14995159593E+03  0.00000000000E+00 0.  1.
          4    1    6    6  503    0  0.31213369950E+02 -0.14533166910E+03  0.38016277074E+02  0.15343013338E+03  0.00000000000E+00 0. -1.
         -4    1    6    6    0  503 -0.19920228383E+02 -0.22441543999E+03  0.15793149877E+03  0.27513898944E+03  0.00000000000E+00 0.  1.
<mgrwt>
<rscale>  0 0.16335806E+04</rscale>
<asrwt>0</asrwt>
<pdfrwt beam="1">  1        2 0.18461959E+00 0.16335806E+04</pdfrwt>
<pdfrwt beam="2">  1       -1 0.85529645E-01 0.16335806E+04</pdfrwt>
<totfact> 0.27905053E+01</totfact>
</mgrwt>
</event>
<event>
12    7  0.1729738E-007  0.1593490E+04  0.7818608E-02  0.8824557E-01
          2   -1    0    0  501    0  0.00000000000E+00  0.00000000000E+00  0.21752405641E+04  0.21752405641E+04  0.00000000000E+00 0. -1.
         -1   -1    0    0    0  501 -0.00000000000E+00 -0.00000000000E+00 -0.29183098531E+03  0.29183098531E+03  0.00000000000E+00 0.  1.
         24    2    1    2    0    0 -0.21064415784E+03  0.21135841933E+03 -0.48113282644E+02  0.31458351021E+03  0.87204095540E+02 0.  0.
        254    2    1    2    0    0  0.21064415784E+03 -0.21135841933E+03  0.19315228614E+04  0.21524880391E+04  0.90187629527E+03 0.  0.
         23    2    4    4    0    0  0.22778635975E+03  0.61966736149E+02  0.18278017317E+04  0.18452779009E+04  0.92004669208E+02 0.  0.
         23    2    4    4    0    0 -0.17142201908E+02 -0.27332515548E+03  0.10372112967E+03  0.30721013821E+03  0.92841265486E+02 0.  0.
          4    1    3    3  502    0 -0.45136938876E+02  0.11759590892E+02  0.12523793608E+02  0.48295720673E+02  0.00000000000E+00 0. -1.
         -3    1    3    3    0  502 -0.16550721896E+03  0.19959882844E+03 -0.60637076252E+02  0.26628778954E+03  0.00000000000E+00 0.  1.
         13    1    5    5    0    0 -0.28789882735E+01  0.56820382531E+00  0.20444900089E+03  0.20447005989E+03  0.00000000000E+00 0.  1.
        -13    1    5    5    0    0  0.23066534802E+03  0.61398532324E+02  0.16233527308E+04  0.16408078410E+04  0.00000000000E+00 0. -1.
          4    1    6    6  503    0  0.15207789941E+02 -0.23510632492E+03  0.66449824248E+02  0.24478937893E+03  0.00000000000E+00 0. -1.
         -4    1    6    6    0  503 -0.32349991849E+02 -0.38218830557E+02  0.37271305426E+02  0.62420759287E+02  0.00000000000E+00 0.  1.
<mgrwt>
<rscale>  0 0.15934900E+04</rscale>
<asrwt>0</asrwt>
<pdfrwt beam="1">  1        2 0.33465238E+00 0.15934900E+04</pdfrwt>
<pdfrwt beam="2">  1       -1 0.44897076E-01 0.15934900E+04</pdfrwt>
<totfact> 0.28676884E+01</totfact>
</mgrwt>
</event>
<event>
12    7  0.1729738E-007  0.1804626E+04  0.7818608E-02  0.8703843E-01
         -1   -1    0    0    0  501 -0.00000000000E+00  0.00000000000E+00  0.34091757124E+03  0.34091757124E+03  0.00000000000E+00 0.  1.
          2   -1    0    0  501    0  0.00000000000E+00 -0.00000000000E+00 -0.23881700641E+04  0.23881700641E+04  0.00000000000E+00 0. -1.
         24    2    1    2    0    0 -0.22841750888E+02  0.70926407631E+02  0.24252724384E+03  0.26642055366E+03  0.81290506956E+02 0.  0.
        254    2    1    2    0    0  0.22841750888E+02 -0.70926407631E+02 -0.22897797367E+04  0.24626670817E+04  0.90337456887E+03 0.  0.
         23    2    4    4    0    0  0.22278384648E+03 -0.17028838862E+03 -0.21750653167E+04  0.21949529366E+04  0.90986176195E+02 0.  0.
         23    2    4    4    0    0 -0.19994209559E+03  0.99361980988E+02 -0.11471441995E+03  0.26771414507E+03  0.93068901743E+02 0.  0.
          2    1    3    3  502    0 -0.20148498067E+02  0.27888634112E+02  0.20088929506E+02  0.39840971069E+02  0.00000000000E+00 0. -1.
         -1    1    3    3    0  502 -0.26932528214E+01  0.43037773518E+02  0.22243831434E+03  0.22657958259E+03  0.00000000000E+00 0.  1.
         13    1    5    5    0    0  0.13259900512E+03 -0.92642523995E+02 -0.15688729093E+04  0.15771896965E+04  0.00000000000E+00 0. -1.
        -13    1    5    5    0    0  0.90184841360E+02 -0.77645864623E+02 -0.60619240746E+03  0.61776324006E+03  0.00000000000E+00 0.  1.
          4    1    6    6  503    0 -0.18991757347E+03  0.88987194453E+02 -0.70592029404E+02  0.22129310903E+03  0.00000000000E+00 0.  1.
         -4    1    6    6    0  503 -0.10024522121E+02  0.10374786535E+02 -0.44122390549E+02  0.46421036041E+02  0.00000000000E+00 0. -1.
<mgrwt>
<rscale>  0 0.18046264E+04</rscale>
<asrwt>0</asrwt>
<pdfrwt beam="1">  1        2 0.36741077E+00 0.18046264E+04</pdfrwt>
<pdfrwt beam="2">  1       -1 0.52448858E-01 0.18046264E+04</pdfrwt>
<totfact> 0.15904334E+01</totfact>
</mgrwt>
</event>
<event>
12    7  0.1729738E-007  0.2806293E+04  0.7818608E-02  0.8301317E-01
         -1   -1    0    0    0  501 -0.00000000000E+00  0.00000000000E+00  0.11419998371E+04  0.11419998371E+04  0.00000000000E+00 0.  1.
          2   -1    0    0  501    0  0.00000000000E+00 -0.00000000000E+00 -0.17240109127E+04  0.17240109127E+04  0.00000000000E+00 0. -1.
         24    2    1    2    0    0 -0.10717992496E+04  0.17794538968E+03 -0.90357023329E+03  0.14153172097E+04  0.79154559741E+02 0.  0.
        254    2    1    2    0    0  0.10717992496E+04 -0.17794538968E+03  0.32155915774E+03  0.14506935401E+04  0.90592122300E+03 0.  0.
         23    2    4    4    0    0  0.67124992133E+03  0.33704129227E+03  0.17330239006E+03  0.77544768918E+03  0.84333330739E+02 0.  0.
         23    2    4    4    0    0  0.40054932828E+03 -0.51498668195E+03  0.14825676768E+03  0.67524585096E+03  0.91246057999E+02 0.  0.
          4    1    3    3  502    0 -0.48414040667E+03  0.82669345946E+02 -0.45979074604E+03  0.67278056175E+03  0.00000000000E+00 0. -1.
         -3    1    3    3    0  502 -0.58765884294E+03  0.95276043736E+02 -0.44377948725E+03  0.74253664792E+03  0.00000000000E+00 0.  1.
         13    1    5    5    0    0  0.58316574346E+03  0.28276265887E+03  0.17726253281E+03  0.67190699590E+03  0.00000000000E+00 0. -1.
        -13    1    5    5    0    0  0.88084177862E+02  0.54278633395E+02 -0.39601427550E+01  0.10354069327E+03  0.00000000000E+00 0.  1.
          3    1    6    6  503    0  0.26656275487E+03 -0.40203228235E+03  0.90999505568E+02  0.49088345699E+03  0.00000000000E+00 0. -1.
         -3    1    6    6    0  503  0.13398657342E+03 -0.11295439960E+03  0.57257262111E+02  0.18436239396E+03  0.00000000000E+00 0.  1.
<mgrwt>
<rscale>  0 0.28062931E+04</rscale>
<asrwt>0</asrwt>
<pdfrwt beam="1">  1        2 0.26523245E+00 0.28062931E+04</pdfrwt>
<pdfrwt beam="2">  1       -1 0.17569228E+00 0.28062931E+04</pdfrwt>
<totfact> 0.21049139E+00</totfact>
</mgrwt>
</event>
<event>
12    7  0.1729738E-007  0.1224462E+04  0.7818608E-02  0.9091710E-01
          2   -1    0    0  501    0  0.00000000000E+00  0.00000000000E+00  0.61911050066E+03  0.61911050066E+03  0.00000000000E+00 0. -1.
         -1   -1    0    0    0  501 -0.00000000000E+00 -0.00000000000E+00 -0.60542825575E+03  0.60542825575E+03  0.00000000000E+00 0.  1.
         24    2    1    2    0    0  0.38814749298E+02 -0.28650420346E+03  0.21740565867E+01  0.30014419545E+03  0.80564062586E+02 0.  0.
        254    2    1    2    0    0 -0.38814749298E+02  0.28650420346E+03  0.11508188327E+02  0.92439456096E+03  0.87794169656E+03 0.  0.
         23    2    4    4    0    0 -0.11471047798E+03 -0.20642430478E+03 -0.24903019279E+03  0.35438385965E+03  0.88331170585E+02 0.  0.
         23    2    4    4    0    0  0.75895728677E+02  0.49292850824E+03  0.26053838112E+03  0.57001070131E+03  0.91067423961E+02 0.  0.
          4    1    3    3  502    0 -0.79581089514E+01 -0.10657284479E+02 -0.14734108548E+02  0.19849512973E+02  0.00000000000E+00 0. -1.
         -3    1    3    3    0  502  0.46772858249E+02 -0.27584691898E+03  0.16908165135E+02  0.28029468248E+03  0.00000000000E+00 0.  1.
         13    1    5    5    0    0 -0.75611082409E+02 -0.19724837740E+03 -0.19886702543E+03  0.29012420095E+03  0.00000000000E+00 0. -1.
        -13    1    5    5    0    0 -0.39099395566E+02 -0.91759273763E+01 -0.50163167359E+02  0.64259658701E+02  0.00000000000E+00 0.  1.
          3    1    6    6  503    0 -0.76168093586E+01  0.18117203968E+03  0.12338675616E+03  0.21932992350E+03  0.00000000000E+00 0. -1.
         -3    1    6    6    0  503  0.83512538036E+02  0.31175646856E+03  0.13715162496E+03  0.35068077781E+03  0.00000000000E+00 0.  1.
<mgrwt>
<rscale>  0 0.12244623E+04</rscale>
<asrwt>0</asrwt>
<pdfrwt beam="1">  1        2 0.95247769E-01 0.12244623E+04</pdfrwt>
<pdfrwt beam="2">  1       -1 0.93142809E-01 0.12244623E+04</pdfrwt>
<totfact> 0.60183508E+01</totfact>
</mgrwt>
</event>
<event>
12    7  0.1729738E-007  0.2282196E+04  0.7818608E-02  0.8484974E-01
         -1   -1    0    0    0  501 -0.00000000000E+00  0.00000000000E+00  0.10485184712E+04  0.10485184712E+04  0.00000000000E+00 0.  1.
          2   -1    0    0  501    0  0.00000000000E+00 -0.00000000000E+00 -0.12418524170E+04  0.12418524170E+04  0.00000000000E+00 0. -1.
         24    2    1    2    0    0 -0.38899515733E+03  0.25821788753E+03 -0.92796056187E+03  0.10417458928E+04  0.78294258097E+02 0.  0.
        254    2    1    2    0    0  0.38899515733E+03 -0.25821788753E+03  0.73462661608E+03  0.12486249953E+04  0.89520634721E+03 0.  0.
         23    2    4    4    0    0  0.30917312908E+03  0.23483968315E+03  0.58005069065E+02  0.40261566028E+03  0.89426401758E+02 0.  0.
         23    2    4    4    0    0  0.79822028249E+02 -0.49305757068E+03  0.67662154701E+03  0.84600933507E+03  0.91857242237E+02 0.  0.
          2    1    3    3  502    0 -0.24490378392E+03  0.17706720818E+03 -0.67449051340E+03  0.73909952798E+03  0.00000000000E+00 0. -1.
         -1    1    3    3    0  502 -0.14409137341E+03  0.81150679350E+02 -0.25347004847E+03  0.30264636479E+03  0.00000000000E+00 0.  1.
         13    1    5    5    0    0  0.28181536381E+03  0.23676716946E+03  0.66225693530E+02  0.37398453751E+03  0.00000000000E+00 0.  1.
        -13    1    5    5    0    0  0.27357765277E+02 -0.19274863056E+01 -0.82206244646E+01  0.28631122769E+02  0.00000000000E+00 0. -1.
          1    1    6    6  503    0  0.23142945095E+02 -0.37160264658E+02  0.96865121811E+02  0.10629832078E+03  0.00000000000E+00 0. -1.
         -1    1    6    6    0  503  0.56679083154E+02 -0.45589730602E+03  0.57975642520E+03  0.73971101429E+03  0.00000000000E+00 0.  1.
<mgrwt>
<rscale>  0 0.22821965E+04</rscale>
<asrwt>0</asrwt>
<pdfrwt beam="1">  1        2 0.19105422E+00 0.22821965E+04</pdfrwt>
<pdfrwt beam="2">  1       -1 0.16131053E+00 0.22821965E+04</pdfrwt>
<totfact> 0.52870713E+00</totfact>
</mgrwt>
</event>
<event>
12    7  0.1729738E-007  0.1634725E+04  0.7818608E-02  0.8799495E-01
          2   -1    0    0  501    0  0.00000000000E+00  0.00000000000E+00  0.20662655594E+04  0.20662655594E+04  0.00000000000E+00 0. -1.
         -1   -1    0    0    0  501 -0.00000000000E+00 -0.00000000000E+00 -0.32332802545E+03  0.32332802545E+03  0.00000000000E+00 0.  1.
         24    2    1    2    0    0 -0.14729423719E+03  0.30601767234E+03  0.12749526007E+04  0.13219117998E+04  0.81266624315E+02 0.  0.
        254    2    1    2    0    0  0.14729423719E+03 -0.30601767234E+03  0.46798493320E+03  0.10676817850E+04  0.89754781951E+03 0.  0.
         23    2    4    4    0    0 -0.29432316794E+02 -0.56217653728E+03  0.10285827008E+03  0.57917393982E+03  0.89184687611E+02 0.  0.
         23    2    4    4    0    0  0.17672655399E+03  0.25615886494E+03  0.36512666313E+03  0.48850784522E+03  0.92047790529E+02 0.  0.
          4    1    3    3  502    0 -0.33796125844E+02  0.14161936193E+03  0.63624734162E+03  0.65269357398E+03  0.00000000000E+00 0. -1.
         -3    1    3    3    0  502 -0.11349811135E+03  0.16439831040E+03  0.63870525911E+03  0.66921822581E+03  0.00000000000E+00 0.  1.
         13    1    5    5    0    0  0.11633827869E+02 -0.86880884957E+01  0.62980316616E+01  0.15827003362E+02  0.00000000000E+00 0. -1.
        -13    1    5    5    0    0 -0.41066144663E+02 -0.55348844878E+03  0.96560238415E+02  0.56334693646E+03  0.00000000000E+00 0.  1.
          4    1    6    6  503    0  0.17584758731E+03  0.26183976077E+03  0.34442808174E+03  0.46702584272E+03  0.00000000000E+00 0.  1.
         -4    1    6    6    0  503  0.87896667895E+00 -0.56808958229E+01  0.20698581390E+02  0.21482002498E+02  0.00000000000E+00 0. -1.
<mgrwt>
<rscale>  0 0.16347251E+04</rscale>
<asrwt>0</asrwt>
<pdfrwt beam="1">  1        2 0.31788700E+00 0.16347251E+04</pdfrwt>
<pdfrwt beam="2">  1       -1 0.49742774E-01 0.16347251E+04</pdfrwt>
<totfact> 0.27104045E+01</totfact>
</mgrwt>
</event>
<event>
12    7  0.1729738E-007  0.1497508E+04  0.7818608E-02  0.8886112E-01
         -1   -1    0    0    0  501 -0.00000000000E+00  0.00000000000E+00  0.36540437980E+03  0.36540437980E+03  0.00000000000E+00 0.  1.
          2   -1    0    0  501    0  0.00000000000E+00 -0.00000000000E+00 -0.15342805712E+04  0.15342805712E+04  0.00000000000E+00 0. -1.
         24    2    1    2    0    0  0.13142182832E+03  0.24527626712E+02 -0.97322839656E+03  0.98563262737E+03  0.80155242098E+02 0.  0.
        254    2    1    2    0    0 -0.13142182832E+03 -0.24527626712E+02 -0.19564779488E+03  0.91405232367E+03  0.88280252001E+03 0.  0.
         23    2    4    4    0    0  0.27497755378E+02 -0.42445983598E+03 -0.18866598555E+03  0.47437989874E+03  0.92299270387E+02 0.  0.
         23    2    4    4    0    0 -0.15891958370E+03  0.39993220927E+03 -0.69818093320E+01  0.43967242493E+03  0.89788025320E+02 0.  0.
          4    1    3    3  502    0  0.72314870492E+02  0.46445581613E+02 -0.41159910588E+03  0.42047646367E+03  0.00000000000E+00 0. -1.
         -3    1    3    3    0  502  0.59106957833E+02 -0.21917954901E+02 -0.56162929068E+03  0.56515616369E+03  0.00000000000E+00 0.  1.
         13    1    5    5    0    0  0.24663266888E+02 -0.30767475701E+02 -0.31487063332E+02  0.50461365934E+02  0.00000000000E+00 0.  1.
        -13    1    5    5    0    0  0.28344884898E+01 -0.39369236028E+03 -0.15717892221E+03  0.42391853280E+03  0.00000000000E+00 0. -1.
          4    1    6    6  503    0 -0.88525095944E+02  0.32115420279E+03 -0.16903327189E+02  0.33356024501E+03  0.00000000000E+00 0. -1.
         -4    1    6    6    0  503 -0.70394487758E+02  0.78778006480E+02  0.99215178574E+01  0.10611217992E+03  0.00000000000E+00 0.  1.
<mgrwt>
<rscale>  0 0.14975084E+04</rscale>
<asrwt>0</asrwt>
<pdfrwt beam="1">  1        2 0.23604316E+00 0.14975084E+04</pdfrwt>
<pdfrwt beam="2">  1       -1 0.56216060E-01 0.14975084E+04</pdfrwt>
<totfact> 0.42800080E+01</totfact>
</mgrwt>
</event>
<event>
12    7  0.1729738E-007  0.1599962E+04  0.7818608E-02  0.8820571E-01
         -1   -1    0    0    0  501 -0.00000000000E+00  0.00000000000E+00  0.27646585153E+03  0.27646585153E+03  0.00000000000E+00 0.  1.
          2   -1    0    0  501    0  0.00000000000E+00 -0.00000000000E+00 -0.23148235135E+04  0.23148235135E+04  0.00000000000E+00 0. -1.
         24    2    1    2    0    0  0.36199327202E+03  0.35725235990E+03 -0.10578094305E+04  0.11750661263E+04  0.56135838453E+02 0.  0.
        254    2    1    2    0    0 -0.36199327202E+03 -0.35725235990E+03 -0.98054823152E+03  0.14162232388E+04  0.88630979347E+03 0.  0.
         23    2    4    4    0    0 -0.60283434663E+03 -0.36652662167E+02 -0.58914630932E+03  0.84856230541E+03  0.90619783992E+02 0.  0.
         23    2    4    4    0    0  0.24084107460E+03 -0.32059969773E+03 -0.39140192220E+03  0.56766093334E+03  0.90856376462E+02 0.  0.
          4    1    3    3  502    0  0.16899165851E+03  0.16357037834E+03 -0.42555310600E+03  0.48621897880E+03  0.00000000000E+00 0. -1.
         -3    1    3    3    0  502  0.19300161351E+03  0.19368198156E+03 -0.63225632448E+03  0.68884714752E+03  0.00000000000E+00 0.  1.
         13    1    5    5    0    0 -0.32290765171E+03 -0.13074720227E+02 -0.25258974662E+03  0.41017298782E+03  0.00000000000E+00 0.  1.
        -13    1    5    5    0    0 -0.27992669492E+03 -0.23577941941E+02 -0.33655656270E+03  0.43838931758E+03  0.00000000000E+00 0. -1.
          3    1    6    6  503    0  0.14786130152E+02 -0.74752846888E+01  0.16222531403E+01  0.16647559319E+02  0.00000000000E+00 0. -1.
         -3    1    6    6    0  503  0.22605494445E+03 -0.31312441304E+03 -0.39302417534E+03  0.55101337402E+03  0.00000000000E+00 0.  1.
<mgrwt>
<rscale>  0 0.15999621E+04</rscale>
<asrwt>0</asrwt>
<pdfrwt beam="1">  1        2 0.35612669E+00 0.15999621E+04</pdfrwt>
<pdfrwt beam="2">  1       -1 0.42533209E-01 0.15999621E+04</pdfrwt>
<totfact> 0.26445394E+01</totfact>
</mgrwt>
</event>
<event>
12    7  0.1729738E-007  0.1326660E+04  0.7818608E-02  0.9008687E-01
          2   -1    0    0  501    0  0.00000000000E+00  0.00000000000E+00  0.11871839381E+04  0.11871839381E+04  0.00000000000E+00 0. -1.
         -1   -1    0    0    0  501 -0.00000000000E+00 -0.00000000000E+00 -0.37063061971E+03  0.37063061971E+03  0.00000000000E+00 0.  1.
         24    2    1    2    0    0 -0.12490532959E+03  0.32388568742E+03  0.22257960438E+03  0.41972467839E+03  0.78255002908E+02 0.  0.
        254    2    1    2    0    0  0.12490532959E+03 -0.32388568742E+03  0.59397371405E+03  0.11380898795E+04  0.90660935406E+03 0.  0.
         23    2    4    4    0    0  0.33348551643E+03 -0.27983665867E+03 -0.55355998032E+02  0.44830409176E+03  0.91603094747E+02 0.  0.
         23    2    4    4    0    0 -0.20858018684E+03 -0.44049028755E+02  0.64932971208E+03  0.68978578769E+03  0.93430972577E+02 0.  0.
          4    1    3    3  502    0  0.25162777026E+01  0.77021870688E+02  0.35862109639E+02  0.84998771318E+02  0.00000000000E+00 0. -1.
         -3    1    3    3    0  502 -0.12742160729E+03  0.24686381674E+03  0.18671749474E+03  0.33472590707E+03  0.00000000000E+00 0.  1.
         13    1    5    5    0    0  0.43495389782E+02 -0.44001532215E+02 -0.41047926677E+02  0.74249013825E+02  0.00000000000E+00 0. -1.
        -13    1    5    5    0    0  0.28999012665E+03 -0.23583512645E+03 -0.14308071355E+02  0.37405507794E+03  0.00000000000E+00 0.  1.
          4    1    6    6  503    0 -0.10174220663E+03 -0.49581694277E+02  0.44471776924E+03  0.45889401313E+03  0.00000000000E+00 0.  1.
         -4    1    6    6    0  503 -0.10683798022E+03  0.55326655212E+01  0.20461194284E+03  0.23089177456E+03  0.00000000000E+00 0. -1.
<mgrwt>
<rscale>  0 0.13266600E+04</rscale>
<asrwt>0</asrwt>
<pdfrwt beam="1">  1        2 0.18264368E+00 0.13266600E+04</pdfrwt>
<pdfrwt beam="2">  1       -1 0.57020096E-01 0.13266600E+04</pdfrwt>
<totfact> 0.66965633E+01</totfact>
</mgrwt>
</event>
<event>
12    7  0.1729738E-007  0.1925027E+04  0.7818608E-02  0.8642498E-01
         -1   -1    0    0    0  501 -0.00000000000E+00  0.00000000000E+00  0.29362981929E+04  0.29362981929E+04  0.00000000000E+00 0.  1.
          2   -1    0    0  501    0  0.00000000000E+00 -0.00000000000E+00 -0.31551015441E+03  0.31551015441E+03  0.00000000000E+00 0. -1.
         24    2    1    2    0    0 -0.54015587823E+03  0.48338108229E+03  0.10034472627E+04  0.12410159020E+04  0.88252006097E+02 0.  0.
        254    2    1    2    0    0  0.54015587823E+03 -0.48338108229E+03  0.16173407758E+04  0.20107924453E+04  0.94977335690E+03 0.  0.
         23    2    4    4    0    0  0.75038832827E+03 -0.14833662909E+03  0.88433381022E+03  0.11727342466E+04  0.90404239711E+02 0.  0.
         23    2    4    4    0    0 -0.21023245004E+03 -0.33504445320E+03  0.73300696560E+03  0.83805819869E+03  0.92681519728E+02 0.  0.
          2    1    3    3  502    0 -0.31595474548E+03  0.27952112532E+03  0.50889046009E+03  0.66100602195E+03  0.00000000000E+00 0. -1.
         -1    1    3    3    0  502 -0.22420113275E+03  0.20385995697E+03  0.49455680259E+03  0.58000988006E+03  0.00000000000E+00 0.  1.
         13    1    5    5    0    0  0.74753358987E+03 -0.15145567588E+03  0.88514460761E+03  0.11684289735E+04  0.00000000000E+00 0. -1.
        -13    1    5    5    0    0  0.28547384055E+01  0.31190467890E+01 -0.81079738737E+00  0.43052731202E+01  0.00000000000E+00 0.  1.
          3    1    6    6  503    0 -0.99629963567E+02 -0.23978744867E+03  0.44662804398E+03  0.51662438952E+03  0.00000000000E+00 0. -1.
         -3    1    6    6    0  503 -0.11060248648E+03 -0.95257004534E+02  0.28637892162E+03  0.32143380917E+03  0.00000000000E+00 0.  1.
<mgrwt>
<rscale>  0 0.19250266E+04</rscale>
<asrwt>0</asrwt>
<pdfrwt beam="1">  1        2 0.48540026E-01 0.19250266E+04</pdfrwt>
<pdfrwt beam="2">  1       -1 0.45173817E+00 0.19250266E+04</pdfrwt>
<totfact> 0.34958294E-01</totfact>
</mgrwt>
</event>
<event>
12    7  0.1729738E-007  0.1486636E+04  0.7818608E-02  0.8893389E-01
         -1   -1    0    0    0  501 -0.00000000000E+00  0.00000000000E+00  0.20614023512E+03  0.20614023512E+03  0.00000000000E+00 0.  1.
          2   -1    0    0  501    0  0.00000000000E+00 -0.00000000000E+00 -0.26803204204E+04  0.26803204204E+04  0.00000000000E+00 0. -1.
         24    2    1    2    0    0  0.24020410849E+02 -0.36652495968E+03 -0.23452264767E+03  0.44431311380E+03  0.86577968411E+02 0.  0.
        254    2    1    2    0    0 -0.24020410849E+02  0.36652495968E+03 -0.22396575376E+04  0.24421475417E+04  0.90172124491E+03 0.  0.
         23    2    4    4    0    0  0.22872000433E+03  0.25381997427E+03 -0.25371844099E+03  0.43499477492E+03  0.90055467315E+02 0.  0.
         23    2    4    4    0    0 -0.25274041517E+03  0.11270498542E+03 -0.19859390966E+04  0.20071527668E+04  0.90155435594E+02 0.  0.
          4    1    3    3  502    0  0.60719071327E+01 -0.15138021615E+02 -0.37888271342E+02  0.41249834665E+02  0.00000000000E+00 0. -1.
         -3    1    3    3    0  502  0.17948503717E+02 -0.35138693807E+03 -0.19663437632E+03  0.40306327913E+03  0.00000000000E+00 0.  1.
         13    1    5    5    0    0  0.84308929340E+02  0.55112575063E+02 -0.11506976670E+03  0.15292626558E+03  0.00000000000E+00 0.  1.
        -13    1    5    5    0    0  0.14441107499E+03  0.19870739921E+03 -0.13864867429E+03  0.28206850934E+03  0.00000000000E+00 0. -1.
          1    1    6    6  503    0 -0.94650734573E+02  0.37996681478E+02 -0.10563107482E+04  0.10612233064E+04  0.00000000000E+00 0. -1.
         -1    1    6    6    0  503 -0.15808968060E+03  0.74708303938E+02 -0.92962834844E+03  0.94592946038E+03  0.00000000000E+00 0.  1.
<mgrwt>
<rscale>  0 0.14866363E+04</rscale>
<asrwt>0</asrwt>
<pdfrwt beam="1">  1        2 0.41235695E+00 0.14866363E+04</pdfrwt>
<pdfrwt beam="2">  1       -1 0.31713885E-01 0.14866363E+04</pdfrwt>
<totfact> 0.27918285E+01</totfact>
</mgrwt>
</event>
<event>
12    7  0.1729738E-007  0.1773659E+04  0.7818608E-02  0.8720434E-01
         -1   -1    0    0    0  501 -0.00000000000E+00  0.00000000000E+00  0.10771680827E+04  0.10771680827E+04  0.00000000000E+00 0.  1.
          2   -1    0    0  501    0  0.00000000000E+00 -0.00000000000E+00 -0.73012452044E+03  0.73012452044E+03  0.00000000000E+00 0. -1.
         24    2    1    2    0    0 -0.10283711178E+03  0.59161936138E+03  0.39555136154E+03  0.72358427852E+03  0.80773684980E+02 0.  0.
        254    2    1    2    0    0  0.10283711178E+03 -0.59161936138E+03 -0.48507799249E+02  0.10837083247E+04  0.90082283831E+03 0.  0.
         23    2    4    4    0    0  0.16923449743E+03  0.17032919475E+03  0.13529617723E+03  0.29085293653E+03  0.92940978108E+02 0.  0.
         23    2    4    4    0    0 -0.66397385647E+02 -0.76194855613E+03 -0.18380397647E+03  0.79285538812E+03  0.99305335724E+02 0.  0.
          2    1    3    3  502    0 -0.55813034930E+02  0.19576432649E+03  0.96716243517E+02  0.22537257631E+03  0.00000000000E+00 0. -1.
         -1    1    3    3    0  502 -0.47024076851E+02  0.39585503489E+03  0.29883511802E+03  0.49821170221E+03  0.00000000000E+00 0.  1.
         13    1    5    5    0    0  0.16912468343E+03  0.16599833881E+03  0.14666134001E+03  0.27869007102E+03  0.00000000000E+00 0.  1.
        -13    1    5    5    0    0  0.10981400254E+00  0.43308559387E+01 -0.11365162784E+02  0.12162865509E+02  0.00000000000E+00 0. -1.
          4    1    6    6  503    0  0.17771377012E+02 -0.36623885184E+03 -0.90512257115E+02  0.37767603462E+03  0.00000000000E+00 0. -1.
         -4    1    6    6    0  503 -0.84168762659E+02 -0.39570970429E+03 -0.93291719358E+02  0.41517935350E+03  0.00000000000E+00 0.  1.
<mgrwt>
<rscale>  0 0.17736593E+04</rscale>
<asrwt>0</asrwt>
<pdfrwt beam="1">  1        2 0.11232685E+00 0.17736593E+04</pdfrwt>
<pdfrwt beam="2">  1       -1 0.16571817E+00 0.17736593E+04</pdfrwt>
<totfact> 0.11100777E+01</totfact>
</mgrwt>
</event>
<event>
12    7  0.1729738E-007  0.2974018E+04  0.7818608E-02  0.8251189E-01
         -1   -1    0    0    0  501 -0.00000000000E+00  0.00000000000E+00  0.18991468556E+04  0.18991468556E+04  0.00000000000E+00 0.  1.
          2   -1    0    0  501    0  0.00000000000E+00 -0.00000000000E+00 -0.11643102068E+04  0.11643102068E+04  0.00000000000E+00 0. -1.
         24    2    1    2    0    0 -0.88079539418E+03 -0.69664088238E+03 -0.41705272105E+03  0.12006511888E+04  0.80754316517E+02 0.  0.
        254    2    1    2    0    0  0.88079539418E+03  0.69664088238E+03  0.11518893698E+04  0.18628058736E+04  0.93919516445E+03 0.  0.
         23    2    4    4    0    0  0.55438886881E+03  0.77530479539E+03  0.40467620022E+03  0.10394490136E+04  0.90812341274E+02 0.  0.
         23    2    4    4    0    0  0.32640652536E+03 -0.78663913008E+02  0.74721316961E+03  0.82335685994E+03  0.82823710097E+02 0.  0.
          4    1    3    3  502    0 -0.76300565214E+03 -0.63386846175E+03 -0.37865437738E+03  0.10617655059E+04  0.00000000000E+00 0. -1.
         -1    1    3    3    0  502 -0.11778974204E+03 -0.62772420630E+02 -0.38398343674E+02  0.13888568291E+03  0.00000000000E+00 0.  1.
         13    1    5    5    0    0  0.47216213169E+03  0.69956724162E+03  0.37646682920E+03  0.92415295143E+03  0.00000000000E+00 0. -1.
        -13    1    5    5    0    0  0.82226737124E+02  0.75737553772E+02  0.28209371014E+02  0.11529606222E+03  0.00000000000E+00 0.  1.
          3    1    6    6  503    0  0.26199280281E+03 -0.92866045950E+02  0.56742831531E+03  0.63185379973E+03  0.00000000000E+00 0. -1.
         -3    1    6    6    0  503  0.64413722557E+02  0.14202132942E+02  0.17978485430E+03  0.19150306021E+03  0.00000000000E+00 0.  1.
<mgrwt>
<rscale>  0 0.29740182E+04</rscale>
<asrwt>0</asrwt>
<pdfrwt beam="1">  1        2 0.17912465E+00 0.29740182E+04</pdfrwt>
<pdfrwt beam="2">  1       -1 0.29217644E+00 0.29740182E+04</pdfrwt>
<totfact> 0.72186026E-01</totfact>
</mgrwt>
</event>
<event>
12    7  0.1729738E-007  0.2717305E+04  0.7818608E-02  0.8329412E-01
          2   -1    0    0  501    0  0.00000000000E+00  0.00000000000E+00  0.11210159216E+04  0.11210159216E+04  0.00000000000E+00 0. -1.
         -1   -1    0    0    0  501 -0.00000000000E+00 -0.00000000000E+00 -0.16466643870E+04  0.16466643870E+04  0.00000000000E+00 0.  1.
         24    2    1    2    0    0  0.32376533696E+03  0.66138241608E+03 -0.12071177736E+04  0.14161813788E+04  0.78649122264E+02 0.  0.
        254    2    1    2    0    0 -0.32376533696E+03 -0.66138241608E+03  0.68146930824E+03  0.13514989299E+04  0.90548232769E+03 0.  0.
         23    2    4    4    0    0 -0.56046120276E+03 -0.42651095440E+03  0.71054486955E+03  0.10046163346E+04  0.91387166169E+02 0.  0.
         23    2    4    4    0    0  0.23669586580E+03 -0.23487146169E+03 -0.29075561315E+02  0.34688259528E+03  0.91063770205E+02 0.  0.
          4    1    3    3  502    0  0.11206830433E+03  0.25019093306E+03 -0.52137019042E+03  0.58905151157E+03  0.00000000000E+00 0. -1.
         -3    1    3    3    0  502  0.21169703263E+03  0.41119148302E+03 -0.68574758319E+03  0.82712986719E+03  0.00000000000E+00 0.  1.
         13    1    5    5    0    0 -0.29058260247E+03 -0.27803594511E+03  0.40290993747E+03  0.56927906456E+03  0.00000000000E+00 0. -1.
        -13    1    5    5    0    0 -0.26987860029E+03 -0.14847500928E+03  0.30763493208E+03  0.43533727007E+03  0.00000000000E+00 0.  1.
          3    1    6    6  503    0  0.23345181823E+03 -0.24161106335E+03 -0.22166469458E+02  0.33670017781E+03  0.00000000000E+00 0. -1.
         -3    1    6    6    0  503  0.32440475643E+01  0.67396016674E+01 -0.69090918567E+01  0.10182417469E+02  0.00000000000E+00 0.  1.
<mgrwt>
<rscale>  0 0.27173053E+04</rscale>
<asrwt>0</asrwt>
<pdfrwt beam="1">  1        2 0.17246399E+00 0.27173053E+04</pdfrwt>
<pdfrwt beam="2">  1       -1 0.25333298E+00 0.27173053E+04</pdfrwt>
<totfact> 0.13999284E+00</totfact>
</mgrwt>
</event>
<event>
12    7  0.1729738E-007  0.2074483E+04  0.7818608E-02  0.8572568E-01
         -1   -1    0    0    0  501 -0.00000000000E+00  0.00000000000E+00  0.10010753422E+04  0.10010753422E+04  0.00000000000E+00 0.  1.
          2   -1    0    0  501    0  0.00000000000E+00 -0.00000000000E+00 -0.10747140621E+04  0.10747140621E+04  0.00000000000E+00 0. -1.
         24    2    1    2    0    0 -0.84942109154E+02 -0.79705331484E+03 -0.28566884736E+03  0.85477370140E+03  0.80760396523E+02 0.  0.
        254    2    1    2    0    0  0.84942109154E+02  0.79705331484E+03  0.21203012742E+03  0.12210157029E+04  0.89633332144E+03 0.  0.
         23    2    4    4    0    0 -0.60326870983E+02  0.59904515122E+03  0.53165170437E+03  0.80804493335E+03  0.88253356827E+02 0.  0.
         23    2    4    4    0    0  0.14526898014E+03  0.19800816361E+03 -0.31962157695E+03  0.41297076952E+03  0.89869875816E+02 0.  0.
          4    1    3    3  502    0 -0.58302130991E+02 -0.59489785050E+03 -0.17533228686E+03  0.62293177943E+03  0.00000000000E+00 0. -1.
         -3    1    3    3    0  502 -0.26639978163E+02 -0.20215546433E+03 -0.11033656051E+03  0.23184192197E+03  0.00000000000E+00 0.  1.
         13    1    5    5    0    0 -0.62303176557E+02  0.20910897672E+03  0.17724676424E+03  0.28111326078E+03  0.00000000000E+00 0. -1.
        -13    1    5    5    0    0  0.19763055733E+01  0.38993617450E+03  0.35440494013E+03  0.52693167256E+03  0.00000000000E+00 0.  1.
          4    1    6    6  503    0  0.88919251037E+02  0.53889177244E+02 -0.99602184792E+02  0.14398358186E+03  0.00000000000E+00 0. -1.
         -4    1    6    6    0  503  0.56349729100E+02  0.14411898637E+03 -0.22001939216E+03  0.26898718767E+03  0.00000000000E+00 0.  1.
<mgrwt>
<rscale>  0 0.20744828E+04</rscale>
<asrwt>0</asrwt>
<pdfrwt beam="1">  1        2 0.16534063E+00 0.20744828E+04</pdfrwt>
<pdfrwt beam="2">  1       -1 0.15401159E+00 0.20744828E+04</pdfrwt>
<totfact> 0.77260820E+00</totfact>
</mgrwt>
</event>
<event>
12    7  0.1729738E-007  0.1369673E+04  0.7818608E-02  0.8976068E-01
          2   -1    0    0  501    0  0.00000000000E+00  0.00000000000E+00  0.15335889798E+04  0.15335889798E+04  0.00000000000E+00 0. -1.
         -3   -1    0    0    0  501 -0.00000000000E+00 -0.00000000000E+00 -0.30581922759E+03  0.30581922759E+03  0.00000000000E+00 0.  1.
         24    2    1    2    0    0  0.20863297978E+03  0.16840311748E+03 -0.47581040967E+02  0.28438517618E+03  0.81997821540E+02 0.  0.
        254    2    1    2    0    0 -0.20863297978E+03 -0.16840311748E+03  0.12753507932E+04  0.15550230312E+04  0.84834524324E+03 0.  0.
         23    2    4    4    0    0  0.16037794996E+03 -0.14955316043E+03  0.11183865604E+04  0.11432894578E+04  0.90747182487E+02 0.  0.
         23    2    4    4    0    0 -0.36901092974E+03 -0.18849957059E+02  0.15696423278E+03  0.41173357345E+03  0.91446038653E+02 0.  0.
          4    1    3    3  502    0  0.94574565796E+02  0.26372267574E+02 -0.18786863855E+02  0.99963949732E+02  0.00000000000E+00 0. -1.
         -3    1    3    3    0  502  0.11405841399E+03  0.14203084991E+03 -0.28794177112E+02  0.18442122644E+03  0.00000000000E+00 0.  1.
         13    1    5    5    0    0  0.22645931571E+02 -0.77639819601E+02  0.33290840914E+03  0.34259128518E+03  0.00000000000E+00 0. -1.
        -13    1    5    5    0    0  0.13773201838E+03 -0.71913340825E+02  0.78547815128E+03  0.80069817260E+03  0.00000000000E+00 0.  1.
          2    1    6    6  503    0 -0.17070992220E+03  0.32827285617E+02  0.92462821441E+02  0.19689815024E+03  0.00000000000E+00 0. -1.
         -2    1    6    6    0  503 -0.19830100754E+03 -0.51677242676E+02  0.64501411341E+02  0.21483542321E+03  0.00000000000E+00 0.  1.
<mgrwt>
<rscale>  0 0.13696729E+04</rscale>
<asrwt>0</asrwt>
<pdfrwt beam="1">  1        2 0.23593676E+00 0.13696729E+04</pdfrwt>
<pdfrwt beam="2">  1       -3 0.47049113E-01 0.13696729E+04</pdfrwt>
<totfact> 0.34118293E+01</totfact>
</mgrwt>
</event>
<event>
12    7  0.1729738E-007  0.1905336E+04  0.7818608E-02  0.8652205E-01
          2   -1    0    0  501    0  0.00000000000E+00  0.00000000000E+00  0.14874269070E+04  0.14874269070E+04  0.00000000000E+00 0. -1.
         -1   -1    0    0    0  501 -0.00000000000E+00 -0.00000000000E+00 -0.61016523983E+03  0.61016523983E+03  0.00000000000E+00 0.  1.
         24    2    1    2    0    0  0.56035029588E+03 -0.46844497230E+03  0.35702370797E+03  0.81689618125E+03  0.80126754033E+02 0.  0.
        254    2    1    2    0    0 -0.56035029588E+03  0.46844497230E+03  0.52023795917E+03  0.12806959656E+04  0.91438584628E+03 0.  0.
         23    2    4    4    0    0 -0.39376643307E+03  0.73708155520E+03  0.36331378368E+03  0.91595786867E+03  0.92955306060E+02 0.  0.
         23    2    4    4    0    0 -0.16658386282E+03 -0.26863658290E+03  0.15692417549E+03  0.36473809689E+03  0.92156852437E+02 0.  0.
          2    1    3    3  502    0  0.47517036995E+03 -0.42812144646E+03  0.29718400460E+03  0.70526107647E+03  0.00000000000E+00 0. -1.
         -1    1    3    3    0  502  0.85179925939E+02 -0.40323525841E+02  0.59839703372E+02  0.11163510478E+03  0.00000000000E+00 0.  1.
         13    1    5    5    0    0 -0.36126149653E+03  0.69754361318E+03  0.31755130342E+03  0.84729911570E+03  0.00000000000E+00 0.  1.
        -13    1    5    5    0    0 -0.32504936542E+02  0.39537942025E+02  0.45762480267E+02  0.68658752970E+02  0.00000000000E+00 0. -1.
          3    1    6    6  503    0 -0.41736370884E+02 -0.31098553483E+02  0.59980986089E+02  0.79415133164E+02  0.00000000000E+00 0. -1.
         -3    1    6    6    0  503 -0.12484749193E+03 -0.23753802942E+03  0.96943189397E+02  0.28532296373E+03  0.00000000000E+00 0.  1.
<mgrwt>
<rscale>  0 0.19053359E+04</rscale>
<asrwt>0</asrwt>
<pdfrwt beam="1">  1        2 0.22883491E+00 0.19053359E+04</pdfrwt>
<pdfrwt beam="2">  1       -1 0.93871576E-01 0.19053359E+04</pdfrwt>
<totfact> 0.15139106E+01</totfact>
</mgrwt>
</event>
<event>
12    7  0.1729738E-007  0.1546194E+04  0.7818608E-02  0.8854303E-01
          2   -1    0    0  501    0  0.00000000000E+00  0.00000000000E+00  0.68986137330E+03  0.68986137330E+03  0.00000000000E+00 0. -1.
         -1   -1    0    0    0  501 -0.00000000000E+00 -0.00000000000E+00 -0.86637511840E+03  0.86637511840E+03  0.00000000000E+00 0.  1.
         24    2    1    2    0    0 -0.10489216345E+03 -0.42554183092E+03  0.20221093892E+03  0.48955292243E+03  0.81759306632E+02 0.  0.
        254    2    1    2    0    0  0.10489216345E+03  0.42554183092E+03 -0.37872468401E+03  0.10666835693E+04  0.89570823087E+03 0.  0.
         23    2    4    4    0    0 -0.55013681163E+02 -0.33497736338E+02 -0.53639558818E+03  0.54747823328E+03  0.88676859685E+02 0.  0.
         23    2    4    4    0    0  0.15990584462E+03  0.45903956726E+03  0.15767090416E+03  0.51920533599E+03  0.91797949051E+02 0.  0.
          2    1    3    3  502    0 -0.94987279823E+02 -0.42507170348E+03  0.20050933026E+03  0.47949194775E+03  0.00000000000E+00 0. -1.
         -1    1    3    3    0  502 -0.99048836310E+01 -0.47012744014E+00  0.17016086523E+01  0.10060974682E+02  0.00000000000E+00 0.  1.
         13    1    5    5    0    0 -0.41184313829E+01 -0.27519107275E+02 -0.41674567251E+02  0.50110201534E+02  0.00000000000E+00 0.  1.
        -13    1    5    5    0    0 -0.50895249780E+02 -0.59786290637E+01 -0.49472102093E+03  0.49736803175E+03  0.00000000000E+00 0. -1.
          1    1    6    6  503    0  0.12648836495E+03  0.33357819579E+03  0.15596918341E+03  0.38935858196E+03  0.00000000000E+00 0. -1.
         -1    1    6    6    0  503  0.33417479669E+02  0.12546137147E+03  0.17017207528E+01  0.12984675403E+03  0.00000000000E+00 0.  1.
<mgrwt>
<rscale>  0 0.15461937E+04</rscale>
<asrwt>0</asrwt>
<pdfrwt beam="1">  1        2 0.10613252E+00 0.15461937E+04</pdfrwt>
<pdfrwt beam="2">  1       -1 0.13328848E+00 0.15461937E+04</pdfrwt>
<totfact> 0.21849901E+01</totfact>
</mgrwt>
</event>
<event>
12    7  0.1729738E-007  0.1465375E+04  0.7818608E-02  0.8907810E-01
          2   -1    0    0  501    0  0.00000000000E+00  0.00000000000E+00  0.22414002182E+04  0.22414002182E+04  0.00000000000E+00 0. -1.
         -1   -1    0    0    0  501 -0.00000000000E+00 -0.00000000000E+00 -0.23950700575E+03  0.23950700575E+03  0.00000000000E+00 0.  1.
         24    2    1    2    0    0 -0.41528812797E+03 -0.26767229917E+02  0.94343128382E+03  0.10341927393E+04  0.79443822464E+02 0.  0.
        254    2    1    2    0    0  0.41528812797E+03  0.26767229917E+02  0.10584619286E+04  0.14467144847E+04  0.89412551238E+03 0.  0.
         23    2    4    4    0    0  0.46394283876E+03 -0.20595611438E+02  0.10383340732E+03  0.48525367136E+03  0.94987432045E+02 0.  0.
         23    2    4    4    0    0 -0.48654710787E+02  0.47362841355E+02  0.95462852133E+03  0.96146081329E+03  0.92091053564E+02 0.  0.
          2    1    3    3  502    0 -0.32269170529E+03 -0.35789689544E+02  0.79836065677E+03  0.86185299026E+03  0.00000000000E+00 0. -1.
         -1    1    3    3    0  502 -0.92596422684E+02  0.90224596279E+01  0.14507062704E+03  0.17233974905E+03  0.00000000000E+00 0.  1.
         13    1    5    5    0    0  0.19780215843E+02  0.91888220687E+01  0.24983500133E+02  0.33164237798E+02  0.00000000000E+00 0.  1.
        -13    1    5    5    0    0  0.44416262292E+03 -0.29784433507E+02  0.78849907182E+02  0.45208943356E+03  0.00000000000E+00 0. -1.
          3    1    6    6  503    0  0.13850737218E+01  0.32641865608E+02  0.73490948495E+03  0.73563534505E+03  0.00000000000E+00 0. -1.
         -3    1    6    6    0  503 -0.50039784509E+02  0.14720975747E+02  0.21971903638E+03  0.22582546825E+03  0.00000000000E+00 0.  1.
<mgrwt>
<rscale>  0 0.14653751E+04</rscale>
<asrwt>0</asrwt>
<pdfrwt beam="1">  1        2 0.34483079E+00 0.14653751E+04</pdfrwt>
<pdfrwt beam="2">  1       -1 0.36847233E-01 0.14653751E+04</pdfrwt>
<totfact> 0.38242309E+01</totfact>
</mgrwt>
</event>
<event>
12    7  0.1729738E-007  0.2547972E+04  0.7818608E-02  0.8386092E-01
          2   -1    0    0  501    0  0.00000000000E+00  0.00000000000E+00  0.12875028835E+04  0.12875028835E+04  0.00000000000E+00 0. -1.
         -1   -1    0    0    0  501 -0.00000000000E+00 -0.00000000000E+00 -0.12606106387E+04  0.12606106387E+04  0.00000000000E+00 0.  1.
         24    2    1    2    0    0  0.95270796513E+02 -0.31441462041E+03  0.10787649195E+04  0.11305592853E+04  0.80606871337E+02 0.  0.
        254    2    1    2    0    0 -0.95270796513E+02  0.31441462041E+03 -0.10518726747E+04  0.14175542370E+04  0.89167864891E+03 0.  0.
         23    2    4    4    0    0 -0.48220575279E+03  0.10644383253E+03 -0.56809339806E+03  0.75811430400E+03  0.90302333917E+02 0.  0.
         23    2    4    4    0    0  0.38693495628E+03  0.20797078788E+03 -0.48377927659E+03  0.65943993299E+03  0.88589659423E+02 0.  0.
          2    1    3    3  502    0  0.80465384604E+02 -0.14349981803E+03  0.59260151471E+03  0.61501498447E+03  0.00000000000E+00 0. -1.
         -1    1    3    3    0  502  0.14805411909E+02 -0.17091480238E+03  0.48616340480E+03  0.51554430078E+03  0.00000000000E+00 0.  1.
         13    1    5    5    0    0 -0.30452009370E+03  0.25883847429E+02 -0.31993326594E+03  0.44244746092E+03  0.00000000000E+00 0.  1.
        -13    1    5    5    0    0 -0.17768565909E+03  0.80559985102E+02 -0.24816013212E+03  0.31566684308E+03  0.00000000000E+00 0. -1.
          2    1    6    6  503    0  0.82643725411E+02  0.97203842478E+01 -0.11401878013E+03  0.14115506878E+03  0.00000000000E+00 0. -1.
         -2    1    6    6    0  503  0.30429123086E+03  0.19825040363E+03 -0.36976049646E+03  0.51828486421E+03  0.00000000000E+00 0.  1.
<mgrwt>
<rscale>  0 0.25479716E+04</rscale>
<asrwt>0</asrwt>
<pdfrwt beam="1">  1        2 0.19807737E+00 0.25479716E+04</pdfrwt>
<pdfrwt beam="2">  1       -1 0.19394010E+00 0.25479716E+04</pdfrwt>
<totfact> 0.28219203E+00</totfact>
</mgrwt>
</event>
<event>
12    7  0.1729738E-007  0.1003032E+04  0.7818608E-02  0.9305226E-01
          2   -1    0    0  501    0  0.00000000000E+00  0.00000000000E+00  0.72200139320E+03  0.72200139320E+03  0.00000000000E+00 0. -1.
         -1   -1    0    0    0  501 -0.00000000000E+00 -0.00000000000E+00 -0.34836251637E+03  0.34836251637E+03  0.00000000000E+00 0.  1.
         24    2    1    2    0    0 -0.50875484297E+02  0.87366312052E+02  0.95247188758E+02  0.15960455474E+03  0.78615517193E+02 0.  0.
        254    2    1    2    0    0  0.50875484297E+02 -0.87366312052E+02  0.27839168808E+03  0.91075935483E+03  0.86125459827E+03 0.  0.
         23    2    4    4    0    0 -0.87501293528E+01  0.14399973356E+02  0.57298399096E+03  0.58023855536E+03  0.89901074693E+02 0.  0.
         23    2    4    4    0    0  0.59625613649E+02 -0.10176628541E+03 -0.29459230288E+03  0.33052079947E+03  0.92454222799E+02 0.  0.
          4    1    3    3  502    0 -0.49460915065E+02  0.73000342950E+02  0.10863416458E+03  0.13991716801E+03  0.00000000000E+00 0. -1.
         -3    1    3    3    0  502 -0.14145692314E+01  0.14365969102E+02 -0.13386975826E+02  0.19687386727E+02  0.00000000000E+00 0.  1.
         13    1    5    5    0    0 -0.52150328265E+01 -0.22479705227E+01  0.55655338213E+03  0.55658235428E+03  0.00000000000E+00 0. -1.
        -13    1    5    5    0    0 -0.35350965263E+01  0.16647943878E+02  0.16430608834E+02  0.23656201079E+02  0.00000000000E+00 0.  1.
          1    1    6    6  503    0  0.71701678368E+02 -0.10919952549E+03 -0.28467062531E+03  0.31321403538E+03  0.00000000000E+00 0. -1.
         -1    1    6    6    0  503 -0.12076064719E+02  0.74332400788E+01 -0.99216775739E+01  0.17306764083E+02  0.00000000000E+00 0.  1.
<mgrwt>
<rscale>  0 0.10030318E+04</rscale>
<asrwt>0</asrwt>
<pdfrwt beam="1">  1        2 0.11107714E+00 0.10030318E+04</pdfrwt>
<pdfrwt beam="2">  1       -1 0.53594233E-01 0.10030318E+04</pdfrwt>
<totfact> 0.15767914E+02</totfact>
</mgrwt>
</event>
<event>
12    7  0.1729738E-007  0.2189796E+04  0.7818608E-02  0.8522687E-01
          2   -1    0    0  501    0  0.00000000000E+00  0.00000000000E+00  0.12532415151E+04  0.12532415151E+04  0.00000000000E+00 0. -1.
         -3   -1    0    0    0  501 -0.00000000000E+00 -0.00000000000E+00 -0.95656032303E+03  0.95656032303E+03  0.00000000000E+00 0.  1.
         24    2    1    2    0    0 -0.25521822064E+03 -0.72442412435E+03 -0.36716497902E+03  0.85520182320E+03  0.81445592264E+02 0.  0.
        254    2    1    2    0    0  0.25521822064E+03  0.72442412435E+03  0.66384617104E+03  0.13546000149E+04  0.89684045929E+03 0.  0.
         23    2    4    4    0    0  0.50465860434E+02  0.84755298336E+03  0.68982027264E+03  0.10972195879E+04  0.84533738151E+02 0.  0.
         23    2    4    4    0    0  0.20475236020E+03 -0.12312885901E+03 -0.25974101593E+02  0.25738042697E+03  0.92118322301E+02 0.  0.
          4    1    3    3  502    0 -0.19088647062E+02 -0.65043032047E+02 -0.84876503271E+01  0.68315537563E+02  0.00000000000E+00 0. -1.
         -1    1    3    3    0  502 -0.23612957358E+03 -0.65938109231E+03 -0.35867732869E+03  0.78688628564E+03  0.00000000000E+00 0.  1.
         13    1    5    5    0    0  0.41997055626E+02  0.47078205486E+03  0.33251380610E+03  0.57789698659E+03  0.00000000000E+00 0. -1.
        -13    1    5    5    0    0  0.84688048077E+01  0.37677092850E+03  0.35730646654E+03  0.51932260133E+03  0.00000000000E+00 0.  1.
          1    1    6    6  503    0  0.90629297361E+02 -0.12823140914E+02  0.16660474636E+02  0.93035874253E+02  0.00000000000E+00 0. -1.
         -1    1    6    6    0  503  0.11412306284E+03 -0.11030571810E+03 -0.42634576229E+02  0.16434455272E+03  0.00000000000E+00 0.  1.
<mgrwt>
<rscale>  0 0.21897955E+04</rscale>
<asrwt>0</asrwt>
<pdfrwt beam="1">  1        2 0.19280639E+00 0.21897955E+04</pdfrwt>
<pdfrwt beam="2">  1       -3 0.14716313E+00 0.21897955E+04</pdfrwt>
<totfact> 0.34549499E+00</totfact>
</mgrwt>
</event>
<event>
12    7  0.1729738E-007  0.2142423E+04  0.7818608E-02  0.8542783E-01
          2   -1    0    0  501    0  0.00000000000E+00  0.00000000000E+00  0.40191444987E+04  0.40191444987E+04  0.00000000000E+00 0. -1.
         -1   -1    0    0    0  501 -0.00000000000E+00 -0.00000000000E+00 -0.28550702651E+03  0.28550702651E+03  0.00000000000E+00 0.  1.
         24    2    1    2    0    0  0.18160491074E+03  0.38174193419E+03  0.30681098772E+04  0.30981100493E+04  0.79249046057E+02 0.  0.
        254    2    1    2    0    0 -0.18160491074E+03 -0.38174193419E+03  0.66552759503E+03  0.12065414759E+04  0.91329519076E+03 0.  0.
         23    2    4    4    0    0 -0.13136681933E+03 -0.47661639371E+03  0.84127991728E+03  0.98000182104E+03  0.90726192767E+02 0.  0.
         23    2    4    4    0    0 -0.50238091406E+02  0.94874459527E+02 -0.17575232225E+03  0.22653965488E+03  0.94373235405E+02 0.  0.
          4    1    3    3  502    0  0.16900411303E+03  0.32421920827E+03  0.24393478365E+04  0.24665965119E+04  0.00000000000E+00 0. -1.
         -3    1    3    3    0  502  0.12600797705E+02  0.57522725918E+02  0.62876204073E+03  0.63151353743E+03  0.00000000000E+00 0.  1.
         13    1    5    5    0    0 -0.36489013393E+02 -0.41269797086E+02  0.67721492032E+02  0.87297449751E+02  0.00000000000E+00 0. -1.
        -13    1    5    5    0    0 -0.94877805937E+02 -0.43534659663E+03  0.77355842524E+03  0.89270437129E+03  0.00000000000E+00 0.  1.
          1    1    6    6  503    0 -0.26495532295E+02  0.11847887709E+02  0.18224061893E+01  0.29081039168E+02  0.00000000000E+00 0. -1.
         -1    1    6    6    0  503 -0.23742559111E+02  0.83026571818E+02 -0.17757472844E+03  0.19745861571E+03  0.00000000000E+00 0.  1.
<mgrwt>
<rscale>  0 0.21424229E+04</rscale>
<asrwt>0</asrwt>
<pdfrwt beam="1">  1        2 0.61832988E+00 0.21424229E+04</pdfrwt>
<pdfrwt beam="2">  1       -1 0.43924161E-01 0.21424229E+04</pdfrwt>
<totfact> 0.17821322E+00</totfact>
</mgrwt>
</event>
<event>
12    7  0.1729738E-007  0.1253769E+04  0.7818608E-02  0.9067052E-01
          2   -1    0    0  501    0  0.00000000000E+00  0.00000000000E+00  0.17444372834E+04  0.17444372834E+04  0.00000000000E+00 0. -1.
         -3   -1    0    0    0  501 -0.00000000000E+00 -0.00000000000E+00 -0.22527850735E+03  0.22527850735E+03  0.00000000000E+00 0.  1.
         24    2    1    2    0    0 -0.71871477017E+02  0.22511389649E+03  0.64923694804E+03  0.69559556610E+03  0.80639948399E+02 0.  0.
        254    2    1    2    0    0  0.71871477017E+02 -0.22511389649E+03  0.86992182804E+03  0.12741202247E+04  0.90043133243E+03 0.  0.
         23    2    4    4    0    0 -0.13290466162E+03 -0.51553067671E+02  0.96129829429E+03  0.97612281707E+03  0.91651380337E+02 0.  0.
         23    2    4    4    0    0  0.20477613864E+03 -0.17356082882E+03 -0.91376466254E+02  0.29799740761E+03  0.91630606770E+02 0.  0.
          2    1    3    3  502    0 -0.64693157560E+02  0.74508150427E+02  0.27178311764E+03  0.28914137053E+03  0.00000000000E+00 0. -1.
         -1    1    3    3    0  502 -0.71783194572E+01  0.15060574607E+03  0.37745383040E+03  0.40645419557E+03  0.00000000000E+00 0.  1.
         13    1    5    5    0    0 -0.69119770525E+02  0.19089231672E+02  0.33094398446E+03  0.33862348160E+03  0.00000000000E+00 0. -1.
        -13    1    5    5    0    0 -0.63784891098E+02 -0.70642299343E+02  0.63035430983E+03  0.63749933546E+03  0.00000000000E+00 0.  1.
          1    1    6    6  503    0  0.97705428118E+02 -0.13925760608E+03 -0.42133070721E+02  0.17525474939E+03  0.00000000000E+00 0. -1.
         -1    1    6    6    0  503  0.10707071052E+03 -0.34303222739E+02 -0.49243395534E+02  0.12274265821E+03  0.00000000000E+00 0.  1.
<mgrwt>
<rscale>  0 0.12537691E+04</rscale>
<asrwt>0</asrwt>
<pdfrwt beam="1">  1        2 0.26837496E+00 0.12537691E+04</pdfrwt>
<pdfrwt beam="2">  1       -3 0.34658233E-01 0.12537691E+04</pdfrwt>
<totfact> 0.48286929E+01</totfact>
</mgrwt>
</event>
<event>
12    7  0.1729738E-007  0.1818172E+04  0.7818608E-02  0.8696695E-01
         -1   -1    0    0    0  501 -0.00000000000E+00  0.00000000000E+00  0.74586434354E+03  0.74586434354E+03  0.00000000000E+00 0.  1.
          2   -1    0    0  501    0  0.00000000000E+00 -0.00000000000E+00 -0.11080266918E+04  0.11080266918E+04  0.00000000000E+00 0. -1.
         24    2    1    2    0    0  0.39668513757E+03  0.45974698579E+03  0.20574117249E+03  0.64627367495E+03  0.81325540672E+02 0.  0.
        254    2    1    2    0    0 -0.39668513757E+03 -0.45974698579E+03 -0.56790352078E+03  0.12076173604E+04  0.87584181847E+03 0.  0.
         23    2    4    4    0    0  0.11333923587E+03 -0.34833304003E+03  0.64901097898E+02  0.38285879852E+03  0.90482141507E+02 0.  0.
         23    2    4    4    0    0 -0.51002437344E+03 -0.11141394576E+03 -0.63280461868E+03  0.82475856190E+03  0.85129731576E+02 0.  0.
          2    1    3    3  502    0  0.25608800879E+03  0.33473059215E+03  0.17164619610E+03  0.45506928506E+03  0.00000000000E+00 0. -1.
         -3    1    3    3    0  502  0.14059712878E+03  0.12501639364E+03  0.34094976399E+02  0.19120438990E+03  0.00000000000E+00 0.  1.
         13    1    5    5    0    0  0.12494379896E+03 -0.29290518307E+03  0.39809491397E+02  0.32091929635E+03  0.00000000000E+00 0.  1.
        -13    1    5    5    0    0 -0.11604563089E+02 -0.55427856963E+02  0.25091606501E+02  0.61939502168E+02  0.00000000000E+00 0. -1.
          3    1    6    6  503    0 -0.98424208935E+02  0.25428430565E+01 -0.15770255560E+03  0.18591365468E+03  0.00000000000E+00 0. -1.
         -3    1    6    6    0  503 -0.41160016450E+03 -0.11395678881E+03 -0.47510206308E+03  0.63884490722E+03  0.00000000000E+00 0.  1.
<mgrwt>
<rscale>  0 0.18181723E+04</rscale>
<asrwt>0</asrwt>
<pdfrwt beam="1">  1        2 0.17046564E+00 0.18181723E+04</pdfrwt>
<pdfrwt beam="2">  1       -1 0.11474836E+00 0.18181723E+04</pdfrwt>
<totfact> 0.15981715E+01</totfact>
</mgrwt>
</event>
<event>
12    7  0.1729738E-007  0.1785869E+04  0.7818608E-02  0.8713850E-01
          2   -1    0    0  501    0  0.00000000000E+00  0.00000000000E+00  0.23262705337E+04  0.23262705337E+04  0.00000000000E+00 0. -1.
         -1   -1    0    0    0  501 -0.00000000000E+00 -0.00000000000E+00 -0.34275126033E+03  0.34275126033E+03  0.00000000000E+00 0.  1.
         24    2    1    2    0    0  0.51309529354E+03 -0.22837581193E+03  0.20477139606E+03  0.60325290038E+03  0.80996576783E+02 0.  0.
        254    2    1    2    0    0 -0.51309529354E+03  0.22837581193E+03  0.17787478773E+04  0.20657688937E+04  0.88771325280E+03 0.  0.
         23    2    4    4    0    0 -0.12442359753E+03  0.52433365484E+03  0.10470657153E+04  0.11812277486E+04  0.92441163123E+02 0.  0.
         23    2    4    4    0    0 -0.38867169601E+03 -0.29595784291E+03  0.73168216206E+03  0.88454114511E+03  0.91637978241E+02 0.  0.
          4    1    3    3  502    0  0.43141441303E+02  0.14540660777E+01  0.58200757411E+01  0.43556532776E+02  0.00000000000E+00 0. -1.
         -3    1    3    3    0  502  0.46995385223E+03 -0.22982987801E+03  0.19895132032E+03  0.55969636761E+03  0.00000000000E+00 0.  1.
         13    1    5    5    0    0  0.59219344737E+01  0.80725647192E+02  0.20817446266E+03  0.22335690346E+03  0.00000000000E+00 0. -1.
        -13    1    5    5    0    0 -0.13034553200E+03  0.44360800765E+03  0.83889125262E+03  0.95787084510E+03  0.00000000000E+00 0.  1.
          4    1    6    6  503    0 -0.28607895291E+03 -0.16684962101E+03  0.46210592015E+03  0.56852602823E+03  0.00000000000E+00 0. -1.
         -4    1    6    6    0  503 -0.10259274310E+03 -0.12910822190E+03  0.26957624190E+03  0.31601511688E+03  0.00000000000E+00 0.  1.
<mgrwt>
<rscale>  0 0.17858692E+04</rscale>
<asrwt>0</asrwt>
<pdfrwt beam="1">  1        2 0.35788776E+00 0.17858692E+04</pdfrwt>
<pdfrwt beam="2">  1       -1 0.52730965E-01 0.17858692E+04</pdfrwt>
<totfact> 0.17099316E+01</totfact>
</mgrwt>
</event>
<event>
12    7  0.1729738E-007  0.1704839E+04  0.7818608E-02  0.8758609E-01
          2   -1    0    0  501    0  0.00000000000E+00  0.00000000000E+00  0.14707043404E+04  0.14707043404E+04  0.00000000000E+00 0. -1.
         -1   -1    0    0    0  501 -0.00000000000E+00 -0.00000000000E+00 -0.49406204256E+03  0.49406204256E+03  0.00000000000E+00 0.  1.
         24    2    1    2    0    0  0.16130124565E+03  0.28154785685E+03 -0.27522487205E+03  0.43282151483E+03  0.79362749207E+02 0.  0.
        254    2    1    2    0    0 -0.16130124565E+03 -0.28154785685E+03  0.12518671699E+04  0.15319448681E+04  0.82121640288E+03 0.  0.
         23    2    4    4    0    0  0.26327374777E+03 -0.34701987884E+03  0.62601423805E+03  0.76755533341E+03  0.86668916119E+02 0.  0.
         23    2    4    4    0    0 -0.42457499342E+03  0.65472021991E+02  0.62585293182E+03  0.76438953470E+03  0.89715983974E+02 0.  0.
          2    1    3    3  502    0  0.31410254936E+02  0.12900786338E+02 -0.42496699810E+02  0.54396726905E+02  0.00000000000E+00 0. -1.
         -1    1    3    3    0  502  0.12989099071E+03  0.26864707051E+03 -0.23272817225E+03  0.37842478793E+03  0.00000000000E+00 0.  1.
         13    1    5    5    0    0  0.18568526794E+03 -0.26625871418E+03  0.52206388020E+03  0.61475476136E+03  0.00000000000E+00 0. -1.
        -13    1    5    5    0    0  0.77588479832E+02 -0.80761164664E+02  0.10395035785E+03  0.15280057205E+03  0.00000000000E+00 0.  1.
          3    1    6    6  503    0 -0.36372234404E+03  0.43622573150E+02  0.47181765375E+03  0.59733472260E+03  0.00000000000E+00 0. -1.
         -3    1    6    6    0  503 -0.60852649383E+02  0.21849448840E+02  0.15403527807E+03  0.16705481209E+03  0.00000000000E+00 0.  1.
<mgrwt>
<rscale>  0 0.17048392E+04</rscale>
<asrwt>0</asrwt>
<pdfrwt beam="1">  1        2 0.22626220E+00 0.17048392E+04</pdfrwt>
<pdfrwt beam="2">  1       -1 0.76009546E-01 0.17048392E+04</pdfrwt>
<totfact> 0.24850976E+01</totfact>
</mgrwt>
</event>
<event>
12    7  0.1729738E-007  0.1241297E+04  0.7818608E-02  0.9077458E-01
         -1   -1    0    0    0  501 -0.00000000000E+00  0.00000000000E+00  0.78704718911E+03  0.78704718911E+03  0.00000000000E+00 0.  1.
          2   -1    0    0  501    0  0.00000000000E+00 -0.00000000000E+00 -0.48942985765E+03  0.48942985765E+03  0.00000000000E+00 0. -1.
         24    2    1    2    0    0  0.17193358953E+03 -0.22540841737E+03  0.10053259997E+02  0.29353190091E+03  0.75430729701E+02 0.  0.
        254    2    1    2    0    0 -0.17193358953E+03  0.22540841737E+03  0.28756407146E+03  0.98294514586E+03  0.89616848346E+03 0.  0.
         23    2    4    4    0    0  0.23936487987E+03 -0.89195401444E+02  0.36163318054E+03  0.45189063205E+03  0.90416927152E+02 0.  0.
         23    2    4    4    0    0 -0.41129846940E+03  0.31460381881E+03 -0.74069109072E+02  0.53105451381E+03  0.91600600298E+02 0.  0.
          4    1    3    3  502    0  0.10120356146E+03 -0.12624145502E+03 -0.31491071342E+02  0.16483553437E+03  0.00000000000E+00 0. -1.
         -3    1    3    3    0  502  0.70730028071E+02 -0.99166962348E+02  0.41544331339E+02  0.12869636653E+03  0.00000000000E+00 0.  1.
         13    1    5    5    0    0  0.21380368229E+03 -0.42984657868E+02  0.28665211031E+03  0.36017929940E+03  0.00000000000E+00 0.  1.
        -13    1    5    5    0    0  0.25561197580E+02 -0.46210743577E+02  0.74981070227E+02  0.91711332647E+02  0.00000000000E+00 0. -1.
          4    1    6    6  503    0 -0.12712255046E+03  0.58298292672E+02 -0.46484110827E+02  0.14737573180E+03  0.00000000000E+00 0. -1.
         -4    1    6    6    0  503 -0.28417591894E+03  0.25630552614E+03 -0.27584998245E+02  0.38367878201E+03  0.00000000000E+00 0.  1.
<mgrwt>
<rscale>  0 0.12412967E+04</rscale>
<asrwt>0</asrwt>
<pdfrwt beam="1">  1        2 0.75296901E-01 0.12412967E+04</pdfrwt>
<pdfrwt beam="2">  1       -1 0.12108418E+00 0.12412967E+04</pdfrwt>
<totfact> 0.43039282E+01</totfact>
</mgrwt>
</event>
<event>
12    7  0.1729738E-007  0.1491693E+04  0.7818608E-02  0.8889996E-01
          2   -1    0    0  501    0  0.00000000000E+00  0.00000000000E+00  0.50797835273E+03  0.50797835273E+03  0.00000000000E+00 0. -1.
         -1   -1    0    0    0  501 -0.00000000000E+00 -0.00000000000E+00 -0.10950993176E+04  0.10950993176E+04  0.00000000000E+00 0.  1.
         24    2    1    2    0    0  0.28350536081E+03 -0.15989902861E+03 -0.55004520076E+03  0.64360801899E+03  0.75753351527E+02 0.  0.
        254    2    1    2    0    0 -0.28350536081E+03  0.15989902861E+03 -0.37075764105E+02  0.95946965134E+03  0.90181173790E+03 0.  0.
         23    2    4    4    0    0 -0.11407362977E+03  0.41846633119E+03  0.26525338336E+03  0.51733289219E+03  0.95640475819E+02 0.  0.
         23    2    4    4    0    0 -0.16943173104E+03 -0.25856730258E+03 -0.30232914746E+03  0.44213675915E+03  0.92292139099E+02 0.  0.
          4    1    3    3  502    0  0.13165787088E+03 -0.11446525016E+03 -0.31565796519E+03  0.36066055987E+03  0.00000000000E+00 0. -1.
         -3    1    3    3    0  502  0.15184748993E+03 -0.45433778448E+02 -0.23438723558E+03  0.28294745912E+03  0.00000000000E+00 0.  1.
         13    1    5    5    0    0 -0.97922276324E+02  0.40702955906E+03  0.26840098247E+03  0.49729359692E+03  0.00000000000E+00 0.  1.
        -13    1    5    5    0    0 -0.16151353442E+02  0.11436772130E+02 -0.31475991130E+01  0.20039295270E+02  0.00000000000E+00 0. -1.
          4    1    6    6  503    0 -0.19109643185E+02  0.27515349582E+01 -0.31141717390E+02  0.36640905684E+02  0.00000000000E+00 0. -1.
         -4    1    6    6    0  503 -0.15032208786E+03 -0.26131883754E+03 -0.27118743007E+03  0.40549585347E+03  0.00000000000E+00 0.  1.
<mgrwt>
<rscale>  0 0.14916927E+04</rscale>
<asrwt>0</asrwt>
<pdfrwt beam="1">  1        2 0.78150517E-01 0.14916927E+04</pdfrwt>
<pdfrwt beam="2">  1       -1 0.16847682E+00 0.14916927E+04</pdfrwt>
<totfact> 0.16870822E+01</totfact>
</mgrwt>
</event>
<event>
12    7  0.1729738E-007  0.1691409E+04  0.7818608E-02  0.8766279E-01
         -1   -1    0    0    0  501 -0.00000000000E+00  0.00000000000E+00  0.12647519977E+04  0.12647519977E+04  0.00000000000E+00 0.  1.
          2   -1    0    0  501    0  0.00000000000E+00 -0.00000000000E+00 -0.56549900710E+03  0.56549900710E+03  0.00000000000E+00 0. -1.
         24    2    1    2    0    0 -0.21522568320E+03 -0.31679589346E+03 -0.26477878118E+03  0.47310193149E+03  0.83880282522E+02 0.  0.
        254    2    1    2    0    0  0.21522568320E+03  0.31679589346E+03  0.96403177181E+03  0.13571490733E+04  0.87510834609E+03 0.  0.
         23    2    4    4    0    0  0.41711401976E+03  0.36446577953E+03  0.26203736763E+03  0.61963407254E+03  0.91996694952E+02 0.  0.
         23    2    4    4    0    0 -0.20188833656E+03 -0.47669886073E+02  0.70199440417E+03  0.73751500080E+03  0.90005080097E+02 0.  0.
          4    1    3    3  502    0 -0.12747616650E+03 -0.21718934501E+03 -0.21566727470E+03  0.33156260041E+03  0.00000000000E+00 0. -1.
         -3    1    3    3    0  502 -0.87749516701E+02 -0.99606548445E+02 -0.49111506478E+02  0.14153933108E+03  0.00000000000E+00 0.  1.
         13    1    5    5    0    0  0.19457576221E+03  0.11486902102E+03  0.12521259950E+03  0.25832695234E+03  0.00000000000E+00 0. -1.
        -13    1    5    5    0    0  0.22253825755E+03  0.24959675851E+03  0.13682476813E+03  0.36130712020E+03  0.00000000000E+00 0.  1.
          2    1    6    6  503    0 -0.17790870611E+03 -0.39957940482E+02  0.68016769554E+03  0.70418480442E+03  0.00000000000E+00 0.  1.
         -2    1    6    6    0  503 -0.23979630450E+02 -0.77119455908E+01  0.21826708631E+02  0.33330196384E+02  0.00000000000E+00 0. -1.
<mgrwt>
<rscale>  0 0.16914089E+04</rscale>
<asrwt>0</asrwt>
<pdfrwt beam="1">  1        2 0.86999848E-01 0.16914089E+04</pdfrwt>
<pdfrwt beam="2">  1       -1 0.19457723E+00 0.16914089E+04</pdfrwt>
<totfact> 0.95087381E+00</totfact>
</mgrwt>
</event>
<event>
12    7  0.1729738E-007  0.1866012E+04  0.7818608E-02  0.8671962E-01
          2   -1    0    0  501    0  0.00000000000E+00  0.00000000000E+00  0.14750024841E+04  0.14750024841E+04  0.00000000000E+00 0. -1.
         -1   -1    0    0    0  501 -0.00000000000E+00 -0.00000000000E+00 -0.59016880899E+03  0.59016880899E+03  0.00000000000E+00 0.  1.
         24    2    1    2    0    0 -0.39836154619E+03  0.93675352462E+02  0.99031171512E+03  0.10743836098E+04  0.78203930420E+02 0.  0.
        254    2    1    2    0    0  0.39836154619E+03 -0.93675352462E+02 -0.10547803996E+03  0.99078768335E+03  0.89614040386E+03 0.  0.
         23    2    4    4    0    0  0.36362468099E+03 -0.21433441955E+03 -0.44403891848E+03  0.61879035219E+03  0.86998774726E+02 0.  0.
         23    2    4    4    0    0  0.34736865196E+02  0.12065906709E+03  0.33856087852E+03  0.37199733117E+03  0.89405176919E+02 0.  0.
          2    1    3    3  502    0 -0.36486067262E+03  0.71400867623E+02  0.83650622243E+03  0.91540376583E+03  0.00000000000E+00 0. -1.
         -1    1    3    3    0  502 -0.33500873571E+02  0.22274484838E+02  0.15380549269E+03  0.15897984396E+03  0.00000000000E+00 0.  1.
         13    1    5    5    0    0  0.18157301920E+02  0.38259814543E+01 -0.53778925415E+01  0.19319613745E+02  0.00000000000E+00 0. -1.
        -13    1    5    5    0    0  0.34546737907E+03 -0.21816040101E+03 -0.43866102594E+03  0.59947073844E+03  0.00000000000E+00 0.  1.
          1    1    6    6  503    0  0.30091606705E+02 -0.13656213135E+00  0.10189815156E+03  0.10624856109E+03  0.00000000000E+00 0. -1.
         -1    1    6    6    0  503  0.46452584914E+01  0.12079562922E+03  0.23666272696E+03  0.26574877008E+03  0.00000000000E+00 0.  1.
<mgrwt>
<rscale>  0 0.18660123E+04</rscale>
<asrwt>0</asrwt>
<pdfrwt beam="1">  1        2 0.22692346E+00 0.18660123E+04</pdfrwt>
<pdfrwt beam="2">  1       -1 0.90795202E-01 0.18660123E+04</pdfrwt>
<totfact> 0.16625258E+01</totfact>
</mgrwt>
</event>
<event>
12    7  0.1729738E-007  0.2574558E+04  0.7818608E-02  0.8376895E-01
          2   -1    0    0  501    0  0.00000000000E+00  0.00000000000E+00  0.24844856879E+04  0.24844856879E+04  0.00000000000E+00 0. -1.
         -1   -1    0    0    0  501 -0.00000000000E+00 -0.00000000000E+00 -0.66697420361E+03  0.66697420361E+03  0.00000000000E+00 0.  1.
         24    2    1    2    0    0  0.13122472506E+03 -0.61578000065E+03 -0.35219101703E+03  0.72595992320E+03  0.81082426894E+02 0.  0.
        254    2    1    2    0    0 -0.13122472506E+03  0.61578000065E+03  0.21697025013E+04  0.24254999683E+04  0.88263028183E+03 0.  0.
         23    2    4    4    0    0 -0.20226031384E+03  0.27548471238E+03  0.16796096659E+03  0.39177935309E+03  0.92082104126E+02 0.  0.
         23    2    4    4    0    0  0.71035588779E+02  0.34029528827E+03  0.20017415347E+04  0.20337206152E+04  0.90572792966E+02 0.  0.
          2    1    3    3  502    0  0.11389451304E+03 -0.34407461566E+03 -0.19430466407E+03  0.41123424434E+03  0.00000000000E+00 0. -1.
         -1    1    3    3    0  502  0.17330212020E+02 -0.27170538499E+03 -0.15788635296E+03  0.31472567886E+03  0.00000000000E+00 0.  1.
         13    1    5    5    0    0 -0.48842888402E+02  0.44484255180E+02 -0.27845857397E+01  0.66122844949E+02  0.00000000000E+00 0. -1.
        -13    1    5    5    0    0 -0.15341742543E+03  0.23100045720E+03  0.17074555233E+03  0.32565650814E+03  0.00000000000E+00 0.  1.
          3    1    6    6  503    0  0.59953226071E+02  0.25559997582E+03  0.12588848933E+04  0.12859692499E+04  0.00000000000E+00 0. -1.
         -3    1    6    6    0  503  0.11082362708E+02  0.84695312445E+02  0.74285664142E+03  0.74775136537E+03  0.00000000000E+00 0.  1.
<mgrwt>
<rscale>  0 0.25745585E+04</rscale>
<asrwt>0</asrwt>
<pdfrwt beam="1">  1        2 0.38222856E+00 0.25745585E+04</pdfrwt>
<pdfrwt beam="2">  1       -1 0.10261142E+00 0.25745585E+04</pdfrwt>
<totfact> 0.32169814E+00</totfact>
</mgrwt>
</event>
<event>
12    7  0.1729738E-007  0.1152297E+04  0.7818608E-02  0.9155667E-01
         -1   -1    0    0    0  501 -0.00000000000E+00  0.00000000000E+00  0.11169318891E+03  0.11169318891E+03  0.00000000000E+00 0.  1.
          2   -1    0    0  501    0  0.00000000000E+00 -0.00000000000E+00 -0.29719550451E+04  0.29719550451E+04  0.00000000000E+00 0. -1.
         24    2    1    2    0    0 -0.15428311593E+03 -0.22234138455E+02 -0.17556342850E+03  0.24818074926E+03  0.80458250681E+02 0.  0.
        254    2    1    2    0    0  0.15428311593E+03  0.22234138455E+02 -0.26846984277E+04  0.28354674847E+04  0.89887294580E+03 0.  0.
         23    2    4    4    0    0  0.15222155254E+03 -0.30392609945E+03 -0.22843912563E+04  0.23113618952E+04  0.91694729776E+02 0.  0.
         23    2    4    4    0    0  0.20615633845E+01  0.32616023790E+03 -0.40030717133E+03  0.52410558955E+03  0.89755705966E+02 0.  0.
          4    1    3    3  502    0 -0.69195802222E+02 -0.49441781989E+02 -0.99145811886E+02  0.13062327842E+03  0.00000000000E+00 0. -1.
         -3    1    3    3    0  502 -0.85087313706E+02  0.27207643534E+02 -0.76417616617E+02  0.11755747084E+03  0.00000000000E+00 0.  1.
         13    1    5    5    0    0  0.12513421327E+02 -0.56622902895E+02 -0.21967185214E+03  0.22719696624E+03  0.00000000000E+00 0.  1.
        -13    1    5    5    0    0  0.13970813122E+03 -0.24730319655E+03 -0.20647194042E+04  0.20841649289E+04  0.00000000000E+00 0. -1.
          1    1    6    6  503    0  0.10231001791E+02  0.28111047994E+03 -0.28685354595E+03  0.40176203424E+03  0.00000000000E+00 0. -1.
         -1    1    6    6    0  503 -0.81694384070E+01  0.45049757959E+02 -0.11345362537E+03  0.12234355531E+03  0.00000000000E+00 0.  1.
<mgrwt>
<rscale>  0 0.11522971E+04</rscale>
<asrwt>0</asrwt>
<pdfrwt beam="1">  1        2 0.45722377E+00 0.11522971E+04</pdfrwt>
<pdfrwt beam="2">  1       -1 0.17183570E-01 0.11522971E+04</pdfrwt>
<totfact> 0.54667932E+01</totfact>
</mgrwt>
</event>
<event>
12    7  0.1729738E-007  0.1853890E+04  0.7818608E-02  0.8678155E-01
         -1   -1    0    0    0  501 -0.00000000000E+00  0.00000000000E+00  0.42704539307E+03  0.42704539307E+03  0.00000000000E+00 0.  1.
          2   -1    0    0  501    0  0.00000000000E+00 -0.00000000000E+00 -0.20120278385E+04  0.20120278385E+04  0.00000000000E+00 0. -1.
         24    2    1    2    0    0  0.44845084879E+03  0.39554010660E+03 -0.10374010178E+04  0.12000587465E+04  0.79874799285E+02 0.  0.
        254    2    1    2    0    0 -0.44845084879E+03 -0.39554010660E+03 -0.54758142763E+03  0.12390144851E+04  0.93688384267E+03 0.  0.
         23    2    4    4    0    0  0.14550057398E+03 -0.47441385101E+03 -0.22741370651E+03  0.55358878017E+03  0.92220521411E+02 0.  0.
         23    2    4    4    0    0 -0.59395142277E+03  0.78873744410E+02 -0.32016772113E+03  0.68542570491E+03  0.91113484947E+02 0.  0.
          4    1    3    3  502    0  0.96937576628E+02  0.98492902190E+02 -0.30835862803E+03  0.33790943909E+03  0.00000000000E+00 0. -1.
         -3    1    3    3    0  502  0.35151327216E+03  0.29704720441E+03 -0.72904238974E+03  0.86214930737E+03  0.00000000000E+00 0.  1.
         13    1    5    5    0    0  0.90711201882E+02 -0.40730504498E+03 -0.19987239638E+03  0.46268228478E+03  0.00000000000E+00 0. -1.
        -13    1    5    5    0    0  0.54789372098E+02 -0.67108806032E+02 -0.27541310123E+02  0.90906495396E+02  0.00000000000E+00 0.  1.
          2    1    6    6  503    0 -0.37413395811E+03  0.93737511399E+02 -0.20015926785E+03  0.43454191071E+03  0.00000000000E+00 0. -1.
         -2    1    6    6    0  503 -0.21981746466E+03 -0.14863766989E+02 -0.12000845328E+03  0.25088379421E+03  0.00000000000E+00 0.  1.
<mgrwt>
<rscale>  0 0.18538902E+04</rscale>
<asrwt>0</asrwt>
<pdfrwt beam="1">  1        2 0.30954274E+00 0.18538902E+04</pdfrwt>
<pdfrwt beam="2">  1       -1 0.65699291E-01 0.18538902E+04</pdfrwt>
<totfact> 0.16537704E+01</totfact>
</mgrwt>
</event>
<event>
12    7  0.1729738E-007  0.1640294E+04  0.7818608E-02  0.8796169E-01
          2   -1    0    0  501    0  0.00000000000E+00  0.00000000000E+00  0.10168543196E+04  0.10168543196E+04  0.00000000000E+00 0. -1.
         -1   -1    0    0    0  501 -0.00000000000E+00 -0.00000000000E+00 -0.66149196549E+03  0.66149196549E+03  0.00000000000E+00 0.  1.
         24    2    1    2    0    0  0.84263159483E+02  0.11897995526E+02  0.70031716955E+03  0.71013008572E+03  0.81232741825E+02 0.  0.
        254    2    1    2    0    0 -0.84263159483E+02 -0.11897995526E+02 -0.34495481544E+03  0.96821619937E+03  0.90067027356E+03 0.  0.
         23    2    4    4    0    0 -0.36941425006E+03  0.24121026583E+02 -0.49989151905E+03  0.62950278875E+03  0.96610134845E+02 0.  0.
         23    2    4    4    0    0  0.28515109057E+03 -0.36019022109E+02  0.15493670361E+03  0.33871341062E+03  0.90071516028E+02 0.  0.
          2    1    3    3  502    0  0.35161102174E+02 -0.10406202135E+02  0.53464633242E+03  0.53590231659E+03  0.00000000000E+00 0. -1.
         -1    1    3    3    0  502  0.49102057310E+02  0.22304197662E+02  0.16567083712E+03  0.17422776914E+03  0.00000000000E+00 0.  1.
         13    1    5    5    0    0 -0.60678708827E+02  0.40717674410E+02 -0.10633701931E+03  0.12902478983E+03  0.00000000000E+00 0.  1.
        -13    1    5    5    0    0 -0.30873554123E+03 -0.16596647828E+02 -0.39355449974E+03  0.50047799892E+03  0.00000000000E+00 0. -1.
          1    1    6    6  503    0  0.20331485250E+03  0.16319756953E+02  0.10107827366E+03  0.22764024495E+03  0.00000000000E+00 0. -1.
         -1    1    6    6    0  503  0.81836238074E+02 -0.52338779062E+02  0.53858429950E+02  0.11107316567E+03  0.00000000000E+00 0.  1.
<mgrwt>
<rscale>  0 0.16402938E+04</rscale>
<asrwt>0</asrwt>
<pdfrwt beam="1">  1        2 0.15643913E+00 0.16402938E+04</pdfrwt>
<pdfrwt beam="2">  1       -1 0.10176800E+00 0.16402938E+04</pdfrwt>
<totfact> 0.24535268E+01</totfact>
</mgrwt>
</event>
<event>
12    7  0.1729738E-007  0.2748535E+04  0.7818608E-02  0.8319427E-01
         -1   -1    0    0    0  501 -0.00000000000E+00  0.00000000000E+00  0.78202930035E+03  0.78202930035E+03  0.00000000000E+00 0.  1.
          2   -1    0    0  501    0  0.00000000000E+00 -0.00000000000E+00 -0.24150132497E+04  0.24150132497E+04  0.00000000000E+00 0. -1.
         24    2    1    2    0    0  0.10601528252E+04  0.62019569144E+03 -0.81339005962E+03  0.14752516389E+04  0.78722936392E+02 0.  0.
        254    2    1    2    0    0 -0.10601528252E+04 -0.62019569144E+03 -0.81959388971E+03  0.17217909111E+04  0.88558629676E+03 0.  0.
         23    2    4    4    0    0 -0.80037973172E+03 -0.68406467563E+01 -0.26176449710E+03  0.84816515393E+03  0.10103943287E+03 0.  0.
         23    2    4    4    0    0 -0.25977309346E+03 -0.61335504468E+03 -0.55782939261E+03  0.87362575715E+03  0.91443213930E+02 0.  0.
          2    1    3    3  502    0  0.10034279922E+04  0.57671539484E+03 -0.78439824382E+03  0.13981233805E+04  0.00000000000E+00 0. -1.
         -1    1    3    3    0  502  0.56724832955E+02  0.43480296592E+02 -0.28991815797E+02  0.77128258432E+02  0.00000000000E+00 0.  1.
         13    1    5    5    0    0 -0.25841023808E+03 -0.49366542767E+02 -0.81298486200E+02  0.27535858538E+03  0.00000000000E+00 0.  1.
        -13    1    5    5    0    0 -0.54196949365E+03  0.42525896011E+02 -0.18046601090E+03  0.57280656854E+03  0.00000000000E+00 0. -1.
          2    1    6    6  503    0 -0.25329647795E+03 -0.60767242336E+03 -0.53211214391E+03  0.84650352247E+03  0.00000000000E+00 0. -1.
         -2    1    6    6    0  503 -0.64766155120E+01 -0.56826213213E+01 -0.25717248694E+02  0.27122234678E+02  0.00000000000E+00 0.  1.
<mgrwt>
<rscale>  0 0.27485350E+04</rscale>
<asrwt>0</asrwt>
<pdfrwt beam="1">  1        2 0.37154049E+00 0.27485350E+04</pdfrwt>
<pdfrwt beam="2">  1       -1 0.12031220E+00 0.27485350E+04</pdfrwt>
<totfact> 0.23815186E+00</totfact>
</mgrwt>
</event>
<event>
12    7  0.1729738E-007  0.1276624E+04  0.7818608E-02  0.9048311E-01
         -1   -1    0    0    0  501 -0.00000000000E+00  0.00000000000E+00  0.20632178947E+03  0.20632178947E+03  0.00000000000E+00 0.  1.
          2   -1    0    0  501    0  0.00000000000E+00 -0.00000000000E+00 -0.19747903418E+04  0.19747903418E+04  0.00000000000E+00 0. -1.
         24    2    1    2    0    0  0.17383927164E+03  0.22199732031E+03 -0.63625366285E+03  0.70059169449E+03  0.80666574882E+02 0.  0.
        254    2    1    2    0    0 -0.17383927164E+03 -0.22199732031E+03 -0.11322148895E+04  0.14805204368E+04  0.91133270828E+03 0.  0.
         23    2    4    4    0    0 -0.29941719406E+03 -0.49031945767E+02  0.82550987283E+01  0.31684857384E+03  0.90940003763E+02 0.  0.
         23    2    4    4    0    0  0.12557792242E+03 -0.17296537454E+03 -0.11404699882E+04  0.11636718629E+04  0.88167880891E+02 0.  0.
          4    1    3    3  502    0  0.18082625246E+03  0.19971781034E+03 -0.57336407367E+03  0.63350745719E+03  0.00000000000E+00 0. -1.
         -3    1    3    3    0  502 -0.69869808236E+01  0.22279509971E+02 -0.62889589186E+02  0.67084237296E+02  0.00000000000E+00 0.  1.
         13    1    5    5    0    0 -0.23404818295E+03 -0.52382195016E+01  0.27863689571E+02  0.23575914846E+03  0.00000000000E+00 0. -1.
        -13    1    5    5    0    0 -0.65369011114E+02 -0.43793726265E+02 -0.19608590843E+02  0.81089425383E+02  0.00000000000E+00 0.  1.
          2    1    6    6  503    0  0.69808778053E+02 -0.14262612468E+03 -0.65027046818E+03  0.66937818811E+03  0.00000000000E+00 0. -1.
         -2    1    6    6    0  503  0.55769144368E+02 -0.30339249868E+02 -0.49019952002E+03  0.49429367483E+03  0.00000000000E+00 0.  1.
<mgrwt>
<rscale>  0 0.12766241E+04</rscale>
<asrwt>0</asrwt>
<pdfrwt beam="1">  1        2 0.30381390E+00 0.12766241E+04</pdfrwt>
<pdfrwt beam="2">  1       -1 0.31741813E-01 0.12766241E+04</pdfrwt>
<totfact> 0.71340703E+01</totfact>
</mgrwt>
</event>
<event>
12    7  0.1729738E-007  0.1058830E+04  0.7818608E-02  0.9246275E-01
          2   -1    0    0  501    0  0.00000000000E+00  0.00000000000E+00  0.81350440991E+03  0.81350440991E+03  0.00000000000E+00 0. -1.
         -1   -1    0    0    0  501 -0.00000000000E+00 -0.00000000000E+00 -0.34453428278E+03  0.34453428278E+03  0.00000000000E+00 0.  1.
         24    2    1    2    0    0  0.37928319636E+02  0.10016095856E+03  0.20066614406E+03  0.23833194286E+03  0.71164868894E+02 0.  0.
        254    2    1    2    0    0 -0.37928319636E+02 -0.10016095856E+03  0.26830398307E+03  0.91970674983E+03  0.87315674612E+03 0.  0.
         23    2    4    4    0    0 -0.26856785769E+03  0.22227433668E+03  0.35255543412E+03  0.50424086570E+03  0.91809267387E+02 0.  0.
         23    2    4    4    0    0  0.23063953806E+03 -0.32243529524E+03 -0.84251451054E+02  0.41546588413E+03  0.91402832250E+02 0.  0.
          2    1    3    3  502    0  0.44497961580E+02  0.34516516863E+02  0.12990964928E+03  0.14159087364E+03  0.00000000000E+00 0. -1.
         -1    1    3    3    0  502 -0.65696419435E+01  0.65644441692E+02  0.70756494784E+02  0.96741069223E+02  0.00000000000E+00 0.  1.
         13    1    5    5    0    0 -0.46740550669E+02  0.91039772800E+02  0.11145318545E+03  0.15131005206E+03  0.00000000000E+00 0. -1.
        -13    1    5    5    0    0 -0.22182730702E+03  0.13123456388E+03  0.24110224867E+03  0.35293081363E+03  0.00000000000E+00 0.  1.
          2    1    6    6  503    0  0.14986177850E+03 -0.18649635961E+03 -0.66921220714E+01  0.23934124028E+03  0.00000000000E+00 0. -1.
         -2    1    6    6    0  503  0.80777759557E+02 -0.13593893563E+03 -0.77559328982E+02  0.17612464385E+03  0.00000000000E+00 0.  1.
<mgrwt>
<rscale>  0 0.10588298E+04</rscale>
<asrwt>0</asrwt>
<pdfrwt beam="1">  1        2 0.12515452E+00 0.10588298E+04</pdfrwt>
<pdfrwt beam="2">  1       -1 0.53005275E-01 0.10588298E+04</pdfrwt>
<totfact> 0.13728004E+02</totfact>
</mgrwt>
</event>
<event>
12    7  0.1729738E-007  0.2814186E+04  0.7818608E-02  0.8298878E-01
          4   -1    0    0  501    0  0.00000000000E+00  0.00000000000E+00  0.88268607855E+03  0.88268607855E+03  0.00000000000E+00 0. -1.
         -3   -1    0    0    0  501 -0.00000000000E+00 -0.00000000000E+00 -0.22430512415E+04  0.22430512415E+04  0.00000000000E+00 0.  1.
         24    2    1    2    0    0  0.14418178593E+03 -0.24570261135E+03  0.75373410673E+03  0.81031975983E+03  0.85702093879E+02 0.  0.
        254    2    1    2    0    0 -0.14418178593E+03  0.24570261135E+03 -0.21140992697E+04  0.23154175603E+04  0.90032471670E+03 0.  0.
         23    2    4    4    0    0  0.24081096653E+03 -0.37018524113E+02 -0.15439856768E+04  0.15660463484E+04  0.96172255308E+02 0.  0.
         23    2    4    4    0    0 -0.38499275246E+03  0.28272113546E+03 -0.57011359295E+03  0.74937121181E+03  0.91526194833E+02 0.  0.
          2    1    3    3  502    0  0.74002643204E+02 -0.66920658553E+02  0.18741408642E+03  0.21231769952E+03  0.00000000000E+00 0. -1.
         -1    1    3    3    0  502  0.70179142726E+02 -0.17878195279E+03  0.56632002031E+03  0.59800206030E+03  0.00000000000E+00 0.  1.
         13    1    5    5    0    0  0.14087188932E+03 -0.10577379549E+02 -0.11531085628E+04  0.11617297998E+04  0.00000000000E+00 0. -1.
        -13    1    5    5    0    0  0.99939077214E+02 -0.26441144564E+02 -0.39087711398E+03  0.40431654865E+03  0.00000000000E+00 0.  1.
          3    1    6    6  503    0 -0.36828126018E+03  0.28906128532E+03 -0.54392035276E+03  0.71766068822E+03  0.00000000000E+00 0. -1.
         -3    1    6    6    0  503 -0.16711492282E+02 -0.63401498642E+01 -0.26193240197E+02  0.31710523594E+02  0.00000000000E+00 0.  1.
<mgrwt>
<rscale>  0 0.28141856E+04</rscale>
<asrwt>0</asrwt>
<pdfrwt beam="1">  1        4 0.13579786E+00 0.28141856E+04</pdfrwt>
<pdfrwt beam="2">  1       -3 0.34508481E+00 0.28141856E+04</pdfrwt>
<totfact> 0.16326620E-02</totfact>
</mgrwt>
</event>
<event>
12    7  0.1729738E-007  0.1671890E+04  0.7818608E-02  0.8777561E-01
         -1   -1    0    0    0  501 -0.00000000000E+00  0.00000000000E+00  0.37591619324E+03  0.37591619324E+03  0.00000000000E+00 0.  1.
          2   -1    0    0  501    0  0.00000000000E+00 -0.00000000000E+00 -0.18589365983E+04  0.18589365983E+04  0.00000000000E+00 0. -1.
         24    2    1    2    0    0 -0.16756081716E+03 -0.50913756169E+02  0.21716187251E+03  0.29102377523E+03  0.82865679649E+02 0.  0.
        254    2    1    2    0    0  0.16756081716E+03  0.50913756169E+02 -0.17001822775E+04  0.19438290163E+04  0.92584157915E+03 0.  0.
         23    2    4    4    0    0  0.33800364769E+03 -0.35062147727E+03 -0.84609741448E+03  0.98052174136E+03  0.91433934156E+02 0.  0.
         23    2    4    4    0    0 -0.17044283053E+03  0.40153523344E+03 -0.85408486305E+03  0.96330727492E+03  0.90656772791E+02 0.  0.
          2    1    3    3  502    0 -0.40645617560E+01 -0.15141590852E+02  0.57930628126E+02  0.60014549160E+02  0.00000000000E+00 0. -1.
         -1    1    3    3    0  502 -0.16349625540E+03 -0.35772165318E+02  0.15923124438E+03  0.23100922607E+03  0.00000000000E+00 0.  1.
         13    1    5    5    0    0  0.35045633951E+02 -0.15732192228E+02 -0.33958537140E+02  0.51272610388E+02  0.00000000000E+00 0. -1.
        -13    1    5    5    0    0  0.30295801374E+03 -0.33488928504E+03 -0.81213887734E+03  0.92924913097E+03  0.00000000000E+00 0.  1.
          3    1    6    6  503    0 -0.11425071737E+03  0.18140211897E+03 -0.47891263120E+03  0.52470683578E+03  0.00000000000E+00 0. -1.
         -3    1    6    6    0  503 -0.56192113160E+02  0.22013311447E+03 -0.37517223185E+03  0.43860043914E+03  0.00000000000E+00 0.  1.
<mgrwt>
<rscale>  0 0.16718904E+04</rscale>
<asrwt>0</asrwt>
<pdfrwt beam="1">  1        2 0.28599025E+00 0.16718904E+04</pdfrwt>
<pdfrwt beam="2">  1       -1 0.57833260E-01 0.16718904E+04</pdfrwt>
<totfact> 0.26327852E+01</totfact>
</mgrwt>
</event>
<event>
12    7  0.1729738E-007  0.1712805E+04  0.7818608E-02  0.8754095E-01
         -1   -1    0    0    0  501 -0.00000000000E+00  0.00000000000E+00  0.36836349595E+03  0.36836349595E+03  0.00000000000E+00 0.  1.
          2   -1    0    0  501    0  0.00000000000E+00 -0.00000000000E+00 -0.19910359672E+04  0.19910359672E+04  0.00000000000E+00 0. -1.
         24    2    1    2    0    0 -0.19654734616E+03 -0.46877252803E+03 -0.78499205070E+03  0.93855611360E+03  0.79350591607E+02 0.  0.
        254    2    1    2    0    0  0.19654734616E+03  0.46877252803E+03 -0.83768042058E+03  0.14208433496E+04  0.10289357583E+04 0.  0.
         23    2    4    4    0    0 -0.14119371811E+03  0.15828497094E+03  0.18555525637E+03  0.29585568019E+03  0.90055717599E+02 0.  0.
         23    2    4    4    0    0  0.33774106427E+03  0.31048755709E+03 -0.10232356769E+04  0.11249876694E+04  0.90080275981E+02 0.  0.
          2    1    3    3  502    0 -0.18005150897E+03 -0.44822142129E+03 -0.70717460448E+03  0.85639763522E+03  0.00000000000E+00 0. -1.
         -1    1    3    3    0  502 -0.16495837192E+02 -0.20551106733E+02 -0.77817446224E+02  0.82158478378E+02  0.00000000000E+00 0.  1.
         13    1    5    5    0    0 -0.13679731045E+03  0.11091261363E+03  0.11352089687E+03  0.20952829411E+03  0.00000000000E+00 0. -1.
        -13    1    5    5    0    0 -0.43964076618E+01  0.47372357307E+02  0.72034359502E+02  0.86327386072E+02  0.00000000000E+00 0.  1.
          4    1    6    6  503    0  0.20201283063E+02  0.55500380561E+02 -0.15872616687E+03  0.16935873207E+03  0.00000000000E+00 0. -1.
         -4    1    6    6    0  503  0.31753978121E+03  0.25498717653E+03 -0.86450951008E+03  0.95562893733E+03  0.00000000000E+00 0.  1.
<mgrwt>
<rscale>  0 0.17128047E+04</rscale>
<asrwt>0</asrwt>
<pdfrwt beam="1">  1        2 0.30631323E+00 0.17128047E+04</pdfrwt>
<pdfrwt beam="2">  1       -1 0.56671306E-01 0.17128047E+04</pdfrwt>
<totfact> 0.23063246E+01</totfact>
</mgrwt>
</event>
<event>
12    7  0.1729738E-007  0.2457036E+04  0.7818608E-02  0.8418454E-01
          4   -1    0    0  501    0  0.00000000000E+00  0.00000000000E+00  0.55734133453E+03  0.55734133453E+03  0.00000000000E+00 0. -1.
         -3   -1    0    0    0  501 -0.00000000000E+00 -0.00000000000E+00 -0.27079572487E+04  0.27079572487E+04  0.00000000000E+00 0.  1.
         24    2    1    2    0    0 -0.10405491126E+04 -0.19356082602E+03 -0.98708673777E+03  0.14501034564E+04  0.90838082831E+02 0.  0.
        254    2    1    2    0    0  0.10405491126E+04  0.19356082602E+03 -0.11635291764E+04  0.18151951268E+04  0.90604909092E+03 0.  0.
         23    2    4    4    0    0  0.36071889745E+03  0.43561585388E+03 -0.19803683332E+03  0.60630814184E+03  0.92258768604E+02 0.  0.
         23    2    4    4    0    0  0.67983021513E+03 -0.24205502786E+03 -0.96549234307E+03  0.12088869850E+04  0.92046293132E+02 0.  0.
          2    1    3    3  502    0 -0.33860503154E+03 -0.35325286641E+02 -0.36222379294E+03  0.49709890307E+03  0.00000000000E+00 0. -1.
         -1    1    3    3    0  502 -0.70194408103E+03 -0.15823553938E+03 -0.62486294483E+03  0.95300455332E+03  0.00000000000E+00 0.  1.
         13    1    5    5    0    0  0.31234524118E+03  0.33406713022E+03 -0.18394764534E+03  0.49294739416E+03  0.00000000000E+00 0. -1.
        -13    1    5    5    0    0  0.48373656271E+02  0.10154872365E+03 -0.14089187980E+02  0.11336074768E+03  0.00000000000E+00 0.  1.
          1    1    6    6  503    0  0.59944939865E+03 -0.24150594320E+03 -0.87598118112E+03  0.10885806042E+04  0.00000000000E+00 0. -1.
         -1    1    6    6    0  503  0.80380816481E+02 -0.54908466099E+00 -0.89511161953E+02  0.12030638082E+03  0.00000000000E+00 0.  1.
<mgrwt>
<rscale>  0 0.24570360E+04</rscale>
<asrwt>0</asrwt>
<pdfrwt beam="1">  1        4 0.85744820E-01 0.24570360E+04</pdfrwt>
<pdfrwt beam="2">  1       -3 0.41660881E+00 0.24570360E+04</pdfrwt>
<totfact> 0.20785492E-02</totfact>
</mgrwt>
</event>
<event>
12    7  0.1729738E-007  0.1409759E+04  0.7818608E-02  0.8946785E-01
         -1   -1    0    0    0  501 -0.00000000000E+00  0.00000000000E+00  0.38757902971E+03  0.38757902971E+03  0.00000000000E+00 0.  1.
          2   -1    0    0  501    0  0.00000000000E+00 -0.00000000000E+00 -0.12819454538E+04  0.12819454538E+04  0.00000000000E+00 0. -1.
         24    2    1    2    0    0  0.31091877254E+03 -0.25872460013E+03 -0.34016883595E+03  0.53456692197E+03  0.80237492995E+02 0.  0.
        254    2    1    2    0    0 -0.31091877254E+03  0.25872460013E+03 -0.55419758813E+03  0.11349575615E+04  0.90409335689E+03 0.  0.
         23    2    4    4    0    0  0.96073175428E+02 -0.16019982456E+03 -0.49939942620E+03  0.54078632971E+03  0.90310734076E+02 0.  0.
         23    2    4    4    0    0 -0.40699194796E+03  0.41892442469E+03 -0.54798161927E+02  0.59417123182E+03  0.94321232290E+02 0.  0.
          2    1    3    3  502    0  0.15907149019E+03 -0.16886861074E+03 -0.22927242378E+03  0.32616896080E+03  0.00000000000E+00 0. -1.
         -1    1    3    3    0  502  0.15184728235E+03 -0.89855989398E+02 -0.11089641216E+03  0.20839796117E+03  0.00000000000E+00 0.  1.
         13    1    5    5    0    0  0.95827871821E+02 -0.73539081291E+02 -0.29537235731E+03  0.31911723075E+03  0.00000000000E+00 0. -1.
        -13    1    5    5    0    0  0.24530360743E+00 -0.86660743269E+02 -0.20402706889E+03  0.22166909896E+03  0.00000000000E+00 0.  1.
          4    1    6    6  503    0 -0.45836897850E+02  0.37999154518E+02 -0.34607607938E+02  0.68866853245E+02  0.00000000000E+00 0. -1.
         -4    1    6    6    0  503 -0.36115505011E+03  0.38092527018E+03 -0.20190553989E+02  0.52530437858E+03  0.00000000000E+00 0.  1.
<mgrwt>
<rscale>  0 0.14097591E+04</rscale>
<asrwt>0</asrwt>
<pdfrwt beam="1">  1        2 0.19722238E+00 0.14097591E+04</pdfrwt>
<pdfrwt beam="2">  1       -1 0.59627544E-01 0.14097591E+04</pdfrwt>
<totfact> 0.53550780E+01</totfact>
</mgrwt>
</event>
<event>
12    7  0.1729738E-007  0.9905748E+03  0.7818608E-02  0.9318943E-01
          2   -1    0    0  501    0  0.00000000000E+00  0.00000000000E+00  0.93101718570E+03  0.93101718570E+03  0.00000000000E+00 0. -1.
         -1   -1    0    0    0  501 -0.00000000000E+00 -0.00000000000E+00 -0.26348556390E+03  0.26348556390E+03  0.00000000000E+00 0.  1.
         24    2    1    2    0    0  0.71482441730E+01  0.29516129787E+02  0.53903994472E+02  0.10257610948E+03  0.81816369415E+02 0.  0.
        254    2    1    2    0    0 -0.71482441730E+01 -0.29516129787E+02  0.61362762733E+03  0.10919266401E+04  0.90268633704E+03 0.  0.
         23    2    4    4    0    0 -0.11636841590E+03  0.38160904211E+03  0.10432546215E+03  0.42223854386E+03  0.90744237422E+02 0.  0.
         23    2    4    4    0    0  0.10922017172E+03 -0.41112517190E+03  0.50930216518E+03  0.66968809626E+03  0.90224708021E+02 0.  0.
          2    1    3    3  502    0 -0.16398154337E+01  0.57633943622E+02  0.32757921281E+02  0.66313210289E+02  0.00000000000E+00 0. -1.
         -1    1    3    3    0  502  0.87880596067E+01 -0.28117813836E+02  0.21146073191E+02  0.36262899194E+02  0.00000000000E+00 0.  1.
         13    1    5    5    0    0 -0.11914634186E+03  0.24432101927E+03  0.70449410830E+02  0.28080550337E+03  0.00000000000E+00 0. -1.
        -13    1    5    5    0    0  0.27779259633E+01  0.13728802285E+03  0.33876051318E+02  0.14143304049E+03  0.00000000000E+00 0.  1.
          2    1    6    6  503    0  0.60039230624E+02 -0.10855362609E+03  0.19124418457E+03  0.22795380471E+03  0.00000000000E+00 0. -1.
         -2    1    6    6    0  503  0.49180941100E+02 -0.30257154581E+03  0.31805798061E+03  0.44173429155E+03  0.00000000000E+00 0.  1.
<mgrwt>
<rscale>  0 0.99057476E+03</rscale>
<asrwt>0</asrwt>
<pdfrwt beam="1">  1        2 0.14323341E+00 0.99057476E+03</pdfrwt>
<pdfrwt beam="2">  1       -1 0.40536241E-01 0.99057476E+03</pdfrwt>
<totfact> 0.18905817E+02</totfact>
</mgrwt>
</event>
<event>
12    7  0.1729738E-007  0.3318311E+04  0.7818608E-02  0.8158252E-01
          2   -1    0    0  501    0  0.00000000000E+00  0.00000000000E+00  0.20770095106E+04  0.20770095106E+04  0.00000000000E+00 0. -1.
         -1   -1    0    0    0  501 -0.00000000000E+00 -0.00000000000E+00 -0.13253653806E+04  0.13253653806E+04  0.00000000000E+00 0.  1.
         24    2    1    2    0    0  0.87302130664E+03 -0.12215032589E+03 -0.95177122712E+03  0.12997154607E+04  0.79403438826E+02 0.  0.
        254    2    1    2    0    0 -0.87302130664E+03  0.12215032589E+03  0.17034153570E+04  0.21026594305E+04  0.86166460883E+03 0.  0.
         23    2    4    4    0    0  0.10886805346E+03 -0.92223188964E+01  0.15546673908E+02  0.14324749743E+03  0.91328211523E+02 0.  0.
         23    2    4    4    0    0 -0.98188936011E+03  0.13137264478E+03  0.16878686831E+04  0.19594119331E+04  0.95020759136E+02 0.  0.
          4    1    3    3  502    0  0.14862034582E+03 -0.49646018160E+02 -0.18339147184E+03  0.24121601575E+03  0.00000000000E+00 0. -1.
         -3    1    3    3    0  502  0.72440096082E+03 -0.72504307728E+02 -0.76837975528E+03  0.10584994450E+04  0.00000000000E+00 0.  1.
         13    1    5    5    0    0  0.88385168350E+01 -0.37342542331E+02  0.15877013087E+01  0.38407104070E+02  0.00000000000E+00 0.  1.
        -13    1    5    5    0    0  0.10002953663E+03  0.28120223435E+02  0.13958972599E+02  0.10484039336E+03  0.00000000000E+00 0. -1.
          4    1    6    6  503    0 -0.70335853590E+03  0.55492811329E+02  0.12361575574E+04  0.14233334778E+04  0.00000000000E+00 0. -1.
         -4    1    6    6    0  503 -0.27853082420E+03  0.75879833455E+02  0.45171112567E+03  0.53607845528E+03  0.00000000000E+00 0.  1.
<mgrwt>
<rscale>  0 0.33183107E+04</rscale>
<asrwt>0</asrwt>
<pdfrwt beam="1">  1        2 0.31953993E+00 0.33183107E+04</pdfrwt>
<pdfrwt beam="2">  1       -1 0.20390236E+00 0.33183107E+04</pdfrwt>
<totfact> 0.81215476E-01</totfact>
</mgrwt>
</event>
<event>
12    7  0.1729738E-007  0.1761245E+04  0.7818608E-02  0.8727185E-01
         -1   -1    0    0    0  501 -0.00000000000E+00  0.00000000000E+00  0.58686241041E+03  0.58686241041E+03  0.00000000000E+00 0.  1.
          2   -1    0    0  501    0  0.00000000000E+00 -0.00000000000E+00 -0.13214266418E+04  0.13214266418E+04  0.00000000000E+00 0. -1.
         24    2    1    2    0    0 -0.42594737779E+03 -0.49835407628E+03 -0.25403325726E+03  0.70748548587E+03  0.78834401908E+02 0.  0.
        254    2    1    2    0    0  0.42594737779E+03  0.49835407628E+03 -0.48053097412E+03  0.12008035663E+04  0.88387286067E+03 0.  0.
         23    2    4    4    0    0  0.64046409697E+03  0.32524330357E+03 -0.54169784261E+03  0.90378437596E+03  0.86094015583E+02 0.  0.
         23    2    4    4    0    0 -0.21451671918E+03  0.17311077271E+03  0.61166868487E+02  0.29701919037E+03  0.92164262132E+02 0.  0.
          4    1    3    3  502    0 -0.25332588805E+03 -0.31639621088E+03 -0.19517359240E+03  0.44985919907E+03  0.00000000000E+00 0. -1.
         -3    1    3    3    0  502 -0.17262148975E+03 -0.18195786540E+03 -0.58859664858E+02  0.25762628680E+03  0.00000000000E+00 0.  1.
         13    1    5    5    0    0  0.30501382142E+03  0.12868096445E+03 -0.29429131729E+03  0.44294424176E+03  0.00000000000E+00 0. -1.
        -13    1    5    5    0    0  0.33545027555E+03  0.19656233912E+03 -0.24740652531E+03  0.46084013420E+03  0.00000000000E+00 0.  1.
          3    1    6    6  503    0 -0.50866290698E+02  0.96049717061E+02  0.10630080061E+02  0.10920588940E+03  0.00000000000E+00 0. -1.
         -3    1    6    6    0  503 -0.16365042848E+03  0.77061055650E+02  0.50536788425E+02  0.18781330098E+03  0.00000000000E+00 0.  1.
<mgrwt>
<rscale>  0 0.17612446E+04</rscale>
<asrwt>0</asrwt>
<pdfrwt beam="1">  1        2 0.20329640E+00 0.17612446E+04</pdfrwt>
<pdfrwt beam="2">  1       -1 0.90286526E-01 0.17612446E+04</pdfrwt>
<totfact> 0.20799997E+01</totfact>
</mgrwt>
</event>
<event>
12    7  0.1729738E-007  0.2622017E+04  0.7818608E-02  0.8360761E-01
         -1   -1    0    0    0  501 -0.00000000000E+00  0.00000000000E+00  0.15102757106E+04  0.15102757106E+04  0.00000000000E+00 0.  1.
          2   -1    0    0  501    0  0.00000000000E+00 -0.00000000000E+00 -0.11380327847E+04  0.11380327847E+04  0.00000000000E+00 0. -1.
         24    2    1    2    0    0  0.21981366331E+03  0.76037699028E+03  0.10170956986E+04  0.12911930538E+04  0.78769460970E+02 0.  0.
        254    2    1    2    0    0 -0.21981366331E+03 -0.76037699028E+03 -0.64485277279E+03  0.13571154415E+04  0.89411185494E+03 0.  0.
         23    2    4    4    0    0  0.65777024452E+02 -0.18370324020E+03  0.19553759409E+03  0.29470785586E+03  0.10268530664E+03 0.  0.
         23    2    4    4    0    0 -0.28559068777E+03 -0.57667375009E+03 -0.84039036687E+03  0.10624075857E+04  0.91319518120E+02 0.  0.
          2    1    3    3  502    0  0.72586905627E+02  0.20605184964E+03  0.22902947123E+03  0.31651338407E+03  0.00000000000E+00 0. -1.
         -1    1    3    3    0  502  0.14722675769E+03  0.55432514065E+03  0.78806622741E+03  0.97467966969E+03  0.00000000000E+00 0.  1.
         13    1    5    5    0    0  0.19772406022E+02 -0.17090519916E+03  0.14303291909E+03  0.22373634279E+03  0.00000000000E+00 0. -1.
        -13    1    5    5    0    0  0.46004618430E+02 -0.12798041033E+02  0.52504674999E+02  0.70971513073E+02  0.00000000000E+00 0.  1.
          3    1    6    6  503    0 -0.27539790235E+03 -0.48562104796E+03 -0.72717441978E+03  0.91676302479E+03  0.00000000000E+00 0. -1.
         -3    1    6    6    0  503 -0.10192785416E+02 -0.91052702130E+02 -0.11321594709E+03  0.14564456089E+03  0.00000000000E+00 0.  1.
<mgrwt>
<rscale>  0 0.26220170E+04</rscale>
<asrwt>0</asrwt>
<pdfrwt beam="1">  1        2 0.17508197E+00 0.26220170E+04</pdfrwt>
<pdfrwt beam="2">  1       -1 0.23235011E+00 0.26220170E+04</pdfrwt>
<totfact> 0.18919211E+00</totfact>
</mgrwt>
</event>
<event>
12    7  0.1729738E-007  0.1545200E+04  0.7818608E-02  0.8854939E-01
          2   -1    0    0  501    0  0.00000000000E+00  0.00000000000E+00  0.14256906651E+04  0.14256906651E+04  0.00000000000E+00 0. -1.
         -1   -1    0    0    0  501 -0.00000000000E+00 -0.00000000000E+00 -0.41868199115E+03  0.41868199115E+03  0.00000000000E+00 0.  1.
         24    2    1    2    0    0 -0.22722844066E+03  0.12335098472E+03  0.90235573720E+03  0.94199593578E+03  0.79134296589E+02 0.  0.
        254    2    1    2    0    0  0.22722844066E+03 -0.12335098472E+03  0.10465293670E+03  0.90237672042E+03  0.85818603969E+03 0.  0.
         23    2    4    4    0    0  0.43507903225E+03  0.72057165426E+02  0.30416192202E+03  0.54312511928E+03  0.89355587385E+02 0.  0.
         23    2    4    4    0    0 -0.20785059159E+03 -0.19540815014E+03 -0.19950898532E+03  0.35925160114E+03  0.88722399258E+02 0.  0.
          4    1    3    3  502    0 -0.19984790071E+03  0.11381142885E+03  0.68183247956E+03  0.71957470421E+03  0.00000000000E+00 0. -1.
         -3    1    3    3    0  502 -0.27380539951E+02  0.95395558655E+01  0.22052325764E+03  0.22242123158E+03  0.00000000000E+00 0.  1.
         13    1    5    5    0    0  0.25517924798E+03 -0.23453420141E+01  0.16689119324E+03  0.30491739801E+03  0.00000000000E+00 0.  1.
        -13    1    5    5    0    0  0.17989978426E+03  0.74402507440E+02  0.13727072878E+03  0.23820772127E+03  0.00000000000E+00 0. -1.
          3    1    6    6  503    0  0.77935008910E+01 -0.85288987183E+01 -0.90597467992E+00  0.11588854974E+02  0.00000000000E+00 0. -1.
         -3    1    6    6    0  503 -0.21564409248E+03 -0.18687925142E+03 -0.19860301064E+03  0.34766274616E+03  0.00000000000E+00 0.  1.
<mgrwt>
<rscale>  0 0.15452003E+04</rscale>
<asrwt>0</asrwt>
<pdfrwt beam="1">  1        2 0.21933702E+00 0.15452003E+04</pdfrwt>
<pdfrwt beam="2">  1       -1 0.64412615E-01 0.15452003E+04</pdfrwt>
<totfact> 0.37519774E+01</totfact>
</mgrwt>
</event>
<event>
12    7  0.1729738E-007  0.1278383E+04  0.7818608E-02  0.9046885E-01
         -1   -1    0    0    0  501 -0.00000000000E+00  0.00000000000E+00  0.40610636782E+03  0.40610636782E+03  0.00000000000E+00 0.  1.
          2   -1    0    0  501    0  0.00000000000E+00 -0.00000000000E+00 -0.10060560305E+04  0.10060560305E+04  0.00000000000E+00 0. -1.
         24    2    1    2    0    0  0.31342957410E+03 -0.11142357006E+02 -0.10272717858E+03  0.33816703063E+03  0.73768674542E+02 0.  0.
        254    2    1    2    0    0 -0.31342957410E+03  0.11142357006E+02 -0.49722248405E+03  0.10739953677E+04  0.89881789093E+03 0.  0.
         23    2    4    4    0    0  0.10778260416E+03 -0.26882239439E+03 -0.46984606033E+03  0.55958184074E+03  0.92162609534E+02 0.  0.
         23    2    4    4    0    0 -0.42121217826E+03  0.27996475139E+03 -0.27376423718E+02  0.51441352691E+03  0.89843458051E+02 0.  0.
          4    1    3    3  502    0  0.22847647476E+03 -0.35067486416E+02 -0.54094984325E+02  0.23739733666E+03  0.00000000000E+00 0. -1.
         -3    1    3    3    0  502  0.84953099340E+02  0.23925129410E+02 -0.48632194257E+02  0.10076969397E+03  0.00000000000E+00 0.  1.
         13    1    5    5    0    0  0.30814988709E+02 -0.12824782273E+03 -0.29062021548E+03  0.31915071238E+03  0.00000000000E+00 0.  1.
        -13    1    5    5    0    0  0.76967615448E+02 -0.14057457166E+03 -0.17922584485E+03  0.24043112837E+03  0.00000000000E+00 0. -1.
          2    1    6    6  503    0 -0.11590848124E+03  0.12777018086E+03 -0.62388273650E+01  0.17262363137E+03  0.00000000000E+00 0. -1.
         -2    1    6    6    0  503 -0.30530369702E+03  0.15219457053E+03 -0.21137596353E+02  0.34178989554E+03  0.00000000000E+00 0.  1.
<mgrwt>
<rscale>  0 0.12783830E+04</rscale>
<asrwt>0</asrwt>
<pdfrwt beam="1">  1        2 0.15477785E+00 0.12783830E+04</pdfrwt>
<pdfrwt beam="2">  1       -1 0.62477904E-01 0.12783830E+04</pdfrwt>
<totfact> 0.72641423E+01</totfact>
</mgrwt>
</event>
<event>
12    7  0.1729738E-007  0.3982837E+04  0.7818608E-02  0.8008018E-01
         -1   -1    0    0    0  501 -0.00000000000E+00  0.00000000000E+00  0.16069136376E+04  0.16069136376E+04  0.00000000000E+00 0.  1.
          2   -1    0    0  501    0  0.00000000000E+00 -0.00000000000E+00 -0.24679280695E+04  0.24679280695E+04  0.00000000000E+00 0. -1.
         24    2    1    2    0    0  0.63133857317E+03  0.16914651040E+04  0.14828411714E+03  0.18133157440E+04  0.80518419395E+02 0.  0.
        254    2    1    2    0    0 -0.63133857317E+03 -0.16914651040E+04 -0.10092985490E+04  0.22615259632E+04  0.91442524515E+03 0.  0.
         23    2    4    4    0    0  0.22186247970E+02 -0.11919841124E+04 -0.56717348844E+03  0.13233852212E+04  0.91347271506E+02 0.  0.
         23    2    4    4    0    0 -0.65352482114E+03 -0.49948099165E+03 -0.44212506061E+03  0.93814074196E+03  0.89763743541E+02 0.  0.
          4    1    3    3  502    0  0.91978048043E+02  0.32762738662E+03  0.14334678602E+02  0.34059528593E+03  0.00000000000E+00 0. -1.
         -3    1    3    3    0  502  0.53936052512E+03  0.13638377174E+04  0.13394943854E+03  0.14727204581E+04  0.00000000000E+00 0.  1.
         13    1    5    5    0    0  0.27079612358E+02 -0.11802646189E+04 -0.56902259328E+03  0.13105512534E+04  0.00000000000E+00 0. -1.
        -13    1    5    5    0    0 -0.48933643877E+01 -0.11719493493E+02  0.18491048373E+01  0.12833967876E+02  0.00000000000E+00 0.  1.
          3    1    6    6  503    0 -0.63487662163E+03 -0.48562912993E+03 -0.44482720670E+03  0.91475418575E+03  0.00000000000E+00 0. -1.
         -3    1    6    6    0  503 -0.18648199507E+02 -0.13851861716E+02  0.27021460945E+01  0.23386556210E+02  0.00000000000E+00 0.  1.
<mgrwt>
<rscale>  0 0.39828368E+04</rscale>
<asrwt>0</asrwt>
<pdfrwt beam="1">  1        2 0.37968124E+00 0.39828368E+04</pdfrwt>
<pdfrwt beam="2">  1       -1 0.24721749E+00 0.39828368E+04</pdfrwt>
<totfact> 0.23719027E-01</totfact>
</mgrwt>
</event>
<event>
12    7  0.1729738E-007  0.1716728E+04  0.7818608E-02  0.8751881E-01
          2   -1    0    0  501    0  0.00000000000E+00  0.00000000000E+00  0.17627713848E+04  0.17627713848E+04  0.00000000000E+00 0. -1.
         -1   -1    0    0    0  501 -0.00000000000E+00 -0.00000000000E+00 -0.41797202963E+03  0.41797202963E+03  0.00000000000E+00 0.  1.
         24    2    1    2    0    0 -0.16364804855E+03 -0.60373667745E+03  0.48127914275E+03  0.79424629858E+03  0.88988258039E+02 0.  0.
        254    2    1    2    0    0  0.16364804855E+03  0.60373667745E+03  0.86352021242E+03  0.13864971159E+04  0.88624400450E+03 0.  0.
         23    2    4    4    0    0 -0.41542751169E+02  0.72675089382E+03  0.86135017291E+03  0.11313621343E+04  0.90352071225E+02 0.  0.
         23    2    4    4    0    0  0.20519079972E+03 -0.12301421637E+03  0.21700395115E+01  0.25513498152E+03  0.88619343309E+02 0.  0.
          4    1    3    3  502    0 -0.12944939244E+03 -0.53386747966E+03  0.45105990878E+03  0.71079298840E+03  0.00000000000E+00 0. -1.
         -3    1    3    3    0  502 -0.34198656101E+02 -0.69869197790E+02  0.30219233971E+02  0.83453310184E+02  0.00000000000E+00 0.  1.
         13    1    5    5    0    0  0.25034644460E+02  0.11342651497E+03  0.12252777199E+03  0.16883531215E+03  0.00000000000E+00 0.  1.
        -13    1    5    5    0    0 -0.66577395630E+02  0.61332437885E+03  0.73882240092E+03  0.96252682218E+03  0.00000000000E+00 0. -1.
          3    1    6    6  503    0  0.19972096141E+03 -0.10054433572E+03 -0.18167585204E+02  0.22433833160E+03  0.00000000000E+00 0. -1.
         -3    1    6    6    0  503  0.54698383043E+01 -0.22469880652E+02  0.20337624716E+02  0.30796649926E+02  0.00000000000E+00 0.  1.
<mgrwt>
<rscale>  0 0.17167284E+04</rscale>
<asrwt>0</asrwt>
<pdfrwt beam="1">  1        2 0.27119559E+00 0.17167284E+04</pdfrwt>
<pdfrwt beam="2">  1       -1 0.64303390E-01 0.17167284E+04</pdfrwt>
<totfact> 0.24022824E+01</totfact>
</mgrwt>
</event>
<event>
12    7  0.1729738E-007  0.3084917E+04  0.7818608E-02  0.8219890E-01
          2   -1    0    0  501    0  0.00000000000E+00  0.00000000000E+00  0.19070668077E+04  0.19070668077E+04  0.00000000000E+00 0. -1.
         -1   -1    0    0    0  501 -0.00000000000E+00 -0.00000000000E+00 -0.12475587463E+04  0.12475587463E+04  0.00000000000E+00 0.  1.
         24    2    1    2    0    0  0.10508146305E+04  0.29749077921E+03 -0.63310598442E+03  0.12644121934E+04  0.72130824748E+02 0.  0.
        254    2    1    2    0    0 -0.10508146305E+04 -0.29749077921E+03  0.12926140458E+04  0.18902133605E+04  0.84222522249E+03 0.  0.
         23    2    4    4    0    0 -0.54471272689E+03  0.16752305779E+02  0.11427278933E+04  0.12692352082E+04  0.90212975891E+02 0.  0.
         23    2    4    4    0    0 -0.50610190365E+03 -0.31424308499E+03  0.14988615251E+03  0.62097815233E+03  0.90885387210E+02 0.  0.
          4    1    3    3  502    0  0.62623919594E+02  0.16459936251E+01 -0.43544394845E+02  0.76292718674E+02  0.00000000000E+00 0. -1.
         -3    1    3    3    0  502  0.98819071094E+03  0.29584478559E+03 -0.58956158958E+03  0.11881194747E+04  0.00000000000E+00 0.  1.
         13    1    5    5    0    0 -0.18997360328E+03  0.90539280640E+01  0.50200427481E+03  0.53682421283E+03  0.00000000000E+00 0.  1.
        -13    1    5    5    0    0 -0.35473912361E+03  0.76983777149E+01  0.64072361848E+03  0.73241099535E+03  0.00000000000E+00 0. -1.
          3    1    6    6  503    0 -0.16389808587E+03 -0.80260504934E+02  0.74698202010E+01  0.18264755520E+03  0.00000000000E+00 0. -1.
         -3    1    6    6    0  503 -0.34220381778E+03 -0.23398258006E+03  0.14241633231E+03  0.43833059713E+03  0.00000000000E+00 0.  1.
<mgrwt>
<rscale>  0 0.30849168E+04</rscale>
<asrwt>0</asrwt>
<pdfrwt beam="1">  1        2 0.29339489E+00 0.30849168E+04</pdfrwt>
<pdfrwt beam="2">  1       -1 0.19193211E+00 0.30849168E+04</pdfrwt>
<totfact> 0.12465106E+00</totfact>
</mgrwt>
</event>
<event>
12    7  0.1729738E-007  0.1470959E+04  0.7818608E-02  0.8903998E-01
         -1   -1    0    0    0  501 -0.00000000000E+00  0.00000000000E+00  0.65895859951E+03  0.65895859951E+03  0.00000000000E+00 0.  1.
          2   -1    0    0  501    0  0.00000000000E+00 -0.00000000000E+00 -0.82088600640E+03  0.82088600640E+03  0.00000000000E+00 0. -1.
         24    2    1    2    0    0  0.36641319247E+03  0.20212532632E+03 -0.21590816905E+03  0.47668728860E+03  0.74169795056E+02 0.  0.
        254    2    1    2    0    0 -0.36641319247E+03 -0.20212532632E+03  0.53980762160E+02  0.10031573173E+04  0.91010845806E+03 0.  0.
         23    2    4    4    0    0 -0.35342660464E+03  0.30525895399E+03  0.91651316550E+02  0.48439605803E+03  0.90256209514E+02 0.  0.
         23    2    4    4    0    0 -0.12986587832E+02 -0.50738428030E+03 -0.37670554391E+02  0.51876125927E+03  0.10043263459E+03 0.  0.
          2    1    3    3  502    0  0.86917471059E+02  0.51726252539E+02 -0.18243621028E+02  0.10277685384E+03  0.00000000000E+00 0. -1.
         -1    1    3    3    0  502  0.27949572141E+03  0.15039907378E+03 -0.19766454802E+03  0.37391043476E+03  0.00000000000E+00 0.  1.
         13    1    5    5    0    0 -0.37233082274E+01  0.58426510710E+01  0.16545787142E+02  0.17937744224E+02  0.00000000000E+00 0.  1.
        -13    1    5    5    0    0 -0.34970329641E+03  0.29941630292E+03  0.75105529408E+02  0.46645831381E+03  0.00000000000E+00 0. -1.
          3    1    6    6  503    0  0.12275761816E+02 -0.35810642047E+03 -0.67051441842E+02  0.36453641596E+03  0.00000000000E+00 0. -1.
         -3    1    6    6    0  503 -0.25262349648E+02 -0.14927785984E+03  0.29380887451E+02  0.15422484331E+03  0.00000000000E+00 0.  1.
<mgrwt>
<rscale>  0 0.14709587E+04</rscale>
<asrwt>0</asrwt>
<pdfrwt beam="1">  1        2 0.12629015E+00 0.14709587E+04</pdfrwt>
<pdfrwt beam="2">  1       -1 0.10137825E+00 0.14709587E+04</pdfrwt>
<totfact> 0.33985662E+01</totfact>
</mgrwt>
</event>
<event>
12    7  0.1729738E-007  0.1661857E+04  0.7818608E-02  0.8783423E-01
         -1   -1    0    0    0  501 -0.00000000000E+00  0.00000000000E+00  0.28502758161E+03  0.28502758161E+03  0.00000000000E+00 0.  1.
          2   -1    0    0  501    0  0.00000000000E+00 -0.00000000000E+00 -0.24223707342E+04  0.24223707342E+04  0.00000000000E+00 0. -1.
         24    2    1    2    0    0 -0.10113099662E+03 -0.38412654508E+03 -0.90596146952E+02  0.41520337460E+03  0.80034363388E+02 0.  0.
        254    2    1    2    0    0  0.10113099662E+03  0.38412654508E+03 -0.20467470056E+04  0.22921949412E+04  0.95247239452E+03 0.  0.
         23    2    4    4    0    0  0.27595827775E+03  0.11585023927E+03 -0.11742380791E+03  0.33437198247E+03  0.91880482141E+02 0.  0.
         23    2    4    4    0    0 -0.17482728112E+03  0.26827630581E+03 -0.19293231977E+04  0.19578229587E+04  0.90807389813E+02 0.  0.
          4    1    3    3  502    0 -0.90830199564E+02 -0.23264560258E+03 -0.83014562672E+02  0.26318343255E+03  0.00000000000E+00 0. -1.
         -3    1    3    3    0  502 -0.10300797060E+02 -0.15148094250E+03 -0.75815842802E+01  0.15201994205E+03  0.00000000000E+00 0.  1.
         13    1    5    5    0    0  0.25867671155E+03  0.86306410878E+02 -0.81181338183E+02  0.28452213855E+03  0.00000000000E+00 0.  1.
        -13    1    5    5    0    0  0.17281566200E+02  0.29543828395E+02 -0.36242469732E+02  0.49849843920E+02  0.00000000000E+00 0. -1.
          3    1    6    6  503    0 -0.14337709718E+02  0.77192961260E+02 -0.33417905165E+03  0.34327825703E+03  0.00000000000E+00 0. -1.
         -3    1    6    6    0  503 -0.16048957140E+03  0.19108334455E+03 -0.15951441460E+04  0.16145447017E+04  0.00000000000E+00 0.  1.
<mgrwt>
<rscale>  0 0.16618574E+04</rscale>
<asrwt>0</asrwt>
<pdfrwt beam="1">  1        2 0.37267242E+00 0.16618574E+04</pdfrwt>
<pdfrwt beam="2">  1       -1 0.43850397E-01 0.16618574E+04</pdfrwt>
<totfact> 0.21591071E+01</totfact>
</mgrwt>
</event>
<event>
12    7  0.1729738E-007  0.1366944E+04  0.7818608E-02  0.8978100E-01
          2   -1    0    0  501    0  0.00000000000E+00  0.00000000000E+00  0.33499198970E+04  0.33499198970E+04  0.00000000000E+00 0. -1.
         -1   -1    0    0    0  501 -0.00000000000E+00 -0.00000000000E+00 -0.13944630697E+03  0.13944630697E+03  0.00000000000E+00 0.  1.
         24    2    1    2    0    0  0.11903787723E+03 -0.55754526351E+02  0.23010967713E+00  0.15405976234E+03  0.80347831310E+02 0.  0.
        254    2    1    2    0    0 -0.11903787723E+03  0.55754526351E+02  0.32102434803E+04  0.33353064416E+04  0.89516885170E+03 0.  0.
         23    2    4    4    0    0 -0.40605686130E+03 -0.14840010908E+03  0.97013741853E+03  0.10658559189E+04  0.89316638823E+02 0.  0.
         23    2    4    4    0    0  0.28701898407E+03  0.20415463544E+03  0.22401060618E+04  0.22694505227E+04  0.90947758016E+02 0.  0.
          2    1    3    3  502    0  0.52249592179E+01 -0.30548846439E+02  0.18458101942E+02  0.36072617661E+02  0.00000000000E+00 0. -1.
         -1    1    3    3    0  502  0.11381291801E+03 -0.25205679912E+02 -0.18227992265E+02  0.11798714468E+03  0.00000000000E+00 0.  1.
         13    1    5    5    0    0 -0.37730035797E+03 -0.16070400271E+03  0.90636502476E+03  0.99482606254E+03  0.00000000000E+00 0.  1.
        -13    1    5    5    0    0 -0.28756503333E+02  0.12303893627E+02  0.63772393767E+02  0.71029856322E+02  0.00000000000E+00 0. -1.
          2    1    6    6  503    0  0.20490368220E+03  0.15249316241E+03  0.18456188258E+04  0.18632092029E+04  0.00000000000E+00 0. -1.
         -2    1    6    6    0  503  0.82115301870E+02  0.51661473022E+02  0.39448723600E+03  0.40624131986E+03  0.00000000000E+00 0.  1.
<mgrwt>
<rscale>  0 0.13669440E+04</rscale>
<asrwt>0</asrwt>
<pdfrwt beam="1">  1        2 0.51537223E+00 0.13669440E+04</pdfrwt>
<pdfrwt beam="2">  1       -1 0.21453281E-01 0.13669440E+04</pdfrwt>
<totfact> 0.21149868E+01</totfact>
</mgrwt>
</event>
<event>
12    7  0.1729738E-007  0.1514475E+04  0.7818608E-02  0.8874884E-01
         -1   -1    0    0    0  501 -0.00000000000E+00  0.00000000000E+00  0.40827805170E+03  0.40827805170E+03  0.00000000000E+00 0.  1.
          2   -1    0    0  501    0  0.00000000000E+00 -0.00000000000E+00 -0.14044567981E+04  0.14044567981E+04  0.00000000000E+00 0. -1.
         24    2    1    2    0    0  0.44693013138E+03 -0.15225690271E+03 -0.43250022409E+03  0.64489433531E+03  0.76834582824E+02 0.  0.
        254    2    1    2    0    0 -0.44693013138E+03  0.15225690271E+03 -0.56367852232E+03  0.11678405145E+04  0.90729779236E+03 0.  0.
         23    2    4    4    0    0  0.22509975715E+03 -0.14506612571E+03 -0.17224088764E+03  0.33069525250E+03  0.89321582761E+02 0.  0.
         23    2    4    4    0    0 -0.67202988853E+03  0.29732302843E+03 -0.39143763467E+03  0.83714526200E+03  0.86969037835E+02 0.  0.
          2    1    3    3  502    0  0.27067756513E+03 -0.10989730183E+03 -0.31088423250E+03  0.42660610313E+03  0.00000000000E+00 0. -1.
         -1    1    3    3    0  502  0.17625256624E+03 -0.42359600889E+02 -0.12161599159E+03  0.21828823218E+03  0.00000000000E+00 0.  1.
         13    1    5    5    0    0  0.32763067906E+02 -0.67196351135E+02 -0.43224664795E+02  0.86354732766E+02  0.00000000000E+00 0. -1.
        -13    1    5    5    0    0  0.19233668925E+03 -0.77869774578E+02 -0.12901622285E+03  0.24434051973E+03  0.00000000000E+00 0.  1.
          2    1    6    6  503    0 -0.64920946269E+03  0.28161525688E+03 -0.35598618700E+03  0.79215291749E+03  0.00000000000E+00 0.  1.
         -2    1    6    6    0  503 -0.22820425843E+02  0.15707771546E+02 -0.35451447674E+02  0.44992344513E+02  0.00000000000E+00 0. -1.
<mgrwt>
<rscale>  0 0.15144753E+04</rscale>
<asrwt>0</asrwt>
<pdfrwt beam="1">  1        2 0.21607027E+00 0.15144753E+04</pdfrwt>
<pdfrwt beam="2">  1       -1 0.62812009E-01 0.15144753E+04</pdfrwt>
<totfact> 0.40679544E+01</totfact>
</mgrwt>
</event>
<event>
12    7  0.1729738E-007  0.1493128E+04  0.7818608E-02  0.8889036E-01
          2   -1    0    0  501    0  0.00000000000E+00  0.00000000000E+00  0.37328602549E+03  0.37328602549E+03  0.00000000000E+00 0. -1.
         -1   -1    0    0    0  501 -0.00000000000E+00 -0.00000000000E+00 -0.14931116830E+04  0.14931116830E+04  0.00000000000E+00 0.  1.
         24    2    1    2    0    0 -0.35886725534E+03  0.15481561395E+03 -0.68727576612E+03  0.79457280457E+03  0.79021400752E+02 0.  0.
        254    2    1    2    0    0  0.35886725534E+03 -0.15481561395E+03 -0.43254989136E+03  0.10718249039E+04  0.89941960999E+03 0.  0.
         23    2    4    4    0    0  0.47099603305E+03 -0.24420065813E+03  0.68457315681E+02  0.54280044755E+03  0.92058118647E+02 0.  0.
         23    2    4    4    0    0 -0.11212877771E+03  0.89385044180E+02 -0.50100720704E+03  0.52902445636E+03  0.91082956690E+02 0.  0.
          4    1    3    3  502    0 -0.15010018023E+03  0.26994728540E+02 -0.23149333922E+03  0.27721462007E+03  0.00000000000E+00 0. -1.
         -3    1    3    3    0  502 -0.20876707511E+03  0.12782088541E+03 -0.45578242690E+03  0.51735818450E+03  0.00000000000E+00 0.  1.
         13    1    5    5    0    0  0.15220482851E+03 -0.32097325056E+02  0.21248429320E+02  0.15699695489E+03  0.00000000000E+00 0. -1.
        -13    1    5    5    0    0  0.31879120454E+03 -0.21210333307E+03  0.47208886361E+02  0.38580349266E+03  0.00000000000E+00 0.  1.
          4    1    6    6  503    0 -0.75345989763E+02  0.15742729139E+02 -0.33499065051E+03  0.34372021707E+03  0.00000000000E+00 0. -1.
         -4    1    6    6    0  503 -0.36782787951E+02  0.73642315041E+02 -0.16601655653E+03  0.18530423928E+03  0.00000000000E+00 0.  1.
<mgrwt>
<rscale>  0 0.14931279E+04</rscale>
<asrwt>0</asrwt>
<pdfrwt beam="1">  1        2 0.57428620E-01 0.14931279E+04</pdfrwt>
<pdfrwt beam="2">  1       -1 0.22970949E+00 0.14931279E+04</pdfrwt>
<totfact> 0.90172056E+00</totfact>
</mgrwt>
</event>
<event>
12    7  0.1729738E-007  0.1448602E+04  0.7818608E-02  0.8919370E-01
          2   -1    0    0  501    0  0.00000000000E+00  0.00000000000E+00  0.98060835869E+03  0.98060835869E+03  0.00000000000E+00 0. -1.
         -1   -1    0    0    0  501 -0.00000000000E+00 -0.00000000000E+00 -0.53498621686E+03  0.53498621686E+03  0.00000000000E+00 0.  1.
         24    2    1    2    0    0 -0.59361038427E+02 -0.31318468277E+03  0.44431115616E+03  0.55254696899E+03  0.79292944444E+02 0.  0.
        254    2    1    2    0    0  0.59361038427E+02  0.31318468277E+03  0.13109856650E+01  0.96304760656E+03  0.90876322297E+03 0.  0.
         23    2    4    4    0    0 -0.25291271542E+03 -0.34969622428E+02  0.29778368106E+03  0.40211021525E+03  0.88486091514E+02 0.  0.
         23    2    4    4    0    0  0.31227375384E+03  0.34815430520E+03 -0.29647269539E+03  0.56093739132E+03  0.89601229296E+02 0.  0.
          4    1    3    3  502    0 -0.55399819293E+02 -0.25302168107E+03  0.40440997231E+03  0.48024632927E+03  0.00000000000E+00 0. -1.
         -3    1    3    3    0  502 -0.39612191340E+01 -0.60163001705E+02  0.39901183849E+02  0.72300639719E+02  0.00000000000E+00 0.  1.
         13    1    5    5    0    0 -0.18215840288E+03 -0.60692831641E+02  0.23913350745E+03  0.30667594939E+03  0.00000000000E+00 0.  1.
        -13    1    5    5    0    0 -0.70754312540E+02  0.25723209212E+02  0.58650173607E+02  0.95434265855E+02  0.00000000000E+00 0. -1.
          2    1    6    6  503    0  0.50542113109E+02  0.77388856072E+02 -0.10001935889E+03  0.13618888499E+03  0.00000000000E+00 0. -1.
         -2    1    6    6    0  503  0.26173164073E+03  0.27076544913E+03 -0.19645333651E+03  0.42474850633E+03  0.00000000000E+00 0.  1.
<mgrwt>
<rscale>  0 0.14486020E+04</rscale>
<asrwt>0</asrwt>
<pdfrwt beam="1">  1        2 0.15086282E+00 0.14486020E+04</pdfrwt>
<pdfrwt beam="2">  1       -1 0.82305572E-01 0.14486020E+04</pdfrwt>
<totfact> 0.42122502E+01</totfact>
</mgrwt>
</event>
<event>
12    7  0.1729738E-007  0.1834782E+04  0.7818608E-02  0.8688018E-01
          2   -1    0    0  501    0  0.00000000000E+00  0.00000000000E+00  0.44486557225E+04  0.44486557225E+04  0.00000000000E+00 0. -1.
         -1   -1    0    0    0  501 -0.00000000000E+00 -0.00000000000E+00 -0.18918215033E+03  0.18918215033E+03  0.00000000000E+00 0.  1.
         24    2    1    2    0    0 -0.63171621572E+03  0.24786085700E+03  0.20060747982E+04  0.21192646129E+04  0.80287122221E+02 0.  0.
        254    2    1    2    0    0  0.63171621572E+03 -0.24786085700E+03  0.22533987740E+04  0.25185732600E+04  0.89716489531E+03 0.  0.
         23    2    4    4    0    0 -0.20541915653E+03 -0.16692653959E+03  0.52313142371E+03  0.59256315189E+03  0.86041286735E+02 0.  0.
         23    2    4    4    0    0  0.83713537225E+03 -0.80934317412E+02  0.17302673503E+04  0.19260101081E+04  0.91344608984E+02 0.  0.
          2    1    3    3  502    0 -0.80269258834E+02  0.29882950757E+02  0.34679011143E+03  0.35721075858E+03  0.00000000000E+00 0. -1.
         -1    1    3    3    0  502 -0.55144695689E+03  0.21797790624E+03  0.16592846867E+04  0.17620538543E+04  0.00000000000E+00 0.  1.
         13    1    5    5    0    0 -0.12227325442E+03 -0.13238298877E+03  0.41089045770E+03  0.44867245591E+03  0.00000000000E+00 0.  1.
        -13    1    5    5    0    0 -0.83145902111E+02 -0.34543550818E+02  0.11224096601E+03  0.14389069599E+03  0.00000000000E+00 0. -1.
          2    1    6    6  503    0  0.29688377619E+03 -0.45611380029E+02  0.52786466351E+03  0.60733967229E+03  0.00000000000E+00 0. -1.
         -2    1    6    6    0  503  0.54025159606E+03 -0.35322937383E+02  0.12024026868E+04  0.13186704358E+04  0.00000000000E+00 0.  1.
<mgrwt>
<rscale>  0 0.18347820E+04</rscale>
<asrwt>0</asrwt>
<pdfrwt beam="1">  1        2 0.68440850E+00 0.18347820E+04</pdfrwt>
<pdfrwt beam="2">  1       -1 0.29104949E-01 0.18347820E+04</pdfrwt>
<totfact> 0.16246432E+00</totfact>
</mgrwt>
</event>
<event>
12    7  0.1729738E-007  0.1636164E+04  0.7818608E-02  0.8798634E-01
         -1   -1    0    0    0  501 -0.00000000000E+00  0.00000000000E+00  0.10574156136E+04  0.10574156136E+04  0.00000000000E+00 0.  1.
          2   -1    0    0  501    0  0.00000000000E+00 -0.00000000000E+00 -0.63291880058E+03  0.63291880058E+03  0.00000000000E+00 0. -1.
         24    2    1    2    0    0  0.20821139518E+02 -0.31125598943E+03 -0.34277550017E+03  0.47310218025E+03  0.94956930390E+02 0.  0.
        254    2    1    2    0    0 -0.20821139518E+02  0.31125598943E+03  0.76727231315E+03  0.12172322339E+04  0.89198301434E+03 0.  0.
         23    2    4    4    0    0 -0.11337428451E+03  0.56741128767E+03  0.71713589787E+03  0.92600805230E+03  0.91639069976E+02 0.  0.
         23    2    4    4    0    0  0.92553144996E+02 -0.25615529824E+03  0.50136415276E+02  0.29122418158E+03  0.90090190016E+02 0.  0.
          4    1    3    3  502    0  0.25074493459E+02 -0.29699351356E+03 -0.34719308452E+03  0.45757722327E+03  0.00000000000E+00 0. -1.
         -3    1    3    3    0  502 -0.42533539401E+01 -0.14262475867E+02  0.44175843457E+01  0.15524956974E+02  0.00000000000E+00 0.  1.
         13    1    5    5    0    0 -0.12591467308E+03  0.45368745904E+03  0.59297766353E+03  0.75717192554E+03  0.00000000000E+00 0. -1.
        -13    1    5    5    0    0  0.12540388562E+02  0.11372382863E+03  0.12415823434E+03  0.16883612676E+03  0.00000000000E+00 0.  1.
          3    1    6    6  503    0  0.86198085615E+02 -0.26264550118E+03  0.53462173244E+02  0.28155101354E+03  0.00000000000E+00 0. -1.
         -3    1    6    6    0  503  0.63550593811E+01  0.64902029440E+01 -0.33257579675E+01  0.96731680462E+01  0.00000000000E+00 0.  1.
<mgrwt>
<rscale>  0 0.16361641E+04</rscale>
<asrwt>0</asrwt>
<pdfrwt beam="1">  1        2 0.97372124E-01 0.16361641E+04</pdfrwt>
<pdfrwt beam="2">  1       -1 0.16267932E+00 0.16361641E+04</pdfrwt>
<totfact> 0.14158104E+01</totfact>
</mgrwt>
</event>
<event>
12    7  0.1729738E-007  0.1323587E+04  0.7818608E-02  0.9011067E-01
         -1   -1    0    0    0  501 -0.00000000000E+00  0.00000000000E+00  0.35796035613E+03  0.35796035613E+03  0.00000000000E+00 0.  1.
          2   -1    0    0  501    0  0.00000000000E+00 -0.00000000000E+00 -0.12235164899E+04  0.12235164899E+04  0.00000000000E+00 0. -1.
         24    2    1    2    0    0 -0.14345542853E+03  0.16328548305E+03  0.81393615807E+02  0.24489251226E+03  0.78139701295E+02 0.  0.
        254    2    1    2    0    0  0.14345542853E+03 -0.16328548305E+03 -0.94694974959E+03  0.13365843338E+04  0.91787920997E+03 0.  0.
         23    2    4    4    0    0  0.40671434719E+03 -0.32841929757E+03 -0.84321015105E+03  0.99629929755E+03  0.91286013383E+02 0.  0.
         23    2    4    4    0    0 -0.26325891866E+03  0.16513381453E+03 -0.10373959855E+03  0.34028503623E+03  0.91965029348E+02 0.  0.
          2    1    3    3  502    0 -0.13441763558E+03  0.12161263845E+03  0.40342342680E+02  0.18570201722E+03  0.00000000000E+00 0. -1.
         -1    1    3    3    0  502 -0.90377929519E+01  0.41672844592E+02  0.41051273127E+02  0.59190495041E+02  0.00000000000E+00 0.  1.
         13    1    5    5    0    0  0.37500271544E+03 -0.26996844364E+03 -0.70513940915E+03  0.84304898048E+03  0.00000000000E+00 0. -1.
        -13    1    5    5    0    0  0.31711631743E+02 -0.58450853936E+02 -0.13807074190E+03  0.15325031707E+03  0.00000000000E+00 0.  1.
          3    1    6    6  503    0 -0.24328621434E+03  0.17687957809E+03 -0.98733023061E+02  0.31657981154E+03  0.00000000000E+00 0. -1.
         -3    1    6    6    0  503 -0.19972704318E+02 -0.11745763563E+02 -0.50065754852E+01  0.23705224689E+02  0.00000000000E+00 0.  1.
<mgrwt>
<rscale>  0 0.13235866E+04</rscale>
<asrwt>0</asrwt>
<pdfrwt beam="1">  1        2 0.18823330E+00 0.13235866E+04</pdfrwt>
<pdfrwt beam="2">  1       -1 0.55070825E-01 0.13235866E+04</pdfrwt>
<totfact> 0.68178071E+01</totfact>
</mgrwt>
</event>
<event>
12    7  0.1729738E-007  0.2981185E+04  0.7818608E-02  0.8249124E-01
          2   -1    0    0  501    0  0.00000000000E+00  0.00000000000E+00  0.18888527369E+04  0.18888527369E+04  0.00000000000E+00 0. -1.
         -3   -1    0    0    0  501 -0.00000000000E+00 -0.00000000000E+00 -0.11763042671E+04  0.11763042671E+04  0.00000000000E+00 0.  1.
         24    2    1    2    0    0 -0.89864315490E+03  0.15877953026E+03 -0.70300869036E+03  0.11545932468E+04  0.78063357246E+02 0.  0.
        254    2    1    2    0    0  0.89864315490E+03 -0.15877953026E+03  0.14155571601E+04  0.19105637572E+04  0.90204286911E+03 0.  0.
         23    2    4    4    0    0 -0.10752981226E+03  0.16631111206E+03  0.30179565032E+03  0.37209340070E+03  0.90281990323E+02 0.  0.
         23    2    4    4    0    0  0.10061729672E+04 -0.32509064232E+03  0.11137615098E+04  0.15384703565E+04  0.91424130051E+02 0.  0.
          4    1    3    3  502    0 -0.11985004470E+03  0.24910701218E+02 -0.62777213810E+02  0.13757018144E+03  0.00000000000E+00 0. -1.
         -3    1    3    3    0  502 -0.77879311021E+03  0.13386882904E+03 -0.64023147655E+03  0.10170230654E+04  0.00000000000E+00 0.  1.
         13    1    5    5    0    0 -0.12253160219E+03  0.15960242590E+03  0.27973044111E+03  0.34458097390E+03  0.00000000000E+00 0. -1.
        -13    1    5    5    0    0  0.15001789936E+02  0.67086861643E+01  0.22065209205E+02  0.27512426803E+02  0.00000000000E+00 0.  1.
          3    1    6    6  503    0  0.65391985095E+03 -0.18337894560E+03  0.76422414015E+03  0.10223881580E+04  0.00000000000E+00 0. -1.
         -3    1    6    6    0  503  0.35225311621E+03 -0.14171169672E+03  0.34953736966E+03  0.51608219855E+03  0.00000000000E+00 0.  1.
<mgrwt>
<rscale>  0 0.29811847E+04</rscale>
<asrwt>0</asrwt>
<pdfrwt beam="1">  1        2 0.29059273E+00 0.29811847E+04</pdfrwt>
<pdfrwt beam="2">  1       -3 0.18096989E+00 0.29811847E+04</pdfrwt>
<totfact> 0.81423228E-01</totfact>
</mgrwt>
</event>
<event>
12    7  0.1729738E-007  0.1832043E+04  0.7818608E-02  0.8689443E-01
         -1   -1    0    0    0  501 -0.00000000000E+00  0.00000000000E+00  0.44519792578E+03  0.44519792578E+03  0.00000000000E+00 0.  1.
          2   -1    0    0  501    0  0.00000000000E+00 -0.00000000000E+00 -0.18847687522E+04  0.18847687522E+04  0.00000000000E+00 0. -1.
         24    2    1    2    0    0 -0.11047306031E+03 -0.85974258799E+02  0.31494572129E+03  0.35371403911E+03  0.79542088711E+02 0.  0.
        254    2    1    2    0    0  0.11047306031E+03  0.85974258799E+02 -0.17545165478E+04  0.19762526389E+04  0.89869366652E+03 0.  0.
         23    2    4    4    0    0  0.41535685735E+03 -0.18955083512E+03 -0.11427907415E+04  0.12339012876E+04  0.89949266370E+02 0.  0.
         23    2    4    4    0    0 -0.30488379705E+03  0.27552509392E+03 -0.61172580622E+03  0.74235135133E+03  0.89492232894E+02 0.  0.
          4    1    3    3  502    0  0.30607847261E+00 -0.20910954450E+02  0.10777590796E+02  0.23526966728E+02  0.00000000000E+00 0. -1.
         -3    1    3    3    0  502 -0.11077913878E+03 -0.65063304349E+02  0.30416813050E+03  0.33018707239E+03  0.00000000000E+00 0.  1.
         13    1    5    5    0    0  0.12216189047E+03 -0.10033952756E+03 -0.35552580649E+03  0.38908886819E+03  0.00000000000E+00 0.  1.
        -13    1    5    5    0    0  0.29319496688E+03 -0.89211307562E+02 -0.78726493504E+03  0.84481241939E+03  0.00000000000E+00 0. -1.
          1    1    6    6  503    0 -0.28757189267E+03  0.26672216437E+03 -0.53602932476E+03  0.66420308899E+03  0.00000000000E+00 0. -1.
         -1    1    6    6    0  503 -0.17311904381E+02  0.88029295473E+01 -0.75696481462E+02  0.78148262346E+02  0.00000000000E+00 0.  1.
<mgrwt>
<rscale>  0 0.18320427E+04</rscale>
<asrwt>0</asrwt>
<pdfrwt beam="1">  1        2 0.28996442E+00 0.18320427E+04</pdfrwt>
<pdfrwt beam="2">  1       -1 0.68491989E-01 0.18320427E+04</pdfrwt>
<totfact> 0.17913996E+01</totfact>
</mgrwt>
</event>
<event>
12    7  0.1729738E-007  0.1697228E+04  0.7818608E-02  0.8762947E-01
         -1   -1    0    0    0  501 -0.00000000000E+00  0.00000000000E+00  0.37270953300E+03  0.37270953300E+03  0.00000000000E+00 0.  1.
          2   -1    0    0  501    0  0.00000000000E+00 -0.00000000000E+00 -0.19321911660E+04  0.19321911660E+04  0.00000000000E+00 0. -1.
         24    2    1    2    0    0 -0.45167907698E+03  0.22704308168E+03 -0.10305197012E+04  0.11507433766E+04  0.81712390571E+02 0.  0.
        254    2    1    2    0    0  0.45167907698E+03 -0.22704308168E+03 -0.52896193184E+03  0.11541573224E+04  0.89258940729E+03 0.  0.
         23    2    4    4    0    0  0.55398727158E+03 -0.46525812526E+03 -0.48574822073E+03  0.87626736199E+03  0.92337075725E+02 0.  0.
         23    2    4    4    0    0 -0.10230819460E+03  0.23821504359E+03 -0.43213711114E+02  0.27788996042E+03  0.90233206747E+02 0.  0.
          4    1    3    3  502    0 -0.45387912334E+03  0.22684737892E+03 -0.10303657217E+04  0.11485292824E+04  0.00000000000E+00 0. -1.
         -3    1    3    3    0  502  0.22000463585E+01  0.19570275884E+00 -0.15397941646E+00  0.22140942189E+01  0.00000000000E+00 0.  1.
         13    1    5    5    0    0  0.31489860710E+03 -0.26719750900E+03 -0.33160230196E+03  0.52963735540E+03  0.00000000000E+00 0. -1.
        -13    1    5    5    0    0  0.23908866448E+03 -0.19806061627E+03 -0.15414591877E+03  0.34663000659E+03  0.00000000000E+00 0.  1.
          4    1    6    6  503    0  0.66627189489E+00  0.23378377785E+01  0.14019224053E+02  0.14228423903E+02  0.00000000000E+00 0. -1.
         -4    1    6    6    0  503 -0.10297446649E+03  0.23587720581E+03 -0.57232935167E+02  0.26366153652E+03  0.00000000000E+00 0.  1.
<mgrwt>
<rscale>  0 0.16972284E+04</rscale>
<asrwt>0</asrwt>
<pdfrwt beam="1">  1        2 0.29726017E+00 0.16972284E+04</pdfrwt>
<pdfrwt beam="2">  1       -1 0.57339930E-01 0.16972284E+04</pdfrwt>
<totfact> 0.24332444E+01</totfact>
</mgrwt>
</event>
<event>
12    7  0.1729738E-007  0.1882603E+04  0.7818608E-02  0.8663565E-01
         -1   -1    0    0    0  501 -0.00000000000E+00  0.00000000000E+00  0.19256215229E+04  0.19256215229E+04  0.00000000000E+00 0.  1.
          2   -1    0    0  501    0  0.00000000000E+00 -0.00000000000E+00 -0.46013628221E+03  0.46013628221E+03  0.00000000000E+00 0. -1.
         24    2    1    2    0    0 -0.57811115988E+02  0.59637018621E+03  0.35953564766E+02  0.60504938915E+03  0.76109003164E+02 0.  0.
        254    2    1    2    0    0  0.57811115988E+02 -0.59637018621E+03  0.14295316759E+04  0.17807084159E+04  0.87656267662E+03 0.  0.
         23    2    4    4    0    0  0.11753930382E+03 -0.21870675686E+03  0.13533759977E+04  0.13786340724E+04  0.85774011736E+02 0.  0.
         23    2    4    4    0    0 -0.59728187832E+02 -0.37766342935E+03  0.76155678164E+02  0.40207434347E+03  0.98320740787E+02 0.  0.
          4    1    3    3  502    0 -0.16898755911E+02  0.41743253507E+03 -0.11783223655E+01  0.41777610957E+03  0.00000000000E+00 0. -1.
         -3    1    3    3    0  502 -0.40912360077E+02  0.17893765114E+03  0.37131887132E+02  0.18727327958E+03  0.00000000000E+00 0.  1.
         13    1    5    5    0    0  0.73082293974E+02 -0.19766222597E+03  0.11670918837E+04  0.11859657846E+04  0.00000000000E+00 0. -1.
        -13    1    5    5    0    0  0.44457009846E+02 -0.21044530890E+02  0.18628411405E+03  0.19266828787E+03  0.00000000000E+00 0.  1.
          3    1    6    6  503    0 -0.13576226487E+02 -0.30949350945E+03  0.40748567741E+02  0.31245958473E+03  0.00000000000E+00 0. -1.
         -3    1    6    6    0  503 -0.46151961345E+02 -0.68169919902E+02  0.35407110423E+02  0.89614758740E+02  0.00000000000E+00 0.  1.
<mgrwt>
<rscale>  0 0.18826028E+04</rscale>
<asrwt>0</asrwt>
<pdfrwt beam="1">  1        2 0.70790198E-01 0.18826028E+04</pdfrwt>
<pdfrwt beam="2">  1       -1 0.29624946E+00 0.18826028E+04</pdfrwt>
<totfact> 0.25399739E+00</totfact>
</mgrwt>
</event>
<event>
12    7  0.1729738E-007  0.2673399E+04  0.7818608E-02  0.8343688E-01
         -1   -1    0    0    0  501 -0.00000000000E+00  0.00000000000E+00  0.73347277889E+03  0.73347277889E+03  0.00000000000E+00 0.  1.
          2   -1    0    0  501    0  0.00000000000E+00 -0.00000000000E+00 -0.24360361199E+04  0.24360361199E+04  0.00000000000E+00 0. -1.
         24    2    1    2    0    0 -0.45061532958E+03  0.78978136705E+03  0.14481160129E+03  0.92412674028E+03  0.78936995332E+02 0.  0.
        254    2    1    2    0    0  0.45061532958E+03 -0.78978136705E+03 -0.18473749423E+04  0.22453821585E+04  0.89562161503E+03 0.  0.
         23    2    4    4    0    0  0.30803020941E+02  0.18622161960E+03 -0.28676862630E+03  0.35512004884E+03  0.90811267778E+02 0.  0.
         23    2    4    4    0    0  0.41981230864E+03 -0.97600298665E+03 -0.15606063160E+04  0.18902621097E+04  0.93672649476E+02 0.  0.
          2    1    3    3  502    0 -0.13740444218E+03  0.17357751656E+03  0.40800739544E+02  0.22510849681E+03  0.00000000000E+00 0. -1.
         -1    1    3    3    0  502 -0.31321088740E+03  0.61620385049E+03  0.10401086174E+03  0.69901824347E+03  0.00000000000E+00 0.  1.
         13    1    5    5    0    0 -0.15068256881E+02  0.81788120421E+02 -0.64330785909E+02  0.10514180435E+03  0.00000000000E+00 0. -1.
        -13    1    5    5    0    0  0.45871277822E+02  0.10443349918E+03 -0.22243784039E+03  0.24997824449E+03  0.00000000000E+00 0.  1.
          3    1    6    6  503    0  0.41256334303E+02 -0.11733556018E+03 -0.13541250902E+03  0.18386480468E+03  0.00000000000E+00 0. -1.
         -3    1    6    6    0  503  0.37855597434E+03 -0.85866742647E+03 -0.14251938070E+04  0.17063973050E+04  0.00000000000E+00 0.  1.
<mgrwt>
<rscale>  0 0.26733995E+04</rscale>
<asrwt>0</asrwt>
<pdfrwt beam="1">  1        2 0.37477479E+00 0.26733995E+04</pdfrwt>
<pdfrwt beam="2">  1       -1 0.11284197E+00 0.26733995E+04</pdfrwt>
<totfact> 0.27212216E+00</totfact>
</mgrwt>
</event>
<event>
12    7  0.1729738E-007  0.1337850E+04  0.7818608E-02  0.9000076E-01
          2   -1    0    0  501    0  0.00000000000E+00  0.00000000000E+00  0.68234014659E+03  0.68234014659E+03  0.00000000000E+00 0. -1.
         -1   -1    0    0    0  501 -0.00000000000E+00 -0.00000000000E+00 -0.65577406809E+03  0.65577406809E+03  0.00000000000E+00 0.  1.
         24    2    1    2    0    0 -0.22236701528E+03  0.26695812523E+03  0.71531770964E+02  0.36367026597E+03  0.80159453474E+02 0.  0.
        254    2    1    2    0    0  0.22236701528E+03 -0.26695812523E+03 -0.44965692459E+02  0.97444394871E+03  0.90928838417E+03 0.  0.
         23    2    4    4    0    0  0.40443314030E+03 -0.28602721932E+03  0.29068419570E+03  0.58163361294E+03  0.91774848966E+02 0.  0.
         23    2    4    4    0    0 -0.18206612502E+03  0.19069094091E+02 -0.33564988816E+03  0.39281033578E+03  0.90152139434E+02 0.  0.
          2    1    3    3  502    0 -0.36135799725E+02  0.18067761225E+02 -0.11339406290E+02  0.41962151427E+02  0.00000000000E+00 0. -1.
         -1    1    3    3    0  502 -0.18623121556E+03  0.24889036400E+03  0.82871177254E+02  0.32170811454E+03  0.00000000000E+00 0.  1.
         13    1    5    5    0    0  0.17639665499E+03 -0.13935260562E+03  0.18310924521E+03  0.28993779379E+03  0.00000000000E+00 0. -1.
        -13    1    5    5    0    0  0.22803648531E+03 -0.14667461370E+03  0.10757495049E+03  0.29169581915E+03  0.00000000000E+00 0.  1.
          2    1    6    6  503    0 -0.84155379328E+02 -0.29620732813E+02 -0.10667517506E+03  0.13906512380E+03  0.00000000000E+00 0.  1.
         -2    1    6    6    0  503 -0.97910745695E+02  0.48689826904E+02 -0.22897471310E+03  0.25374521198E+03  0.00000000000E+00 0. -1.
<mgrwt>
<rscale>  0 0.13378505E+04</rscale>
<asrwt>0</asrwt>
<pdfrwt beam="1">  1        2 0.10497541E+00 0.13378505E+04</pdfrwt>
<pdfrwt beam="2">  1       -1 0.10088832E+00 0.13378505E+04</pdfrwt>
<totfact> 0.44157223E+01</totfact>
</mgrwt>
</event>
<event>
12    7  0.1729738E-007  0.1868199E+04  0.7818608E-02  0.8670850E-01
         -1   -1    0    0    0  501 -0.00000000000E+00  0.00000000000E+00  0.34082749602E+03  0.34082749602E+03  0.00000000000E+00 0.  1.
          2   -1    0    0  501    0  0.00000000000E+00 -0.00000000000E+00 -0.25600693001E+04  0.25600693001E+04  0.00000000000E+00 0. -1.
         24    2    1    2    0    0  0.28049211787E+03  0.52263173093E+03 -0.24668675637E+03  0.64762869186E+03  0.82151155764E+02 0.  0.
        254    2    1    2    0    0 -0.28049211787E+03 -0.52263173093E+03 -0.19725550477E+04  0.22532681043E+04  0.91346810513E+03 0.  0.
         23    2    4    4    0    0 -0.19858013476E+03 -0.61726710100E+03 -0.65311222102E+03  0.92479361750E+03  0.90746447996E+02 0.  0.
         23    2    4    4    0    0 -0.81911983115E+02  0.94635370072E+02 -0.13194428267E+04  0.13284744868E+04  0.90827654596E+02 0.  0.
          2    1    3    3  502    0  0.12023159183E+03  0.14416115153E+03 -0.82417865545E+02  0.20501409182E+03  0.00000000000E+00 0. -1.
         -1    1    3    3    0  502  0.16026052604E+03  0.37847057939E+03 -0.16426889083E+03  0.44261460004E+03  0.00000000000E+00 0.  1.
         13    1    5    5    0    0 -0.62537388920E+02 -0.90483484489E+02 -0.94466466901E+02  0.14498999740E+03  0.00000000000E+00 0. -1.
        -13    1    5    5    0    0 -0.13604274584E+03 -0.52678361651E+03 -0.55864575412E+03  0.77980362009E+03  0.00000000000E+00 0.  1.
          2    1    6    6  503    0  0.27558340760E+01  0.58563013866E+02 -0.37460113966E+03  0.37916122566E+03  0.00000000000E+00 0. -1.
         -2    1    6    6    0  503 -0.84667817191E+02  0.36072356205E+02 -0.94484168703E+03  0.94931326110E+03  0.00000000000E+00 0.  1.
<mgrwt>
<rscale>  0 0.18681991E+04</rscale>
<asrwt>0</asrwt>
<pdfrwt beam="1">  1        2 0.39385682E+00 0.18681991E+04</pdfrwt>
<pdfrwt beam="2">  1       -1 0.52434999E-01 0.18681991E+04</pdfrwt>
<totfact> 0.12595188E+01</totfact>
</mgrwt>
</event>
<event>
12    7  0.1729738E-007  0.1405335E+04  0.7818608E-02  0.8949966E-01
         -1   -1    0    0    0  501 -0.00000000000E+00  0.00000000000E+00  0.24827888764E+03  0.24827888764E+03  0.00000000000E+00 0.  1.
          2   -1    0    0  501    0  0.00000000000E+00 -0.00000000000E+00 -0.19886577868E+04  0.19886577868E+04  0.00000000000E+00 0. -1.
         24    2    1    2    0    0 -0.30616190274E+03  0.17711554652E+03 -0.81786982021E+03  0.89585645472E+03  0.92426820495E+02 0.  0.
        254    2    1    2    0    0  0.30616190274E+03 -0.17711554652E+03 -0.92250907893E+03  0.13410802197E+04  0.90684515077E+03 0.  0.
         23    2    4    4    0    0  0.52962283406E+03 -0.19135155791E+03 -0.93841042584E+03  0.10980989301E+04  0.89952030544E+02 0.  0.
         23    2    4    4    0    0 -0.22346093132E+03  0.14236011383E+02  0.15901346902E+02  0.24298128966E+03  0.93003238879E+02 0.  0.
          4    1    3    3  502    0 -0.90554929990E+02  0.10293098382E+03 -0.32938918122E+03  0.35678034626E+03  0.00000000000E+00 0. -1.
         -3    1    3    3    0  502 -0.21560697275E+03  0.74184562702E+02 -0.48848063899E+03  0.53907610846E+03  0.00000000000E+00 0.  1.
         13    1    5    5    0    0  0.21530139333E+03 -0.32119811518E+02 -0.34322657876E+03  0.40643678061E+03  0.00000000000E+00 0. -1.
        -13    1    5    5    0    0  0.31432144073E+03 -0.15923174639E+03 -0.59518384707E+03  0.69166214945E+03  0.00000000000E+00 0.  1.
          1    1    6    6  503    0 -0.18734340714E+02 -0.83232286054E+01 -0.25681144004E+02  0.32859896740E+02  0.00000000000E+00 0. -1.
         -1    1    6    6    0  503 -0.20472659061E+03  0.22559239989E+02  0.41582490906E+02  0.21012139292E+03  0.00000000000E+00 0.  1.
<mgrwt>
<rscale>  0 0.14053352E+04</rscale>
<asrwt>0</asrwt>
<pdfrwt beam="1">  1        2 0.30594736E+00 0.14053352E+04</pdfrwt>
<pdfrwt beam="2">  1       -1 0.38196751E-01 0.14053352E+04</pdfrwt>
<totfact> 0.49811075E+01</totfact>
</mgrwt>
</event>
<event>
12    7  0.1729738E-007  0.1299690E+04  0.7818608E-02  0.9029811E-01
          2   -1    0    0  501    0  0.00000000000E+00  0.00000000000E+00  0.42604907853E+04  0.42604907853E+04  0.00000000000E+00 0. -1.
         -1   -1    0    0    0  501 -0.00000000000E+00 -0.00000000000E+00 -0.99119676467E+02  0.99119676467E+02  0.00000000000E+00 0.  1.
         24    2    1    2    0    0 -0.19464870326E+03 -0.26269285237E+03  0.14027780004E+04  0.14425509804E+04  0.79193183489E+02 0.  0.
        254    2    1    2    0    0  0.19464870326E+03  0.26269285237E+03  0.27585931085E+04  0.29170594814E+04  0.89022717749E+03 0.  0.
         23    2    4    4    0    0 -0.35377244861E+02  0.40976266333E+03  0.24826178840E+04  0.25180843834E+04  0.90556138698E+02 0.  0.
         23    2    4    4    0    0  0.23002594812E+03 -0.14706981097E+03  0.27597522448E+03  0.39897509801E+03  0.92072461652E+02 0.  0.
          4    1    3    3  502    0 -0.89035264600E+02 -0.16540427440E+03  0.91466729646E+03  0.93375698956E+03  0.00000000000E+00 0. -1.
         -3    1    3    3    0  502 -0.10561343866E+03 -0.97288577961E+02  0.48811070394E+03  0.50879399086E+03  0.00000000000E+00 0.  1.
         13    1    5    5    0    0 -0.12371383201E+02  0.95874065118E+01  0.19395174084E+03  0.19458223779E+03  0.00000000000E+00 0. -1.
        -13    1    5    5    0    0 -0.23005861660E+02  0.40017525682E+03  0.22886661431E+04  0.23235021456E+04  0.00000000000E+00 0.  1.
          4    1    6    6  503    0  0.23711547983E+03 -0.14094512453E+03  0.27508331878E+03  0.38956400138E+03  0.00000000000E+00 0.  1.
         -4    1    6    6    0  503 -0.70895317101E+01 -0.61246864399E+01  0.89190570215E+00  0.94110966224E+01  0.00000000000E+00 0. -1.
<mgrwt>
<rscale>  0 0.12996899E+04</rscale>
<asrwt>0</asrwt>
<pdfrwt beam="1">  1        2 0.65545998E+00 0.12996899E+04</pdfrwt>
<pdfrwt beam="2">  1       -1 0.15249184E-01 0.12996899E+04</pdfrwt>
<totfact> 0.76670093E+00</totfact>
</mgrwt>
</event>
<event>
12    7  0.1729738E-007  0.2459145E+04  0.7818608E-02  0.8417687E-01
          2   -1    0    0  501    0  0.00000000000E+00  0.00000000000E+00  0.31061557580E+04  0.31061557580E+04  0.00000000000E+00 0. -1.
         -1   -1    0    0    0  501 -0.00000000000E+00 -0.00000000000E+00 -0.48672654648E+03  0.48672654648E+03  0.00000000000E+00 0.  1.
         24    2    1    2    0    0  0.10688825767E+03  0.10257766754E+04  0.71854198855E+03  0.12605649071E+04  0.95280682527E+02 0.  0.
        254    2    1    2    0    0 -0.10688825767E+03 -0.10257766754E+04  0.19008872230E+04  0.23323173973E+04  0.87332085745E+03 0.  0.
         23    2    4    4    0    0  0.26162929894E+03 -0.74428301285E+03  0.15537932625E+04  0.17449657987E+04  0.90692021781E+02 0.  0.
         23    2    4    4    0    0 -0.36851755660E+03 -0.28149366252E+03  0.34709396048E+03  0.58735159862E+03  0.97282122905E+02 0.  0.
          2    1    3    3  502    0 -0.17539900295E+02  0.11346612329E+03  0.72963046343E+02  0.13603608113E+03  0.00000000000E+00 0. -1.
         -1    1    3    3    0  502  0.12442815796E+03  0.91231055208E+03  0.64557894220E+03  0.11245288260E+04  0.00000000000E+00 0.  1.
         13    1    5    5    0    0  0.22720129381E+03 -0.60549931904E+03  0.13379553072E+04  0.14860599777E+04  0.00000000000E+00 0. -1.
        -13    1    5    5    0    0  0.34428005122E+02 -0.13878369381E+03  0.21583795527E+03  0.25890582098E+03  0.00000000000E+00 0.  1.
          2    1    6    6  503    0 -0.36779149622E+03 -0.26256270469E+03  0.34449117408E+03  0.56822876344E+03  0.00000000000E+00 0. -1.
         -2    1    6    6    0  503 -0.72606038159E+00 -0.18930957831E+02  0.26027863969E+01  0.19122835175E+02  0.00000000000E+00 0.  1.
<mgrwt>
<rscale>  0 0.24591449E+04</rscale>
<asrwt>0</asrwt>
<pdfrwt beam="1">  1        2 0.47787010E+00 0.24591449E+04</pdfrwt>
<pdfrwt beam="2">  1       -1 0.74881009E-01 0.24591449E+04</pdfrwt>
<totfact> 0.27239280E+00</totfact>
</mgrwt>
</event>
<event>
12    7  0.1729738E-007  0.1729112E+04  0.7818608E-02  0.8744933E-01
          2   -1    0    0  501    0  0.00000000000E+00  0.00000000000E+00  0.24862653079E+04  0.24862653079E+04  0.00000000000E+00 0. -1.
         -1   -1    0    0    0  501 -0.00000000000E+00 -0.00000000000E+00 -0.30063436678E+03  0.30063436678E+03  0.00000000000E+00 0.  1.
         24    2    1    2    0    0  0.40740205888E+03 -0.42683055789E+03  0.47343952270E+03  0.76054859909E+03  0.78284271668E+02 0.  0.
        254    2    1    2    0    0 -0.40740205888E+03  0.42683055789E+03  0.17121914184E+04  0.20263510756E+04  0.90903160863E+03 0.  0.
         23    2    4    4    0    0  0.84581635970E+02  0.50037684498E+03  0.52513205418E+03  0.73564190520E+03  0.88737242620E+02 0.  0.
         23    2    4    4    0    0 -0.49198369485E+03 -0.73546287084E+02  0.11870593642E+04  0.12907091704E+04  0.96763711962E+02 0.  0.
          4    1    3    3  502    0  0.18655327873E+03 -0.14570238459E+03  0.21045869344E+03  0.31673991274E+03  0.00000000000E+00 0. -1.
         -3    1    3    3    0  502  0.22084878016E+03 -0.28112817330E+03  0.26298082926E+03  0.44380868635E+03  0.00000000000E+00 0.  1.
         13    1    5    5    0    0  0.86235842250E+02  0.48933703725E+03  0.52702193079E+03  0.72432000666E+03  0.00000000000E+00 0. -1.
        -13    1    5    5    0    0 -0.16542062797E+01  0.11039807723E+02 -0.18898766076E+01  0.11321898540E+02  0.00000000000E+00 0.  1.
          1    1    6    6  503    0 -0.39971723293E+03 -0.83124256211E+02  0.88304414100E+03  0.97285685649E+03  0.00000000000E+00 0. -1.
         -1    1    6    6    0  503 -0.92266461928E+02  0.95779691272E+01  0.30401522322E+03  0.31785231388E+03  0.00000000000E+00 0.  1.
<mgrwt>
<rscale>  0 0.17291117E+04</rscale>
<asrwt>0</asrwt>
<pdfrwt beam="1">  1        2 0.38250234E+00 0.17291117E+04</pdfrwt>
<pdfrwt beam="2">  1       -1 0.46251443E-01 0.17291117E+04</pdfrwt>
<totfact> 0.17855842E+01</totfact>
</mgrwt>
</event>
<event>
12    7  0.1729738E-007  0.1913408E+04  0.7818608E-02  0.8648211E-01
          2   -1    0    0  501    0  0.00000000000E+00  0.00000000000E+00  0.97466525540E+03  0.97466525540E+03  0.00000000000E+00 0. -1.
         -1   -1    0    0    0  501 -0.00000000000E+00 -0.00000000000E+00 -0.93907338331E+03  0.93907338331E+03  0.00000000000E+00 0.  1.
         24    2    1    2    0    0  0.15327685791E+03 -0.15015290355E+03  0.72894162033E+03  0.76427538312E+03  0.81983448220E+02 0.  0.
        254    2    1    2    0    0 -0.15327685791E+03  0.15015290355E+03 -0.69334974824E+03  0.11494632556E+04  0.89134292669E+03 0.  0.
         23    2    4    4    0    0 -0.29077609527E+03  0.32416397420E+03 -0.77843921135E+03  0.89655337294E+03  0.90594287966E+02 0.  0.
         23    2    4    4    0    0  0.13749923737E+03 -0.17401107066E+03  0.85089463108E+02  0.25290988265E+03  0.86817619316E+02 0.  0.
          4    1    3    3  502    0  0.13268225866E+03 -0.15833902640E+03  0.67662603244E+03  0.70745926866E+03  0.00000000000E+00 0. -1.
         -3    1    3    3    0  502  0.20594599250E+02  0.81861228545E+01  0.52315587891E+02  0.56816114458E+02  0.00000000000E+00 0.  1.
         13    1    5    5    0    0 -0.45088036000E+02  0.15478288307E+02 -0.57192134375E+02  0.74454339253E+02  0.00000000000E+00 0. -1.
        -13    1    5    5    0    0 -0.24568805927E+03  0.30868568590E+03 -0.72124707697E+03  0.82209903368E+03  0.00000000000E+00 0.  1.
          3    1    6    6  503    0  0.11857907175E+02 -0.15142340255E+01  0.30318659175E+02  0.32590243347E+02  0.00000000000E+00 0. -1.
         -3    1    6    6    0  503  0.12564133019E+03 -0.17249683663E+03  0.54770803934E+02  0.22031963931E+03  0.00000000000E+00 0.  1.
<mgrwt>
<rscale>  0 0.19134076E+04</rscale>
<asrwt>0</asrwt>
<pdfrwt beam="1">  1        2 0.14994850E+00 0.19134076E+04</pdfrwt>
<pdfrwt beam="2">  1       -1 0.14447283E+00 0.19134076E+04</pdfrwt>
<totfact> 0.10771984E+01</totfact>
</mgrwt>
</event>
<event>
12    7  0.1729738E-007  0.2280606E+04  0.7818608E-02  0.8485607E-01
         -1   -1    0    0    0  501 -0.00000000000E+00  0.00000000000E+00  0.75755757956E+03  0.75755757956E+03  0.00000000000E+00 0.  1.
          2   -1    0    0  501    0  0.00000000000E+00 -0.00000000000E+00 -0.17164251823E+04  0.17164251823E+04  0.00000000000E+00 0. -1.
         24    2    1    2    0    0 -0.31165189776E+03 -0.76592851767E+03  0.13321992114E+03  0.84129026359E+03  0.79046572706E+02 0.  0.
        254    2    1    2    0    0  0.31165189776E+03  0.76592851767E+03 -0.10920875238E+04  0.16326924982E+04  0.88840094240E+03 0.  0.
         23    2    4    4    0    0  0.99448256501E+02  0.52158515102E+03 -0.54332743376E+02  0.54212357612E+03  0.94894147903E+02 0.  0.
         23    2    4    4    0    0  0.21220364126E+03  0.24434336666E+03 -0.10377547805E+04  0.10905689221E+04  0.87587232361E+02 0.  0.
          2    1    3    3  502    0 -0.14805854708E+03 -0.44431036777E+03  0.50061950734E+02  0.47099812651E+03  0.00000000000E+00 0. -1.
         -1    1    3    3    0  502 -0.16359335068E+03 -0.32161814990E+03  0.83157970410E+02  0.37029213707E+03  0.00000000000E+00 0.  1.
         13    1    5    5    0    0  0.44877635843E+02  0.38727178993E+03 -0.80760900601E+01  0.38994700243E+03  0.00000000000E+00 0.  1.
        -13    1    5    5    0    0  0.54570620658E+02  0.13431336109E+03 -0.46256653316E+02  0.15217657370E+03  0.00000000000E+00 0. -1.
          3    1    6    6  503    0  0.74221762839E+02  0.32287926564E+02 -0.29536156450E+03  0.30625125969E+03  0.00000000000E+00 0. -1.
         -3    1    6    6    0  503  0.13798187842E+03  0.21205544009E+03 -0.74239321597E+03  0.78431766241E+03  0.00000000000E+00 0.  1.
<mgrwt>
<rscale>  0 0.22806060E+04</rscale>
<asrwt>0</asrwt>
<pdfrwt beam="1">  1        2 0.26406541E+00 0.22806060E+04</pdfrwt>
<pdfrwt beam="2">  1       -1 0.11654732E+00 0.22806060E+04</pdfrwt>
<totfact> 0.65991508E+00</totfact>
</mgrwt>
</event>
<event>
12    7  0.1729738E-007  0.2951509E+04  0.7818608E-02  0.8257715E-01
          2   -1    0    0  501    0  0.00000000000E+00  0.00000000000E+00  0.23371628930E+04  0.23371628930E+04  0.00000000000E+00 0. -1.
         -1   -1    0    0    0  501 -0.00000000000E+00 -0.00000000000E+00 -0.93183575811E+03  0.93183575811E+03  0.00000000000E+00 0.  1.
         24    2    1    2    0    0  0.22337885815E+03 -0.78426471571E+03  0.18096630043E+04  0.19864903254E+04  0.79337035762E+02 0.  0.
        254    2    1    2    0    0 -0.22337885815E+03  0.78426471571E+03 -0.40433586938E+03  0.12825083257E+04  0.90353242981E+03 0.  0.
         23    2    4    4    0    0 -0.37588652991E+03  0.45146639609E+03 -0.61085201260E+03  0.85226348595E+03  0.90001544465E+02 0.  0.
         23    2    4    4    0    0  0.15250767176E+03  0.33279831962E+03  0.20651614322E+03  0.43024483978E+03  0.91915141620E+02 0.  0.
          2    1    3    3  502    0  0.22506499124E+03 -0.71721936408E+03  0.16406908357E+04  0.18046950670E+04  0.00000000000E+00 0. -1.
         -1    1    3    3    0  502 -0.16861330923E+01 -0.67045351635E+02  0.16897216866E+03  0.18179525847E+03  0.00000000000E+00 0.  1.
         13    1    5    5    0    0 -0.49897130886E+02  0.83557902703E+02 -0.14772867288E+03  0.17690508067E+03  0.00000000000E+00 0.  1.
        -13    1    5    5    0    0 -0.32598939903E+03  0.36790849339E+03 -0.46312333972E+03  0.67535840528E+03  0.00000000000E+00 0. -1.
          1    1    6    6  503    0  0.16044401020E+03  0.28720440508E+03  0.16485303252E+03  0.36797441900E+03  0.00000000000E+00 0. -1.
         -1    1    6    6    0  503 -0.79363384403E+01  0.45593914537E+02  0.41663110702E+02  0.62270420779E+02  0.00000000000E+00 0.  1.
<mgrwt>
<rscale>  0 0.29515094E+04</rscale>
<asrwt>0</asrwt>
<pdfrwt beam="1">  1        2 0.35956352E+00 0.29515094E+04</pdfrwt>
<pdfrwt beam="2">  1       -1 0.14335935E+00 0.29515094E+04</pdfrwt>
<totfact> 0.16612910E+00</totfact>
</mgrwt>
</event>
<event>
12    7  0.1729738E-007  0.1455159E+04  0.7818608E-02  0.8914832E-01
         -1   -1    0    0    0  501 -0.00000000000E+00  0.00000000000E+00  0.50654829394E+03  0.50654829394E+03  0.00000000000E+00 0.  1.
          2   -1    0    0  501    0  0.00000000000E+00 -0.00000000000E+00 -0.10450568282E+04  0.10450568282E+04  0.00000000000E+00 0. -1.
         24    2    1    2    0    0 -0.66872466535E+02  0.65096974998E+02 -0.63210595171E+03  0.64390538435E+03  0.79665970569E+02 0.  0.
        254    2    1    2    0    0  0.66872466535E+02 -0.65096974998E+02  0.93597417435E+02  0.90769973780E+03  0.89802494093E+03 0.  0.
         23    2    4    4    0    0 -0.37015084814E+03 -0.56063479177E+02 -0.13222022331E+03  0.40743058039E+03  0.91447943165E+02 0.  0.
         23    2    4    4    0    0  0.43702331468E+03 -0.90334958217E+01  0.22581764075E+03  0.50026915741E+03  0.90579475416E+02 0.  0.
          4    1    3    3  502    0 -0.26158637163E+02 -0.17207868841E+01 -0.35493998609E+03  0.35590677028E+03  0.00000000000E+00 0. -1.
         -3    1    3    3    0  502 -0.40713829372E+02  0.66817761883E+02 -0.27716596562E+03  0.28799861407E+03  0.00000000000E+00 0.  1.
         13    1    5    5    0    0 -0.36097055047E+03 -0.70952935376E+02 -0.12561106375E+03  0.38873152263E+03  0.00000000000E+00 0.  1.
        -13    1    5    5    0    0 -0.91802976677E+01  0.14889456200E+02 -0.66091595635E+01  0.18699057766E+02  0.00000000000E+00 0. -1.
          1    1    6    6  503    0  0.54047951143E+02  0.56939478320E+01  0.64766158503E+02  0.84547367504E+02  0.00000000000E+00 0. -1.
         -1    1    6    6    0  503  0.38297536353E+03 -0.14727443654E+02  0.16105148224E+03  0.41572178991E+03  0.00000000000E+00 0.  1.
<mgrwt>
<rscale>  0 0.14551588E+04</rscale>
<asrwt>0</asrwt>
<pdfrwt beam="1">  1        2 0.16077797E+00 0.14551588E+04</pdfrwt>
<pdfrwt beam="2">  1       -1 0.77930507E-01 0.14551588E+04</pdfrwt>
<totfact> 0.43008773E+01</totfact>
</mgrwt>
</event>
<event>
12    7  0.1729738E-007  0.1258660E+04  0.7818608E-02  0.9063006E-01
          2   -1    0    0  501    0  0.00000000000E+00  0.00000000000E+00  0.37283030166E+04  0.37283030166E+04  0.00000000000E+00 0. -1.
         -3   -1    0    0    0  501 -0.00000000000E+00 -0.00000000000E+00 -0.10622959725E+03  0.10622959725E+03  0.00000000000E+00 0.  1.
         24    2    1    2    0    0  0.72494379019E+02 -0.29594560608E+03  0.97552886750E+03  0.10241499404E+04  0.66236639238E+02 0.  0.
        254    2    1    2    0    0 -0.72494379019E+02  0.29594560608E+03  0.26465445518E+04  0.28103826734E+04  0.89510528401E+03 0.  0.
         23    2    4    4    0    0 -0.34112198049E+03  0.43929490106E+03  0.21342088105E+04  0.22074389906E+04  0.92711566661E+02 0.  0.
         23    2    4    4    0    0  0.26862760147E+03 -0.14334929498E+03  0.51233574128E+03  0.60294368280E+03  0.91342017673E+02 0.  0.
          2    1    3    3  502    0 -0.65477097815E+01 -0.28491319812E+01  0.39061233934E+02  0.39708563974E+02  0.00000000000E+00 0. -1.
         -1    1    3    3    0  502  0.79042088801E+02 -0.29309647410E+03  0.93646763357E+03  0.98444137644E+03  0.00000000000E+00 0.  1.
         13    1    5    5    0    0 -0.33892311862E+02  0.22397570456E+02  0.25337919012E+03  0.25661518652E+03  0.00000000000E+00 0. -1.
        -13    1    5    5    0    0 -0.30722966863E+03  0.41689733060E+03  0.18808296204E+04  0.19508238041E+04  0.00000000000E+00 0.  1.
          3    1    6    6  503    0  0.40292974268E+02 -0.43614601314E+02  0.16593238560E+03  0.17623652804E+03  0.00000000000E+00 0. -1.
         -3    1    6    6    0  503  0.22833462720E+03 -0.99734693662E+02  0.34640335568E+03  0.42670715476E+03  0.00000000000E+00 0.  1.
<mgrwt>
<rscale>  0 0.12586598E+04</rscale>
<asrwt>0</asrwt>
<pdfrwt beam="1">  1        2 0.57358498E+00 0.12586598E+04</pdfrwt>
<pdfrwt beam="2">  1       -3 0.16343018E-01 0.12586598E+04</pdfrwt>
<totfact> 0.12145580E+01</totfact>
</mgrwt>
</event>
<event>
12    7  0.1729738E-007  0.1463178E+04  0.7818608E-02  0.8909315E-01
         -1   -1    0    0    0  501 -0.00000000000E+00  0.00000000000E+00  0.44315252608E+03  0.44315252608E+03  0.00000000000E+00 0.  1.
          2   -1    0    0  501    0  0.00000000000E+00 -0.00000000000E+00 -0.12077613972E+04  0.12077613972E+04  0.00000000000E+00 0. -1.
         24    2    1    2    0    0  0.29193358745E+03 -0.29010289333E+03 -0.46171319787E+03  0.62378678323E+03  0.80907142127E+02 0.  0.
        254    2    1    2    0    0 -0.29193358745E+03  0.29010289333E+03 -0.30289567326E+03  0.10271271401E+04  0.89098791505E+03 0.  0.
         23    2    4    4    0    0  0.18244972561E+03  0.16316066989E+03 -0.43832959399E+03  0.50997181376E+03  0.89605308403E+02 0.  0.
         23    2    4    4    0    0 -0.47438331306E+03  0.12694222344E+03  0.13543392072E+03  0.51715532630E+03  0.89181998389E+02 0.  0.
          2    1    3    3  502    0  0.29530784813E+03 -0.27402935287E+03 -0.44675684143E+03  0.60157334280E+03  0.00000000000E+00 0. -1.
         -1    1    3    3    0  502 -0.33742606761E+01 -0.16073540456E+02 -0.14956356438E+02  0.22213440431E+02  0.00000000000E+00 0.  1.
         13    1    5    5    0    0  0.10702955982E+03  0.39652250475E+02 -0.22330738339E+03  0.25078639340E+03  0.00000000000E+00 0. -1.
        -13    1    5    5    0    0  0.75420165789E+02  0.12350841941E+03 -0.21502221060E+03  0.25918542035E+03  0.00000000000E+00 0.  1.
          4    1    6    6  503    0 -0.29513174572E+03  0.33715209813E+02  0.82186607260E+02  0.30821113075E+03  0.00000000000E+00 0. -1.
         -4    1    6    6    0  503 -0.17925156733E+03  0.93227013626E+02  0.53247313462E+02  0.20894419555E+03  0.00000000000E+00 0.  1.
<mgrwt>
<rscale>  0 0.14631781E+04</rscale>
<asrwt>0</asrwt>
<pdfrwt beam="1">  1        2 0.18580944E+00 0.14631781E+04</pdfrwt>
<pdfrwt beam="2">  1       -1 0.68177312E-01 0.14631781E+04</pdfrwt>
<totfact> 0.45088425E+01</totfact>
</mgrwt>
</event>
<event>
12    7  0.1729738E-007  0.2669874E+04  0.7818608E-02  0.8344846E-01
          2   -1    0    0  501    0  0.00000000000E+00  0.00000000000E+00  0.28274022947E+04  0.28274022947E+04  0.00000000000E+00 0. -1.
         -1   -1    0    0    0  501 -0.00000000000E+00 -0.00000000000E+00 -0.63028068647E+03  0.63028068647E+03  0.00000000000E+00 0.  1.
         24    2    1    2    0    0  0.65517197270E+03 -0.77542094200E+03  0.17403431749E+04  0.20162666508E+04  0.77517027287E+02 0.  0.
        254    2    1    2    0    0 -0.65517197270E+03  0.77542094200E+03  0.45677843328E+03  0.14414163303E+04  0.91570003232E+03 0.  0.
         23    2    4    4    0    0 -0.48920004317E+03  0.65455310584E+03  0.72205521675E+03  0.10938024864E+04  0.85344551773E+02 0.  0.
         23    2    4    4    0    0 -0.16597192952E+03  0.12086783616E+03 -0.26527678347E+03  0.34761384399E+03  0.91147668535E+02 0.  0.
          4    1    3    3  502    0  0.50406459949E+03 -0.60563754802E+03  0.14110422234E+04  0.16161429752E+04  0.00000000000E+00 0. -1.
         -1    1    3    3    0  502  0.15110737320E+03 -0.16978339397E+03  0.32930095148E+03  0.40012367557E+03  0.00000000000E+00 0.  1.
         13    1    5    5    0    0 -0.28462929304E+03  0.44890179881E+03  0.46877857702E+03  0.70871716058E+03  0.00000000000E+00 0.  1.
        -13    1    5    5    0    0 -0.20457075014E+03  0.20565130704E+03  0.25327663973E+03  0.38508532578E+03  0.00000000000E+00 0. -1.
          3    1    6    6  503    0 -0.17431950369E+03  0.10745323220E+03 -0.25999516901E+03  0.33095464097E+03  0.00000000000E+00 0. -1.
         -3    1    6    6    0  503  0.83475741673E+01  0.13414603957E+02 -0.52816144668E+01  0.16659203018E+02  0.00000000000E+00 0.  1.
<mgrwt>
<rscale>  0 0.26698742E+04</rscale>
<asrwt>0</asrwt>
<pdfrwt beam="1">  1        2 0.43498496E+00 0.26698742E+04</pdfrwt>
<pdfrwt beam="2">  1       -1 0.96966261E-01 0.26698742E+04</pdfrwt>
<totfact> 0.22743445E+00</totfact>
</mgrwt>
</event>
<event>
12    7  0.1729738E-007  0.1677302E+04  0.7818608E-02  0.8774417E-01
         -1   -1    0    0    0  501 -0.00000000000E+00  0.00000000000E+00  0.41994754723E+03  0.41994754723E+03  0.00000000000E+00 0.  1.
          2   -1    0    0  501    0  0.00000000000E+00 -0.00000000000E+00 -0.16748178518E+04  0.16748178518E+04  0.00000000000E+00 0. -1.
         24    2    1    2    0    0 -0.19945150774E+03 -0.39791852670E+03  0.47415018902E+02  0.45453500440E+03  0.78954596932E+02 0.  0.
        254    2    1    2    0    0  0.19945150774E+03  0.39791852670E+03 -0.13022853234E+04  0.16402303946E+04  0.89235005792E+03 0.  0.
         23    2    4    4    0    0 -0.17790293497E+03  0.29857372919E+03 -0.99967260256E+02  0.37294046828E+03  0.91079161843E+02 0.  0.
         23    2    4    4    0    0  0.37735444271E+03  0.99344797513E+02 -0.12023180632E+04  0.12672899263E+04  0.90494574778E+02 0.  0.
          4    1    3    3  502    0 -0.12460346781E+03 -0.21180741853E+03  0.61893629915E+02  0.25341513009E+03  0.00000000000E+00 0. -1.
         -3    1    3    3    0  502 -0.74848039933E+02 -0.18611110817E+03 -0.14478611012E+02  0.20111987431E+03  0.00000000000E+00 0.  1.
         13    1    5    5    0    0 -0.17538978122E+03  0.29672087238E+03 -0.81465619651E+02  0.35417721362E+03  0.00000000000E+00 0. -1.
        -13    1    5    5    0    0 -0.25131537545E+01  0.18528568038E+01 -0.18501640605E+02  0.18763254654E+02  0.00000000000E+00 0.  1.
          1    1    6    6  503    0  0.36493540811E+03  0.74210270739E+02 -0.11260151689E+04  0.11859996530E+04  0.00000000000E+00 0. -1.
         -1    1    6    6    0  503  0.12419034602E+02  0.25134526774E+02 -0.76302894280E+02  0.81290273294E+02  0.00000000000E+00 0.  1.
<mgrwt>
<rscale>  0 0.16773022E+04</rscale>
<asrwt>0</asrwt>
<pdfrwt beam="1">  1        2 0.25766428E+00 0.16773022E+04</pdfrwt>
<pdfrwt beam="2">  1       -1 0.64607315E-01 0.16773022E+04</pdfrwt>
<totfact> 0.26718566E+01</totfact>
</mgrwt>
</event>
<event>
12    7  0.1729738E-007  0.1667550E+04  0.7818608E-02  0.8780091E-01
         -1   -1    0    0    0  501 -0.00000000000E+00  0.00000000000E+00  0.10085315932E+04  0.10085315932E+04  0.00000000000E+00 0.  1.
          2   -1    0    0  501    0  0.00000000000E+00 -0.00000000000E+00 -0.68930023320E+03  0.68930023320E+03  0.00000000000E+00 0. -1.
         24    2    1    2    0    0 -0.38622457017E+03  0.36180209397E+02  0.56310189869E+03  0.68834013493E+03  0.79056732137E+02 0.  0.
        254    2    1    2    0    0  0.38622457017E+03 -0.36180209397E+02 -0.24387053873E+03  0.10094916914E+04  0.89951220629E+03 0.  0.
         23    2    4    4    0    0  0.55499005817E+03 -0.89940010252E+02  0.13206800372E+03  0.58444496075E+03  0.89614644053E+02 0.  0.
         23    2    4    4    0    0 -0.16876548800E+03  0.53759800855E+02 -0.37593854245E+03  0.42504673068E+03  0.89235808052E+02 0.  0.
          4    1    3    3  502    0 -0.10488884705E+03 -0.24021277859E+02  0.13706476907E+03  0.17425683041E+03  0.00000000000E+00 0. -1.
         -3    1    3    3    0  502 -0.28133572312E+03  0.60201487256E+02  0.42603712961E+03  0.51408330452E+03  0.00000000000E+00 0.  1.
         13    1    5    5    0    0  0.51840352360E+03 -0.63502609300E+02  0.10814071734E+03  0.53335654999E+03  0.00000000000E+00 0. -1.
        -13    1    5    5    0    0  0.36586534572E+02 -0.26437400952E+02  0.23927286374E+02  0.51088410763E+02  0.00000000000E+00 0.  1.
          1    1    6    6  503    0 -0.15214847536E+03  0.18786533685E+02 -0.33650887302E+03  0.36978414518E+03  0.00000000000E+00 0. -1.
         -1    1    6    6    0  503 -0.16617012643E+02  0.34973267171E+02 -0.39429669422E+02  0.55262585503E+02  0.00000000000E+00 0.  1.
<mgrwt>
<rscale>  0 0.16675504E+04</rscale>
<asrwt>0</asrwt>
<pdfrwt beam="1">  1        2 0.10604619E+00 0.16675504E+04</pdfrwt>
<pdfrwt beam="2">  1       -1 0.15515871E+00 0.16675504E+04</pdfrwt>
<totfact> 0.14485606E+01</totfact>
</mgrwt>
</event>
<event>
12    7  0.1729738E-007  0.1603494E+04  0.7818608E-02  0.8818405E-01
          2   -1    0    0  501    0  0.00000000000E+00  0.00000000000E+00  0.18931961128E+04  0.18931961128E+04  0.00000000000E+00 0. -1.
         -1   -1    0    0    0  501 -0.00000000000E+00 -0.00000000000E+00 -0.33953052040E+03  0.33953052040E+03  0.00000000000E+00 0.  1.
         24    2    1    2    0    0 -0.35081484353E+03 -0.16321199550E+03  0.10878685030E+04  0.11574818117E+04  0.81222254687E+02 0.  0.
        254    2    1    2    0    0  0.35081484353E+03  0.16321199550E+03  0.46579708940E+03  0.10752448215E+04  0.88852421901E+03 0.  0.
         23    2    4    4    0    0  0.48340157187E+03 -0.12202163551E+03  0.35430507529E+01  0.50685493362E+03  0.91230539324E+02 0.  0.
         23    2    4    4    0    0 -0.13258672834E+03  0.28523363101E+03  0.46225403865E+03  0.56838988789E+03  0.10222917204E+03 0.  0.
          2    1    3    3  502    0 -0.23801967731E+03 -0.13684484294E+03  0.84330513892E+03  0.88687284046E+03  0.00000000000E+00 0. -1.
         -3    1    3    3    0  502 -0.11279516623E+03 -0.26367152561E+02  0.24456336410E+03  0.27060897124E+03  0.00000000000E+00 0.  1.
         13    1    5    5    0    0  0.33506784189E+03 -0.42682602760E+02  0.16174631359E+02  0.33816250819E+03  0.00000000000E+00 0.  1.
        -13    1    5    5    0    0  0.14833372998E+03 -0.79339032750E+02 -0.12631580606E+02  0.16869242543E+03  0.00000000000E+00 0. -1.
          1    1    6    6  503    0 -0.85621013828E+02  0.23338808820E+03  0.41569046414E+03  0.48435474571E+03  0.00000000000E+00 0. -1.
         -1    1    6    6    0  503 -0.46965714509E+02  0.51845542814E+02  0.46563574514E+02  0.84035142176E+02  0.00000000000E+00 0.  1.
<mgrwt>
<rscale>  0 0.16034935E+04</rscale>
<asrwt>0</asrwt>
<pdfrwt beam="1">  1        2 0.29126093E+00 0.16034935E+04</pdfrwt>
<pdfrwt beam="2">  1       -1 0.52235466E-01 0.16034935E+04</pdfrwt>
<totfact> 0.30878890E+01</totfact>
</mgrwt>
</event>
<event>
12    7  0.1729738E-007  0.1377355E+04  0.7818608E-02  0.8970375E-01
         -1   -1    0    0    0  501 -0.00000000000E+00  0.00000000000E+00  0.17203663228E+03  0.17203663228E+03  0.00000000000E+00 0.  1.
          2   -1    0    0  501    0  0.00000000000E+00 -0.00000000000E+00 -0.27568372214E+04  0.27568372214E+04  0.00000000000E+00 0. -1.
         24    2    1    2    0    0  0.28707506405E+03  0.40267658882E+02 -0.12591709047E+04  0.12945766832E+04  0.79898966108E+02 0.  0.
        254    2    1    2    0    0 -0.28707506405E+03 -0.40267658882E+02 -0.13256296844E+04  0.16342971705E+04  0.91082358576E+03 0.  0.
         23    2    4    4    0    0 -0.44529588370E+01  0.36019296475E+03 -0.24700122372E+03  0.44602130673E+03  0.90369247202E+02 0.  0.
         23    2    4    4    0    0 -0.28262210521E+03 -0.40046062363E+03 -0.10786284607E+04  0.11882758637E+04  0.91193237851E+02 0.  0.
          2    1    3    3  502    0  0.19411243484E+03  0.30532087215E+02 -0.99856950482E+03  0.10177194612E+04  0.00000000000E+00 0. -1.
         -1    1    3    3    0  502  0.92962629207E+02  0.97355716663E+01 -0.26060139988E+03  0.27685722206E+03  0.00000000000E+00 0.  1.
         13    1    5    5    0    0 -0.38116684424E+01  0.16856501239E+03 -0.17019635631E+03  0.23957356265E+03  0.00000000000E+00 0. -1.
        -13    1    5    5    0    0 -0.64129039459E+00  0.19162795236E+03 -0.76804867410E+02  0.20644774408E+03  0.00000000000E+00 0.  1.
          2    1    6    6  503    0 -0.96055202939E+02 -0.20854517100E+03 -0.45549759852E+03  0.51009386648E+03  0.00000000000E+00 0. -1.
         -2    1    6    6    0  503 -0.18656690228E+03 -0.19191545264E+03 -0.62313086220E+03  0.67818199726E+03  0.00000000000E+00 0.  1.
<mgrwt>
<rscale>  0 0.13773554E+04</rscale>
<asrwt>0</asrwt>
<pdfrwt beam="1">  1        2 0.42412876E+00 0.13773554E+04</pdfrwt>
<pdfrwt beam="2">  1       -1 0.26467177E-01 0.13773554E+04</pdfrwt>
<totfact> 0.34836514E+01</totfact>
</mgrwt>
</event>
<event>
12    7  0.1729738E-007  0.1935272E+04  0.7818608E-02  0.8637496E-01
          2   -1    0    0  501    0  0.00000000000E+00  0.00000000000E+00  0.16445879464E+04  0.16445879464E+04  0.00000000000E+00 0. -1.
         -1   -1    0    0    0  501 -0.00000000000E+00 -0.00000000000E+00 -0.56933369000E+03  0.56933369000E+03  0.00000000000E+00 0.  1.
         24    2    1    2    0    0 -0.19668811589E+03  0.62576734710E+03 -0.11890421705E+02  0.66073069167E+03  0.78439002739E+02 0.  0.
        254    2    1    2    0    0  0.19668811589E+03 -0.62576734710E+03  0.10871446781E+04  0.15531909447E+04  0.89456557725E+03 0.  0.
         23    2    4    4    0    0  0.12885285140E+03 -0.99498799496E+02  0.98718947518E+03  0.10048219623E+04  0.92849596757E+02 0.  0.
         23    2    4    4    0    0  0.67835264500E+02 -0.52626854761E+03  0.99955202874E+02  0.54836898238E+03  0.95693735121E+02 0.  0.
          4    1    3    3  502    0 -0.51851572274E+02  0.29109991864E+03  0.42018072445E+01  0.29571168959E+03  0.00000000000E+00 0. -1.
         -3    1    3    3    0  502 -0.14483654362E+03  0.33466742846E+03 -0.16092228950E+02  0.36501900207E+03  0.00000000000E+00 0.  1.
         13    1    5    5    0    0  0.11065403861E+03 -0.31550508958E+02  0.68132622877E+03  0.69097408120E+03  0.00000000000E+00 0. -1.
        -13    1    5    5    0    0  0.18198812787E+02 -0.67948290538E+02  0.30586324641E+03  0.31384788111E+03  0.00000000000E+00 0.  1.
          2    1    6    6  503    0  0.82788023633E+02 -0.51019608514E+03  0.91843698304E+02  0.52496587229E+03  0.00000000000E+00 0. -1.
         -2    1    6    6    0  503 -0.14952759134E+02 -0.16072462469E+02  0.81115045701E+01  0.23403110091E+02  0.00000000000E+00 0.  1.
<mgrwt>
<rscale>  0 0.19352719E+04</rscale>
<asrwt>0</asrwt>
<pdfrwt beam="1">  1        2 0.25301353E+00 0.19352719E+04</pdfrwt>
<pdfrwt beam="2">  1       -1 0.87589799E-01 0.19352719E+04</pdfrwt>
<totfact> 0.14364023E+01</totfact>
</mgrwt>
</event>
<event>
12    7  0.1729738E-007  0.1377788E+04  0.7818608E-02  0.8970055E-01
          2   -1    0    0  501    0  0.00000000000E+00  0.00000000000E+00  0.98311229474E+03  0.98311229474E+03  0.00000000000E+00 0. -1.
         -1   -1    0    0    0  501 -0.00000000000E+00 -0.00000000000E+00 -0.48272737515E+03  0.48272737515E+03  0.00000000000E+00 0.  1.
         24    2    1    2    0    0  0.18654794912E+03  0.70234867982E+02  0.50597394157E+03  0.54971315373E+03  0.80261122832E+02 0.  0.
        254    2    1    2    0    0 -0.18654794912E+03 -0.70234867982E+02 -0.55890219721E+01  0.91612651616E+03  0.89416076990E+03 0.  0.
         23    2    4    4    0    0  0.21294538271E+03  0.20107634721E+03 -0.22002888087E+03  0.37974401520E+03  0.10007684666E+03 0.  0.
         23    2    4    4    0    0 -0.39949333183E+03 -0.27131121519E+03  0.21443985890E+03  0.53638250096E+03  0.92287792178E+02 0.  0.
          4    1    3    3  502    0  0.19234820482E+03  0.60570326774E+02  0.45795766112E+03  0.50039166237E+03  0.00000000000E+00 0. -1.
         -3    1    3    3    0  502 -0.58002556982E+01  0.96645412086E+01  0.48016280443E+02  0.49321491365E+02  0.00000000000E+00 0.  1.
         13    1    5    5    0    0  0.47988090054E+02  0.16722174547E+02 -0.34204681829E+01  0.50933167103E+02  0.00000000000E+00 0.  1.
        -13    1    5    5    0    0  0.16495729265E+03  0.18435417267E+03 -0.21660841269E+03  0.32881084810E+03  0.00000000000E+00 0. -1.
          3    1    6    6  503    0 -0.31608995442E+03 -0.22975277694E+03  0.13346390101E+03  0.41293075772E+03  0.00000000000E+00 0. -1.
         -3    1    6    6    0  503 -0.83403377411E+02 -0.41558438250E+02  0.80975957885E+02  0.12345174324E+03  0.00000000000E+00 0.  1.
<mgrwt>
<rscale>  0 0.13777884E+04</rscale>
<asrwt>0</asrwt>
<pdfrwt beam="1">  1        2 0.15124804E+00 0.13777884E+04</pdfrwt>
<pdfrwt beam="2">  1       -1 0.74265750E-01 0.13777884E+04</pdfrwt>
<totfact> 0.52444357E+01</totfact>
</mgrwt>
</event>
<event>
12    7  0.1729738E-007  0.1613774E+04  0.7818608E-02  0.8812130E-01
         -1   -1    0    0    0  501 -0.00000000000E+00  0.00000000000E+00  0.70959017837E+03  0.70959017837E+03  0.00000000000E+00 0.  1.
          2   -1    0    0  501    0  0.00000000000E+00 -0.00000000000E+00 -0.91752511125E+03  0.91752511125E+03  0.00000000000E+00 0. -1.
         24    2    1    2    0    0  0.19424688011E+03 -0.37479665379E+03  0.28630769678E+03  0.51649483305E+03  0.81181483129E+02 0.  0.
        254    2    1    2    0    0 -0.19424688011E+03  0.37479665379E+03 -0.49424262967E+03  0.11106204566E+04  0.90055407359E+03 0.  0.
         23    2    4    4    0    0  0.92835782268E+02  0.72548277982E+02 -0.64018988732E+03  0.65721900187E+03  0.90620028078E+02 0.  0.
         23    2    4    4    0    0 -0.28708266238E+03  0.30224837581E+03  0.14594725765E+03  0.45340145470E+03  0.10247800445E+03 0.  0.
          2    1    3    3  502    0  0.72825476641E+02 -0.69280584945E+02  0.78831035328E+02  0.12774068118E+03  0.00000000000E+00 0. -1.
         -3    1    3    3    0  502  0.12142140347E+03 -0.30551606885E+03  0.20747666146E+03  0.38875415187E+03  0.00000000000E+00 0.  1.
         13    1    5    5    0    0  0.23208554811E+02  0.17426555440E+02 -0.34636643762E+02  0.45188703699E+02  0.00000000000E+00 0.  1.
        -13    1    5    5    0    0  0.69627227457E+02  0.55121722542E+02 -0.60555324355E+03  0.61203029817E+03  0.00000000000E+00 0. -1.
          2    1    6    6  503    0 -0.15164880716E+03  0.14990422126E+03  0.12816415351E+03  0.24878642750E+03  0.00000000000E+00 0. -1.
         -2    1    6    6    0  503 -0.13543385521E+03  0.15234415455E+03  0.17783104142E+02  0.20461502720E+03  0.00000000000E+00 0.  1.
<mgrwt>
<rscale>  0 0.16137742E+04</rscale>
<asrwt>0</asrwt>
<pdfrwt beam="1">  1        2 0.14115771E+00 0.16137742E+04</pdfrwt>
<pdfrwt beam="2">  1       -1 0.10916772E+00 0.16137742E+04</pdfrwt>
<totfact> 0.24243894E+01</totfact>
</mgrwt>
</event>
<event>
12    7  0.1729738E-007  0.2271416E+04  0.7818608E-02  0.8489278E-01
          2   -1    0    0  501    0  0.00000000000E+00  0.00000000000E+00  0.33245303960E+04  0.33245303960E+04  0.00000000000E+00 0. -1.
         -1   -1    0    0    0  501 -0.00000000000E+00 -0.00000000000E+00 -0.38797428206E+03  0.38797428206E+03  0.00000000000E+00 0.  1.
         24    2    1    2    0    0  0.39496787395E+03  0.26143122257E+03 -0.11392880488E+03  0.49403113522E+03  0.82104107116E+02 0.  0.
        254    2    1    2    0    0 -0.39496787395E+03 -0.26143122257E+03  0.30504849188E+04  0.32184735428E+04  0.91036684937E+03 0.  0.
         23    2    4    4    0    0 -0.36625596169E+03  0.25805605017E+03  0.97718308885E+03  0.10789043060E+04  0.91713455720E+02 0.  0.
         23    2    4    4    0    0 -0.28711912254E+02 -0.51948727274E+03  0.20733018299E+04  0.21395692368E+04  0.92112108080E+02 0.  0.
          4    1    3    3  502    0  0.98329124818E+02  0.55231914816E+02  0.71759947836E+01  0.11300741614E+03  0.00000000000E+00 0. -1.
         -3    1    3    3    0  502  0.29663874913E+03  0.20619930775E+03 -0.12110479966E+03  0.38102371908E+03  0.00000000000E+00 0.  1.
         13    1    5    5    0    0 -0.31969052353E+03  0.22277649849E+03  0.90974556497E+03  0.98968095470E+03  0.00000000000E+00 0. -1.
        -13    1    5    5    0    0 -0.46565438159E+02  0.35279551681E+02  0.67437523884E+02  0.89223351345E+02  0.00000000000E+00 0.  1.
          4    1    6    6  503    0  0.16170387108E+02 -0.39228321144E+03  0.15948869398E+04  0.16425017352E+04  0.00000000000E+00 0. -1.
         -4    1    6    6    0  503 -0.44882299362E+02 -0.12720406130E+03  0.47841489015E+03  0.49706750158E+03  0.00000000000E+00 0.  1.
<mgrwt>
<rscale>  0 0.22714157E+04</rscale>
<asrwt>0</asrwt>
<pdfrwt beam="1">  1        2 0.51146620E+00 0.22714157E+04</pdfrwt>
<pdfrwt beam="2">  1       -1 0.59688353E-01 0.22714157E+04</pdfrwt>
<totfact> 0.31620392E+00</totfact>
</mgrwt>
</event>
<event>
12    7  0.1729738E-007  0.1152144E+04  0.7818608E-02  0.9155808E-01
         -1   -1    0    0    0  501 -0.00000000000E+00  0.00000000000E+00  0.33791788573E+03  0.33791788573E+03  0.00000000000E+00 0.  1.
          2   -1    0    0  501    0  0.00000000000E+00 -0.00000000000E+00 -0.98207007479E+03  0.98207007479E+03  0.00000000000E+00 0. -1.
         24    2    1    2    0    0 -0.16174887326E+03 -0.16402167218E+02  0.26723700943E+02  0.18500264223E+03  0.84143284639E+02 0.  0.
        254    2    1    2    0    0  0.16174887326E+03  0.16402167218E+02 -0.67087589000E+03  0.11349853183E+04  0.90093589331E+03 0.  0.
         23    2    4    4    0    0 -0.34600922379E+03  0.28278738329E+02 -0.44176559152E+03  0.56943142801E+03  0.92591810466E+02 0.  0.
         23    2    4    4    0    0  0.50775809705E+03 -0.11876571111E+02 -0.22911029847E+03  0.56555389027E+03  0.96955329261E+02 0.  0.
          4    1    3    3  502    0 -0.35730913624E+02 -0.53051460808E+01 -0.29430496687E+02  0.46593957748E+02  0.00000000000E+00 0. -1.
         -3    1    3    3    0  502 -0.12601795964E+03 -0.11097021137E+02  0.56154197630E+02  0.13840868449E+03  0.00000000000E+00 0.  1.
         13    1    5    5    0    0 -0.28716899580E+03 -0.12084522751E+02 -0.34127038775E+03  0.44618106795E+03  0.00000000000E+00 0. -1.
        -13    1    5    5    0    0 -0.58840227988E+02  0.40363261080E+02 -0.10049520377E+03  0.12325036006E+03  0.00000000000E+00 0.  1.
          1    1    6    6  503    0  0.48370957104E+03 -0.78660594314E+01 -0.19058282151E+03  0.51996022527E+03  0.00000000000E+00 0. -1.
         -1    1    6    6    0  503  0.24048526011E+02 -0.40105116797E+01 -0.38527476963E+02  0.45593665002E+02  0.00000000000E+00 0.  1.
<mgrwt>
<rscale>  0 0.11521442E+04</rscale>
<asrwt>0</asrwt>
<pdfrwt beam="1">  1        2 0.15108770E+00 0.11521442E+04</pdfrwt>
<pdfrwt beam="2">  1       -1 0.51987368E-01 0.11521442E+04</pdfrwt>
<totfact> 0.10877574E+02</totfact>
</mgrwt>
</event>
<event>
12    7  0.1729738E-007  0.4394685E+04  0.7818608E-02  0.7929338E-01
          2   -1    0    0  501    0  0.00000000000E+00  0.00000000000E+00  0.26334216350E+04  0.26334216350E+04  0.00000000000E+00 0. -1.
         -1   -1    0    0    0  501 -0.00000000000E+00 -0.00000000000E+00 -0.18334754242E+04  0.18334754242E+04  0.00000000000E+00 0.  1.
         24    2    1    2    0    0 -0.93182460620E+03 -0.29883505767E+03 -0.15038710721E+04  0.17958095022E+04  0.75525348299E+02 0.  0.
        254    2    1    2    0    0  0.93182460620E+03  0.29883505767E+03  0.23038172828E+04  0.26710875570E+04  0.93248870022E+03 0.  0.
         23    2    4    4    0    0  0.14605231192E+03 -0.27690069862E+03  0.92221789625E+03  0.97815431812E+03  0.91075502644E+02 0.  0.
         23    2    4    4    0    0  0.78577229428E+03  0.57573575629E+03  0.13815993866E+04  0.16929332389E+04  0.91084173967E+02 0.  0.
          2    1    3    3  502    0 -0.34707523287E+03 -0.12482640964E+03 -0.50489387539E+03  0.62526848250E+03  0.00000000000E+00 0. -1.
         -1    1    3    3    0  502 -0.58474937333E+03 -0.17400864803E+03 -0.99897719672E+03  0.11705410197E+04  0.00000000000E+00 0.  1.
         13    1    5    5    0    0  0.10491842661E+03 -0.25890353857E+03  0.82638322576E+03  0.87232342302E+03  0.00000000000E+00 0. -1.
        -13    1    5    5    0    0  0.41133885310E+02 -0.17997160046E+02  0.95834670490E+02  0.10583089510E+03  0.00000000000E+00 0.  1.
          1    1    6    6  503    0  0.71666206078E+03  0.55019435121E+03  0.12980840837E+04  0.15815627151E+04  0.00000000000E+00 0. -1.
         -1    1    6    6    0  503  0.69110233495E+02  0.25541405081E+02  0.83515302854E+02  0.11137052374E+03  0.00000000000E+00 0.  1.
<mgrwt>
<rscale>  0 0.43946849E+04</rscale>
<asrwt>0</asrwt>
<pdfrwt beam="1">  1        2 0.40514179E+00 0.43946849E+04</pdfrwt>
<pdfrwt beam="2">  1       -1 0.28207314E+00 0.43946849E+04</pdfrwt>
<totfact> 0.10900921E-01</totfact>
</mgrwt>
</event>
<event>
12    7  0.1729738E-007  0.1652814E+04  0.7818608E-02  0.8788744E-01
          2   -1    0    0  501    0  0.00000000000E+00  0.00000000000E+00  0.74383300210E+03  0.74383300210E+03  0.00000000000E+00 0. -1.
         -1   -1    0    0    0  501 -0.00000000000E+00 -0.00000000000E+00 -0.91814737012E+03  0.91814737012E+03  0.00000000000E+00 0.  1.
         24    2    1    2    0    0  0.19988256671E+03 -0.53622279948E+03 -0.37063126725E+02  0.57899729632E+03  0.79851503601E+02 0.  0.
        254    2    1    2    0    0 -0.19988256671E+03  0.53622279948E+03 -0.13725124130E+03  0.10829830759E+04  0.90913503303E+03 0.  0.
         23    2    4    4    0    0 -0.14922861680E+02  0.26443562212E+03  0.37484073275E+03  0.46778595619E+03  0.90383825049E+02 0.  0.
         23    2    4    4    0    0 -0.18495970503E+03  0.27178717736E+03 -0.51209197405E+03  0.61519711971E+03  0.90282578383E+02 0.  0.
          4    1    3    3  502    0  0.76985819171E+02 -0.12924659558E+03  0.12672890769E+02  0.15097053018E+03  0.00000000000E+00 0. -1.
         -1    1    3    3    0  502  0.12289674754E+03 -0.40697620390E+03 -0.49736017494E+02  0.42802676614E+03  0.00000000000E+00 0.  1.
         13    1    5    5    0    0 -0.36522592317E+02  0.39323485714E+02  0.75037178023E+02  0.92254075053E+02  0.00000000000E+00 0. -1.
        -13    1    5    5    0    0  0.21599730637E+02  0.22511213641E+03  0.29980355472E+03  0.37553188113E+03  0.00000000000E+00 0.  1.
          1    1    6    6  503    0 -0.96743351171E+02  0.17893664214E+03 -0.38114632159E+03  0.43203022621E+03  0.00000000000E+00 0. -1.
         -1    1    6    6    0  503 -0.88216353861E+02  0.92850535221E+02 -0.13094565245E+03  0.18316689350E+03  0.00000000000E+00 0.  1.
<mgrwt>
<rscale>  0 0.16528137E+04</rscale>
<asrwt>0</asrwt>
<pdfrwt beam="1">  1        2 0.11443585E+00 0.16528137E+04</pdfrwt>
<pdfrwt beam="2">  1       -1 0.14125344E+00 0.16528137E+04</pdfrwt>
<totfact> 0.16927537E+01</totfact>
</mgrwt>
</event>
<event>
12    7  0.1729738E-007  0.1838342E+04  0.7818608E-02  0.8686171E-01
         -1   -1    0    0    0  501 -0.00000000000E+00  0.00000000000E+00  0.10033298848E+04  0.10033298848E+04  0.00000000000E+00 0.  1.
          2   -1    0    0  501    0  0.00000000000E+00 -0.00000000000E+00 -0.84207173027E+03  0.84207173027E+03  0.00000000000E+00 0. -1.
         24    2    1    2    0    0 -0.18256128771E+03 -0.60368474511E+03 -0.23567744861E+03  0.67803407493E+03  0.80140200527E+02 0.  0.
        254    2    1    2    0    0  0.18256128771E+03  0.60368474511E+03  0.39693560312E+03  0.11673675401E+04  0.89856842001E+03 0.  0.
         23    2    4    4    0    0  0.91644788753E+02 -0.14770310495E+03 -0.13415049431E+03  0.23783537853E+03  0.91402065818E+02 0.  0.
         23    2    4    4    0    0  0.90916498956E+02  0.75138785006E+03  0.53108609743E+03  0.92953216159E+03  0.95541014959E+02 0.  0.
          2    1    3    3  502    0 -0.77147481043E+02 -0.33904914594E+03 -0.16314709807E+03  0.38408727238E+03  0.00000000000E+00 0. -1.
         -1    1    3    3    0  502 -0.10541380667E+03 -0.26463559917E+03 -0.72530350538E+02  0.29394680255E+03  0.00000000000E+00 0.  1.
         13    1    5    5    0    0  0.33030943233E+02  0.42345684071E+01 -0.27279601470E+02  0.43048245456E+02  0.00000000000E+00 0. -1.
        -13    1    5    5    0    0  0.58613845520E+02 -0.15193767336E+03 -0.10687089284E+03  0.19478713307E+03  0.00000000000E+00 0.  1.
          2    1    6    6  503    0  0.89768917512E+02  0.36464583674E+03  0.24324969210E+03  0.44743207027E+03  0.00000000000E+00 0. -1.
         -2    1    6    6    0  503  0.11475814436E+01  0.38674201333E+03  0.28783640532E+03  0.48210009131E+03  0.00000000000E+00 0.  1.
<mgrwt>
<rscale>  0 0.18383424E+04</rscale>
<asrwt>0</asrwt>
<pdfrwt beam="1">  1        2 0.12954950E+00 0.18383424E+04</pdfrwt>
<pdfrwt beam="2">  1       -1 0.15435845E+00 0.18383424E+04</pdfrwt>
<totfact> 0.11146471E+01</totfact>
</mgrwt>
</event>
<event>
12    7  0.1729738E-007  0.1396837E+04  0.7818608E-02  0.8956112E-01
          2   -1    0    0  501    0  0.00000000000E+00  0.00000000000E+00  0.34422182564E+04  0.34422182564E+04  0.00000000000E+00 0. -1.
         -3   -1    0    0    0  501 -0.00000000000E+00 -0.00000000000E+00 -0.14170748716E+03  0.14170748716E+03  0.00000000000E+00 0.  1.
         24    2    1    2    0    0 -0.13020341979E+03 -0.29511749063E+03  0.35236818049E+03  0.48451247196E+03  0.80881005634E+02 0.  0.
        254    2    1    2    0    0  0.13020341979E+03  0.29511749063E+03  0.29481425887E+04  0.30994132716E+04  0.90042803192E+03 0.  0.
         23    2    4    4    0    0 -0.32441526021E+03 -0.50197615717E+02  0.70831214815E+03  0.78592590742E+03  0.90600061062E+02 0.  0.
         23    2    4    4    0    0  0.45461867999E+03  0.34531510634E+03  0.22398304406E+04  0.23134873642E+04  0.97276485467E+02 0.  0.
          4    1    3    3  502    0 -0.13232442059E+02 -0.11016397551E+00  0.53747592770E+01  0.14282776209E+02  0.00000000000E+00 0. -1.
         -3    1    3    3    0  502 -0.11697097773E+03 -0.29500732665E+03  0.34699342121E+03  0.47022969576E+03  0.00000000000E+00 0.  1.
         13    1    5    5    0    0 -0.28998740787E+03 -0.26779559322E+02  0.55135716057E+03  0.62354194729E+03  0.00000000000E+00 0.  1.
        -13    1    5    5    0    0 -0.34427852336E+02 -0.23418056395E+02  0.15695498758E+03  0.16238396013E+03  0.00000000000E+00 0. -1.
          2    1    6    6  503    0  0.29085118828E+03  0.18937911579E+03  0.15127191840E+04  0.15520239022E+04  0.00000000000E+00 0. -1.
         -2    1    6    6    0  503  0.16376749171E+03  0.15593599056E+03  0.72711125655E+03  0.76146346196E+03  0.00000000000E+00 0.  1.
<mgrwt>
<rscale>  0 0.13968366E+04</rscale>
<asrwt>0</asrwt>
<pdfrwt beam="1">  1        2 0.52957198E+00 0.13968366E+04</pdfrwt>
<pdfrwt beam="2">  1       -3 0.21801154E-01 0.13968366E+04</pdfrwt>
<totfact> 0.11322540E+01</totfact>
</mgrwt>
</event>
<event>
12    7  0.1729738E-007  0.1527409E+04  0.7818608E-02  0.8866428E-01
         -3   -1    0    0    0  501 -0.00000000000E+00  0.00000000000E+00  0.88800909999E+03  0.88800909999E+03  0.00000000000E+00 0.  1.
          4   -1    0    0  501    0  0.00000000000E+00 -0.00000000000E+00 -0.65680011530E+03  0.65680011530E+03  0.00000000000E+00 0. -1.
         24    2    1    2    0    0  0.27979700652E+03  0.28581832100E+03 -0.23027663020E+03  0.46747656599E+03  0.74354124702E+02 0.  0.
        254    2    1    2    0    0 -0.27979700652E+03 -0.28581832100E+03  0.46148561489E+03  0.10773326493E+04  0.88752362617E+03 0.  0.
         23    2    4    4    0    0  0.18135998901E+03  0.20301934603E+03  0.72932431961E+02  0.29598056059E+03  0.90427054254E+02 0.  0.
         23    2    4    4    0    0 -0.46115699553E+03 -0.48883766703E+03  0.38855318293E+03  0.78135208870E+03  0.88935208533E+02 0.  0.
          2    1    3    3  502    0  0.26352265722E+03  0.25462670766E+03 -0.22932174556E+03  0.43228163749E+03  0.00000000000E+00 0. -1.
         -1    1    3    3    0  502  0.16274349298E+02  0.31191613336E+02 -0.95488463834E+00  0.35194928502E+02  0.00000000000E+00 0.  1.
         13    1    5    5    0    0  0.71942660209E+02  0.10503133631E+03  0.77476633606E+02  0.14903005308E+03  0.00000000000E+00 0. -1.
        -13    1    5    5    0    0  0.10941732880E+03  0.97988009722E+02 -0.45442016456E+01  0.14695050752E+03  0.00000000000E+00 0.  1.
          4    1    6    6  503    0 -0.32151665326E+03 -0.38157068992E+03  0.25501453503E+03  0.56035842352E+03  0.00000000000E+00 0. -1.
         -4    1    6    6    0  503 -0.13964034227E+03 -0.10726697711E+03  0.13353864790E+03  0.22099366518E+03  0.00000000000E+00 0.  1.
<mgrwt>
<rscale>  0 0.15274089E+04</rscale>
<asrwt>0</asrwt>
<pdfrwt beam="1">  1        4 0.10104617E+00 0.15274089E+04</pdfrwt>
<pdfrwt beam="2">  1       -3 0.13661678E+00 0.15274089E+04</pdfrwt>
<totfact> 0.72829203E-01</totfact>
</mgrwt>
</event>
<event>
12    7  0.1729738E-007  0.2010232E+04  0.7818608E-02  0.8601852E-01
         -1   -1    0    0    0  501 -0.00000000000E+00  0.00000000000E+00  0.26269561586E+03  0.26269561586E+03  0.00000000000E+00 0.  1.
          2   -1    0    0  501    0  0.00000000000E+00 -0.00000000000E+00 -0.38457361453E+04  0.38457361453E+04  0.00000000000E+00 0. -1.
         24    2    1    2    0    0 -0.46977261061E+03  0.24764701498E+03 -0.26521454562E+04  0.27059660717E+04  0.79759078850E+02 0.  0.
        254    2    1    2    0    0  0.46977261061E+03 -0.24764701498E+03 -0.93089507329E+03  0.14024656895E+04  0.90461540064E+03 0.  0.
         23    2    4    4    0    0  0.40466535036E+03  0.14379236743E+03 -0.61933056616E+02  0.44293359985E+03  0.89017861466E+02 0.  0.
         23    2    4    4    0    0  0.65107260249E+02 -0.39143938241E+03 -0.86896201667E+03  0.95953208966E+03  0.90239122520E+02 0.  0.
          4    1    3    3  502    0 -0.47064737034E+03  0.25092179103E+03 -0.26273396891E+04  0.26809297891E+04  0.00000000000E+00 0. -1.
         -3    1    3    3    0  502  0.87475973101E+00 -0.32747760500E+01 -0.24805767079E+02  0.25036282535E+02  0.00000000000E+00 0.  1.
         13    1    5    5    0    0  0.35717859762E+03  0.15462003503E+03 -0.62669485142E+02  0.39422248820E+03  0.00000000000E+00 0.  1.
        -13    1    5    5    0    0  0.47486752737E+02 -0.10827667603E+02  0.73642852586E+00  0.48711111650E+02  0.00000000000E+00 0. -1.
          4    1    6    6  503    0  0.36757596573E+02 -0.12254191500E+03 -0.19358247530E+03  0.23203839463E+03  0.00000000000E+00 0. -1.
         -4    1    6    6    0  503  0.28349663676E+02 -0.26889746740E+03 -0.67537954137E+03  0.72749369503E+03  0.00000000000E+00 0.  1.
<mgrwt>
<rscale>  0 0.20102319E+04</rscale>
<asrwt>0</asrwt>
<pdfrwt beam="1">  1        2 0.59165169E+00 0.20102319E+04</pdfrwt>
<pdfrwt beam="2">  1       -1 0.40414712E-01 0.20102319E+04</pdfrwt>
<totfact> 0.28858358E+00</totfact>
</mgrwt>
</event>
<event>
12    7  0.1729738E-007  0.1638069E+04  0.7818608E-02  0.8797496E-01
         -3   -1    0    0    0  501 -0.00000000000E+00  0.00000000000E+00  0.27724127100E+03  0.27724127100E+03  0.00000000000E+00 0.  1.
          2   -1    0    0  501    0  0.00000000000E+00 -0.00000000000E+00 -0.24196173784E+04  0.24196173784E+04  0.00000000000E+00 0. -1.
         24    2    1    2    0    0 -0.14554495994E+03 -0.54572843781E+03 -0.66915524692E+03  0.87959312758E+03  0.83141219734E+02 0.  0.
        254    2    1    2    0    0  0.14554495994E+03  0.54572843781E+03 -0.14732208604E+04  0.18172655218E+04  0.90170472428E+03 0.  0.
         23    2    4    4    0    0  0.22199358133E+03  0.23924922025E+03 -0.33922500152E+02  0.34091955013E+03  0.92488183608E+02 0.  0.
         23    2    4    4    0    0 -0.76448621383E+02  0.30647921756E+03 -0.14392983603E+04  0.14763459716E+04  0.90795129499E+02 0.  0.
          4    1    3    3  502    0 -0.63707850188E+01 -0.93411771099E+02 -0.15256407833E+03  0.17900319516E+03  0.00000000000E+00 0. -1.
         -3    1    3    3    0  502 -0.13917417492E+03 -0.45231666671E+03 -0.51659116859E+03  0.70058993242E+03  0.00000000000E+00 0.  1.
         13    1    5    5    0    0  0.20734647432E+03  0.17466426191E+03 -0.12813876065E+02  0.27141179086E+03  0.00000000000E+00 0.  1.
        -13    1    5    5    0    0  0.14647107005E+02  0.64584958342E+02 -0.21108624087E+02  0.69507759268E+02  0.00000000000E+00 0. -1.
          4    1    6    6  503    0  0.49541987592E+01  0.16703513070E+03 -0.71507770358E+03  0.73434419800E+03  0.00000000000E+00 0. -1.
         -4    1    6    6    0  503 -0.81402820143E+02  0.13944408686E+03 -0.72422065670E+03  0.74200177364E+03  0.00000000000E+00 0.  1.
<mgrwt>
<rscale>  0 0.16380693E+04</rscale>
<asrwt>0</asrwt>
<pdfrwt beam="1">  1        2 0.37224884E+00 0.16380693E+04</pdfrwt>
<pdfrwt beam="2">  1       -3 0.42652501E-01 0.16380693E+04</pdfrwt>
<totfact> 0.13093106E+01</totfact>
</mgrwt>
</event>
<event>
12    7  0.1729738E-007  0.1927150E+04  0.7818608E-02  0.8641459E-01
          2   -1    0    0  501    0  0.00000000000E+00  0.00000000000E+00  0.39264549444E+04  0.39264549444E+04  0.00000000000E+00 0. -1.
         -1   -1    0    0    0  501 -0.00000000000E+00 -0.00000000000E+00 -0.23646686274E+03  0.23646686274E+03  0.00000000000E+00 0.  1.
         24    2    1    2    0    0  0.41888365753E+03  0.49499527910E+03  0.22827468524E+04  0.23739669392E+04  0.65589568548E+02 0.  0.
        254    2    1    2    0    0 -0.41888365753E+03 -0.49499527910E+03  0.14072412293E+04  0.17889548679E+04  0.89417436622E+03 0.  0.
         23    2    4    4    0    0 -0.46973595974E+03 -0.41201559552E+03  0.34661481356E+03  0.72032394061E+03  0.91192256259E+02 0.  0.
         23    2    4    4    0    0  0.50852302213E+02 -0.82979683576E+02  0.10606264157E+04  0.10686309273E+04  0.87017702655E+02 0.  0.
          4    1    3    3  502    0  0.23804723104E+03  0.28100744177E+03  0.14132560750E+04  0.14604534912E+04  0.00000000000E+00 0. -1.
         -3    1    3    3    0  502  0.18083642649E+03  0.21398783733E+03  0.86949077740E+03  0.91351344799E+03  0.00000000000E+00 0.  1.
         13    1    5    5    0    0 -0.17700383441E+03 -0.10687024171E+03  0.13990000374E+03  0.24964698477E+03  0.00000000000E+00 0. -1.
        -13    1    5    5    0    0 -0.29273212534E+03 -0.30514535382E+03  0.20671480982E+03  0.47067695584E+03  0.00000000000E+00 0.  1.
          4    1    6    6  503    0  0.59124643383E+02 -0.34661648489E+02  0.37191466623E+03  0.37817677386E+03  0.00000000000E+00 0. -1.
         -4    1    6    6    0  503 -0.82723411705E+01 -0.48318035087E+02  0.68871174947E+03  0.69045415344E+03  0.00000000000E+00 0.  1.
<mgrwt>
<rscale>  0 0.19271497E+04</rscale>
<asrwt>0</asrwt>
<pdfrwt beam="1">  1        2 0.60406994E+00 0.19271497E+04</pdfrwt>
<pdfrwt beam="2">  1       -1 0.36379520E-01 0.19271497E+04</pdfrwt>
<totfact> 0.30501306E+00</totfact>
</mgrwt>
</event>
<event>
12    7  0.1729738E-007  0.3461716E+04  0.7818608E-02  0.8122923E-01
         -1   -1    0    0    0  501 -0.00000000000E+00  0.00000000000E+00  0.43570354971E+04  0.43570354971E+04  0.00000000000E+00 0.  1.
          2   -1    0    0  501    0  0.00000000000E+00 -0.00000000000E+00 -0.68759363073E+03  0.68759363073E+03  0.00000000000E+00 0. -1.
         24    2    1    2    0    0 -0.87273988277E+03  0.12525357183E+04  0.24742674730E+04  0.29081471049E+04  0.69277894692E+02 0.  0.
        254    2    1    2    0    0  0.87273988277E+03 -0.12525357183E+04  0.11951743933E+04  0.21364820229E+04  0.89754831356E+03 0.  0.
         23    2    4    4    0    0  0.73545227334E+03 -0.32110519943E+03  0.70136866257E+03  0.10694549905E+04  0.88415951373E+02 0.  0.
         23    2    4    4    0    0  0.13728760943E+03 -0.93143051891E+03  0.49380573072E+03  0.10670270324E+04  0.91059809493E+02 0.  0.
          2    1    3    3  502    0 -0.15529459098E+03  0.21824940852E+03  0.38583876340E+03  0.46970284824E+03  0.00000000000E+00 0. -1.
         -1    1    3    3    0  502 -0.71744529179E+03  0.10342863098E+04  0.20884287097E+04  0.24384442566E+04  0.00000000000E+00 0.  1.
         13    1    5    5    0    0  0.72983417073E+03 -0.30811572122E+03  0.69529905996E+03  0.10540559744E+04  0.00000000000E+00 0. -1.
        -13    1    5    5    0    0  0.56181026163E+01 -0.12989478213E+02  0.60696026069E+01  0.15399016107E+02  0.00000000000E+00 0.  1.
          4    1    6    6  503    0  0.11040450368E+03 -0.86138722698E+03  0.47427336623E+03  0.98950105364E+03  0.00000000000E+00 0. -1.
         -4    1    6    6    0  503  0.26883105748E+02 -0.70043291930E+02  0.19532364487E+02  0.77525978752E+02  0.00000000000E+00 0.  1.
<mgrwt>
<rscale>  0 0.34617163E+04</rscale>
<asrwt>0</asrwt>
<pdfrwt beam="1">  1        2 0.10578364E+00 0.34617163E+04</pdfrwt>
<pdfrwt beam="2">  1       -1 0.67031314E+00 0.34617163E+04</pdfrwt>
<totfact> 0.98482612E-03</totfact>
</mgrwt>
</event>
<event>
12    7  0.1729738E-007  0.1408233E+04  0.7818608E-02  0.8947881E-01
          2   -1    0    0  501    0  0.00000000000E+00  0.00000000000E+00  0.35946866620E+04  0.35946866620E+04  0.00000000000E+00 0. -1.
         -1   -1    0    0    0  501 -0.00000000000E+00 -0.00000000000E+00 -0.13792021695E+03  0.13792021695E+03  0.00000000000E+00 0.  1.
         24    2    1    2    0    0  0.75071264624E+02 -0.30890797332E+03  0.16864951928E+04  0.17180951529E+04  0.80778018961E+02 0.  0.
        254    2    1    2    0    0 -0.75071264624E+02  0.30890797332E+03  0.17702712523E+04  0.20145117261E+04  0.90737938983E+03 0.  0.
         23    2    4    4    0    0  0.35052233602E+03  0.34214992090E+03  0.70495139194E+03  0.86326744693E+03  0.91333145768E+02 0.  0.
         23    2    4    4    0    0 -0.42559360065E+03 -0.33241947581E+02  0.10653198603E+04  0.11512442791E+04  0.90675495167E+02 0.  0.
          4    1    3    3  502    0  0.21598762150E+02 -0.16827303393E+03  0.10783785237E+04  0.10916421396E+04  0.00000000000E+00 0. -1.
         -3    1    3    3    0  502  0.53472502474E+02 -0.14063493939E+03  0.60811666907E+03  0.62645301332E+03  0.00000000000E+00 0.  1.
         13    1    5    5    0    0  0.24090220028E+03  0.28894546672E+03  0.52114324480E+03  0.64273916516E+03  0.00000000000E+00 0.  1.
        -13    1    5    5    0    0  0.10962013574E+03  0.53204454184E+02  0.18380814714E+03  0.22052828177E+03  0.00000000000E+00 0. -1.
          3    1    6    6  503    0 -0.29415248176E+02  0.17313122990E+02  0.12599895006E+03  0.13054017186E+03  0.00000000000E+00 0. -1.
         -3    1    6    6    0  503 -0.39617835247E+03 -0.50555070571E+02  0.93932091027E+03  0.10207041073E+04  0.00000000000E+00 0.  1.
<mgrwt>
<rscale>  0 0.14082329E+04</rscale>
<asrwt>0</asrwt>
<pdfrwt beam="1">  1        2 0.55302865E+00 0.14082329E+04</pdfrwt>
<pdfrwt beam="2">  1       -1 0.21218498E-01 0.14082329E+04</pdfrwt>
<totfact> 0.14558347E+01</totfact>
</mgrwt>
</event>
<event>
12    7  0.1729738E-007  0.1888782E+04  0.7818608E-02  0.8660461E-01
         -1   -1    0    0    0  501 -0.00000000000E+00  0.00000000000E+00  0.45708003523E+03  0.45708003523E+03  0.00000000000E+00 0.  1.
          2   -1    0    0  501    0  0.00000000000E+00 -0.00000000000E+00 -0.19512430660E+04  0.19512430660E+04  0.00000000000E+00 0. -1.
         24    2    1    2    0    0  0.56708388000E+03 -0.20656152692E+03 -0.53038214158E+02  0.61127460272E+03  0.81189878774E+02 0.  0.
        254    2    1    2    0    0 -0.56708388000E+03  0.20656152692E+03 -0.14411248166E+04  0.17970484985E+04  0.88785740834E+03 0.  0.
         23    2    4    4    0    0 -0.20745822003E+03 -0.21077688559E+02 -0.13283180532E+04  0.13476745389E+04  0.91184594547E+02 0.  0.
         23    2    4    4    0    0 -0.35962565997E+03  0.22763921547E+03 -0.11280676338E+03  0.44937395959E+03  0.89785087625E+02 0.  0.
          2    1    3    3  502    0  0.72461190906E+02 -0.55937414688E+02 -0.15728422596E+02  0.92881654953E+02  0.00000000000E+00 0. -1.
         -1    1    3    3    0  502  0.49462268909E+03 -0.15062411223E+03 -0.37309791563E+02  0.51839294777E+03  0.00000000000E+00 0.  1.
         13    1    5    5    0    0 -0.70169024421E+02  0.35607412446E+02 -0.49739952583E+03  0.50358501577E+03  0.00000000000E+00 0. -1.
        -13    1    5    5    0    0 -0.13728919561E+03 -0.56685101004E+02 -0.83091852740E+03  0.84408952315E+03  0.00000000000E+00 0.  1.
          1    1    6    6  503    0 -0.31493715770E+03  0.22224346458E+03 -0.12018580030E+03  0.40376007411E+03  0.00000000000E+00 0. -1.
         -1    1    6    6    0  503 -0.44688502272E+02  0.53957508931E+01  0.73790369154E+01  0.45613885482E+02  0.00000000000E+00 0.  1.
<mgrwt>
<rscale>  0 0.18887819E+04</rscale>
<asrwt>0</asrwt>
<pdfrwt beam="1">  1        2 0.30019124E+00 0.18887819E+04</pdfrwt>
<pdfrwt beam="2">  1       -1 0.70320005E-01 0.18887819E+04</pdfrwt>
<totfact> 0.15516017E+01</totfact>
</mgrwt>
</event>
<event>
12    7  0.1729738E-007  0.1202033E+04  0.7818608E-02  0.9111078E-01
         -1   -1    0    0    0  501 -0.00000000000E+00  0.00000000000E+00  0.95724838464E+03  0.95724838464E+03  0.00000000000E+00 0.  1.
          2   -1    0    0  501    0  0.00000000000E+00 -0.00000000000E+00 -0.37735360008E+03  0.37735360008E+03  0.00000000000E+00 0. -1.
         24    2    1    2    0    0 -0.20439881605E+03  0.12915262458E+03  0.91735734776E+02  0.27373729922E+03  0.89762951772E+02 0.  0.
        254    2    1    2    0    0  0.20439881605E+03 -0.12915262458E+03  0.48815904978E+03  0.10608646855E+04  0.91031606963E+03 0.  0.
         23    2    4    4    0    0  0.10458521594E+03 -0.53580421511E+02  0.74510640474E+03  0.75977742556E+03  0.90935433395E+02 0.  0.
         23    2    4    4    0    0  0.99813600105E+02 -0.75572203074E+02 -0.25694735495E+03  0.30108725994E+03  0.94645032821E+02 0.  0.
          2    1    3    3  502    0 -0.49442527856E+01 -0.12253215619E+02  0.23810427732E+01  0.13425955955E+02  0.00000000000E+00 0. -1.
         -1    1    3    3    0  502 -0.19945456326E+03  0.14140584020E+03  0.89354692003E+02  0.26031134326E+03  0.00000000000E+00 0.  1.
         13    1    5    5    0    0 -0.12461011437E+00  0.13276186316E+02  0.21081881127E+03  0.21123646427E+03  0.00000000000E+00 0. -1.
        -13    1    5    5    0    0  0.10470982606E+03 -0.66856607826E+02  0.53428759347E+03  0.54854096129E+03  0.00000000000E+00 0.  1.
          2    1    6    6  503    0 -0.93460783030E+01  0.13049381525E+02 -0.32259299795E+02  0.36031901991E+02  0.00000000000E+00 0. -1.
         -2    1    6    6    0  503  0.10915967841E+03 -0.88621584599E+02 -0.22468805516E+03  0.26505535795E+03  0.00000000000E+00 0.  1.
<mgrwt>
<rscale>  0 0.12020335E+04</rscale>
<asrwt>0</asrwt>
<pdfrwt beam="1">  1        2 0.58054401E-01 0.12020335E+04</pdfrwt>
<pdfrwt beam="2">  1       -1 0.14726898E+00 0.12020335E+04</pdfrwt>
<totfact> 0.35163009E+01</totfact>
</mgrwt>
</event>
<event>
12    7  0.1729738E-007  0.1715146E+04  0.7818608E-02  0.8752773E-01
         -1   -1    0    0    0  501 -0.00000000000E+00  0.00000000000E+00  0.60698198460E+03  0.60698198460E+03  0.00000000000E+00 0.  1.
          2   -1    0    0  501    0  0.00000000000E+00 -0.00000000000E+00 -0.12116203291E+04  0.12116203291E+04  0.00000000000E+00 0. -1.
         24    2    1    2    0    0  0.21812312939E+03  0.20799175176E+03  0.41298351157E+03  0.51633375345E+03  0.72158823082E+02 0.  0.
        254    2    1    2    0    0 -0.21812312939E+03 -0.20799175176E+03 -0.10176218561E+04  0.13022685603E+04  0.75465945479E+03 0.  0.
         23    2    4    4    0    0  0.11358681470E+03 -0.13071275729E+03  0.29390057129E+02  0.19740381119E+03  0.90092729015E+02 0.  0.
         23    2    4    4    0    0 -0.33170994409E+03 -0.77278994474E+02 -0.10470119132E+04  0.11048647491E+04  0.92133801326E+02 0.  0.
          4    1    3    3  502    0  0.75809384086E+02  0.30303235183E+02  0.95049705756E+02  0.12529882419E+03  0.00000000000E+00 0. -1.
         -3    1    3    3    0  502  0.14231374531E+03  0.17768851658E+03  0.31793380581E+03  0.39103492927E+03  0.00000000000E+00 0.  1.
         13    1    5    5    0    0  0.81275995625E+02 -0.48833646928E+02 -0.19370839040E+02  0.96776763441E+02  0.00000000000E+00 0. -1.
        -13    1    5    5    0    0  0.32310819076E+02 -0.81879110361E+02  0.48760896169E+02  0.10062704775E+03  0.00000000000E+00 0.  1.
          1    1    6    6  503    0 -0.30688808442E+03 -0.67207679765E+02 -0.10180168489E+04  0.10653898222E+04  0.00000000000E+00 0.  1.
         -1    1    6    6    0  503 -0.24821859670E+02 -0.10071314709E+02 -0.28995064264E+02  0.39474926841E+02  0.00000000000E+00 0. -1.
<mgrwt>
<rscale>  0 0.17151463E+04</rscale>
<asrwt>0</asrwt>
<pdfrwt beam="1">  1        2 0.18640313E+00 0.17151463E+04</pdfrwt>
<pdfrwt beam="2">  1       -1 0.93381845E-01 0.17151463E+04</pdfrwt>
<totfact> 0.22482476E+01</totfact>
</mgrwt>
</event>
<event>
12    7  0.1729738E-007  0.1615536E+04  0.7818608E-02  0.8811060E-01
         -1   -1    0    0    0  501 -0.00000000000E+00  0.00000000000E+00  0.87077481731E+03  0.87077481731E+03  0.00000000000E+00 0.  1.
          2   -1    0    0  501    0  0.00000000000E+00 -0.00000000000E+00 -0.74931992296E+03  0.74931992296E+03  0.00000000000E+00 0. -1.
         24    2    1    2    0    0  0.50276541580E+03 -0.20420998741E+02  0.22064924958E+03  0.55600520984E+03  0.85238615150E+02 0.  0.
        254    2    1    2    0    0 -0.50276541580E+03  0.20420998741E+02 -0.99194355235E+02  0.10640895304E+04  0.93233949189E+03 0.  0.
         23    2    4    4    0    0 -0.30499059465E+03 -0.22512149886E+03  0.33911258856E+03  0.51670056676E+03  0.91011954648E+02 0.  0.
         23    2    4    4    0    0 -0.19777482114E+03  0.24554249760E+03 -0.43830694380E+03  0.54738896367E+03  0.90087194196E+02 0.  0.
          2    1    3    3  502    0  0.18006369611E+03 -0.40785756497E+02  0.54670115865E+02  0.19254930318E+03  0.00000000000E+00 0. -1.
         -1    1    3    3    0  502  0.32270171969E+03  0.20364757756E+02  0.16597913372E+03  0.36345590665E+03  0.00000000000E+00 0.  1.
         13    1    5    5    0    0 -0.19414436091E+03 -0.18871234966E+03  0.26259742304E+03  0.37717607344E+03  0.00000000000E+00 0. -1.
        -13    1    5    5    0    0 -0.11084623375E+03 -0.36409149203E+02  0.76515165524E+02  0.13952449332E+03  0.00000000000E+00 0.  1.
          4    1    6    6  503    0 -0.10789281588E+03  0.11441980664E+03 -0.14569702750E+03  0.21438371135E+03  0.00000000000E+00 0.  1.
         -4    1    6    6    0  503 -0.89882005263E+02  0.13112269096E+03 -0.29260991630E+03  0.33300525232E+03  0.00000000000E+00 0. -1.
<mgrwt>
<rscale>  0 0.16155357E+04</rscale>
<asrwt>0</asrwt>
<pdfrwt beam="1">  1        2 0.11527999E+00 0.16155357E+04</pdfrwt>
<pdfrwt beam="2">  1       -1 0.13396536E+00 0.16155357E+04</pdfrwt>
<totfact> 0.19294465E+01</totfact>
</mgrwt>
</event>
<event>
12    7  0.1729738E-007  0.1733017E+04  0.7818608E-02  0.8742755E-01
          2   -1    0    0  501    0  0.00000000000E+00  0.00000000000E+00  0.13959189932E+04  0.13959189932E+04  0.00000000000E+00 0. -1.
         -1   -1    0    0    0  501 -0.00000000000E+00 -0.00000000000E+00 -0.53787984009E+03  0.53787984009E+03  0.00000000000E+00 0.  1.
         24    2    1    2    0    0 -0.45302287248E+03  0.39909915617E+03  0.51541310052E+03  0.79758833217E+03  0.77373276860E+02 0.  0.
        254    2    1    2    0    0  0.45302287248E+03 -0.39909915617E+03  0.34262605263E+03  0.11362105012E+04  0.89948420308E+03 0.  0.
         23    2    4    4    0    0  0.53196420066E+03 -0.61953544516E+03  0.18929752854E+03  0.84335836841E+03  0.92788494233E+02 0.  0.
         23    2    4    4    0    0 -0.78941328187E+02  0.22043628898E+03  0.15332852409E+03  0.29285213276E+03  0.86190745261E+02 0.  0.
          4    1    3    3  502    0 -0.30898802174E+03  0.23430066852E+03  0.36029606364E+03  0.52932377079E+03  0.00000000000E+00 0. -1.
         -3    1    3    3    0  502 -0.14403485073E+03  0.16479848765E+03  0.15511703688E+03  0.26826456138E+03  0.00000000000E+00 0.  1.
         13    1    5    5    0    0  0.40911229186E+03 -0.52368935003E+03  0.17296097321E+03  0.68668690168E+03  0.00000000000E+00 0. -1.
        -13    1    5    5    0    0  0.12285190880E+03 -0.95846095131E+02  0.16336555336E+02  0.15667146673E+03  0.00000000000E+00 0.  1.
          4    1    6    6  503    0  0.79678357608E+01  0.61397653995E+02  0.12092326046E+02  0.63082348339E+02  0.00000000000E+00 0. -1.
         -4    1    6    6    0  503 -0.86909163948E+02  0.15903863499E+03  0.14123619804E+03  0.22976978442E+03  0.00000000000E+00 0.  1.
<mgrwt>
<rscale>  0 0.17330167E+04</rscale>
<asrwt>0</asrwt>
<pdfrwt beam="1">  1        2 0.21475677E+00 0.17330167E+04</pdfrwt>
<pdfrwt beam="2">  1       -1 0.82750745E-01 0.17330167E+04</pdfrwt>
<totfact> 0.22833742E+01</totfact>
</mgrwt>
</event>
<event>
12    7  0.1729738E-007  0.1443172E+04  0.7818608E-02  0.8923148E-01
          2   -1    0    0  501    0  0.00000000000E+00  0.00000000000E+00  0.47562360618E+03  0.47562360618E+03  0.00000000000E+00 0. -1.
         -1   -1    0    0    0  501 -0.00000000000E+00 -0.00000000000E+00 -0.10947448535E+04  0.10947448535E+04  0.00000000000E+00 0.  1.
         24    2    1    2    0    0  0.16332725296E+03  0.33173660654E+03 -0.41316769226E+03  0.56012528700E+03  0.79421832796E+02 0.  0.
        254    2    1    2    0    0 -0.16332725296E+03 -0.33173660654E+03 -0.20595355502E+03  0.10102431726E+04  0.91730552892E+03 0.  0.
         23    2    4    4    0    0 -0.26318848483E+03 -0.49934684849E+03  0.15261243736E+03  0.59201466213E+03  0.92603188421E+02 0.  0.
         23    2    4    4    0    0  0.99861231865E+02  0.16761024194E+03 -0.35856599238E+03  0.41822851052E+03  0.90994820093E+02 0.  0.
          2    1    3    3  502    0  0.72915119260E+02  0.11611242033E+03 -0.20763167224E+03  0.24881643854E+03  0.00000000000E+00 0. -1.
         -1    1    3    3    0  502  0.90412133703E+02  0.21562418621E+03 -0.20553602002E+03  0.31130884845E+03  0.00000000000E+00 0.  1.
         13    1    5    5    0    0 -0.32322048516E+02 -0.45727830926E+02  0.44847205651E+02  0.71742743160E+02  0.00000000000E+00 0.  1.
        -13    1    5    5    0    0 -0.23086643631E+03 -0.45361901756E+03  0.10776523171E+03  0.52027191897E+03  0.00000000000E+00 0. -1.
          2    1    6    6  503    0  0.59055466934E+02  0.16266657646E+03 -0.30543879873E+03  0.35105672339E+03  0.00000000000E+00 0. -1.
         -2    1    6    6    0  503  0.40805764930E+02  0.49436654843E+01 -0.53127193654E+02  0.67171787125E+02  0.00000000000E+00 0.  1.
<mgrwt>
<rscale>  0 0.14431722E+04</rscale>
<asrwt>0</asrwt>
<pdfrwt beam="1">  1        2 0.73172863E-01 0.14431722E+04</pdfrwt>
<pdfrwt beam="2">  1       -1 0.16842228E+00 0.14431722E+04</pdfrwt>
<totfact> 0.18298415E+01</totfact>
</mgrwt>
</event>
<event>
12    7  0.1729738E-007  0.1609719E+04  0.7818608E-02  0.8814599E-01
         -1   -1    0    0    0  501 -0.00000000000E+00  0.00000000000E+00  0.34648127728E+03  0.34648127728E+03  0.00000000000E+00 0.  1.
          2   -1    0    0  501    0  0.00000000000E+00 -0.00000000000E+00 -0.18696514242E+04  0.18696514242E+04  0.00000000000E+00 0. -1.
         24    2    1    2    0    0  0.25891125651E+03  0.66822247077E+02 -0.10890231226E+04  0.11245201645E+04  0.84106999925E+02 0.  0.
        254    2    1    2    0    0 -0.25891125651E+03 -0.66822247077E+02 -0.43414702434E+03  0.10916125370E+04  0.96521191490E+03 0.  0.
         23    2    4    4    0    0 -0.22035451435E+03 -0.98069115396E+02  0.27282197990E+03  0.37699289196E+03  0.97560978269E+02 0.  0.
         23    2    4    4    0    0 -0.38556742163E+02  0.31246868319E+02 -0.70696900424E+03  0.71461964501E+03  0.91722815728E+02 0.  0.
          4    1    3    3  502    0  0.24247101761E+03  0.54980999636E+02 -0.87790507682E+03  0.91243215014E+03  0.00000000000E+00 0. -1.
         -3    1    3    3    0  502  0.16440238899E+02  0.11841247441E+02 -0.21111804579E+03  0.21208801440E+03  0.00000000000E+00 0.  1.
         13    1    5    5    0    0 -0.21856696189E+03 -0.11211651170E+03  0.25301546782E+03  0.35264494322E+03  0.00000000000E+00 0. -1.
        -13    1    5    5    0    0 -0.17875524574E+01  0.14047396302E+02  0.19806512085E+02  0.24347948735E+02  0.00000000000E+00 0.  1.
          4    1    6    6  503    0 -0.37541903466E+02 -0.69984092658E+01 -0.59634786393E+03  0.59756936590E+03  0.00000000000E+00 0. -1.
         -4    1    6    6    0  503 -0.10148386975E+01  0.38245277585E+02 -0.11062114031E+03  0.11705027911E+03  0.00000000000E+00 0.  1.
<mgrwt>
<rscale>  0 0.16097195E+04</rscale>
<asrwt>0</asrwt>
<pdfrwt beam="1">  1        2 0.28763868E+00 0.16097195E+04</pdfrwt>
<pdfrwt beam="2">  1       -1 0.53304812E-01 0.16097195E+04</pdfrwt>
<totfact> 0.30588331E+01</totfact>
</mgrwt>
</event>
<event>
12    7  0.1729738E-007  0.2769828E+04  0.7818608E-02  0.8312697E-01
         -1   -1    0    0    0  501 -0.00000000000E+00  0.00000000000E+00  0.72631674931E+03  0.72631674931E+03  0.00000000000E+00 0.  1.
          2   -1    0    0  501    0  0.00000000000E+00 -0.00000000000E+00 -0.26407029555E+04  0.26407029555E+04  0.00000000000E+00 0. -1.
         24    2    1    2    0    0  0.34321300857E+02  0.30501968377E+03  0.60120006469E+03  0.67971904122E+03  0.79758999700E+02 0.  0.
        254    2    1    2    0    0 -0.34321300857E+02 -0.30501968377E+03 -0.25155862709E+04  0.26873006636E+04  0.89397741082E+03 0.  0.
         23    2    4    4    0    0  0.11620148745E+02  0.26335156134E+03 -0.35792606510E+03  0.45370051798E+03  0.90796581563E+02 0.  0.
         23    2    4    4    0    0 -0.45941449602E+02 -0.56837124511E+03 -0.21576602058E+04  0.22336001456E+04  0.91189680140E+02 0.  0.
          2    1    3    3  502    0  0.67692939910E+01  0.70437393365E+02  0.22170820855E+03  0.23272683443E+03  0.00000000000E+00 0. -1.
         -1    1    3    3    0  502  0.27552006866E+02  0.23458229040E+03  0.37949185614E+03  0.44699220679E+03  0.00000000000E+00 0.  1.
         13    1    5    5    0    0  0.18795637932E+02  0.26885159535E+03 -0.34252027109E+03  0.43583780519E+03  0.00000000000E+00 0.  1.
        -13    1    5    5    0    0 -0.71754891864E+01 -0.55000340101E+01 -0.15405794010E+02  0.17862712791E+02  0.00000000000E+00 0. -1.
          2    1    6    6  503    0  0.84510593071E+01 -0.33200038446E+01 -0.22384625523E+02  0.24156040419E+02  0.00000000000E+00 0. -1.
         -2    1    6    6    0  503 -0.54392508909E+02 -0.56505124126E+03 -0.21352755802E+04  0.22094441052E+04  0.00000000000E+00 0.  1.
<mgrwt>
<rscale>  0 0.27698280E+04</rscale>
<asrwt>0</asrwt>
<pdfrwt beam="1">  1        2 0.40626200E+00 0.27698280E+04</pdfrwt>
<pdfrwt beam="2">  1       -1 0.11174104E+00 0.27698280E+04</pdfrwt>
<totfact> 0.20989085E+00</totfact>
</mgrwt>
</event>
<event>
12    7  0.1729738E-007  0.1139439E+04  0.7818608E-02  0.9167582E-01
          2   -1    0    0  501    0  0.00000000000E+00  0.00000000000E+00  0.80303952095E+03  0.80303952095E+03  0.00000000000E+00 0. -1.
         -1   -1    0    0    0  501 -0.00000000000E+00 -0.00000000000E+00 -0.40418954709E+03  0.40418954709E+03  0.00000000000E+00 0.  1.
         24    2    1    2    0    0  0.20188120192E+03 -0.67040955649E+02  0.38310068322E+02  0.22993609837E+03  0.78437481965E+02 0.  0.
        254    2    1    2    0    0 -0.20188120192E+03  0.67040955649E+02  0.36053990554E+03  0.97729296967E+03  0.88309796492E+03 0.  0.
         23    2    4    4    0    0 -0.24169042218E+03  0.33003382405E+03  0.50870259172E+03  0.65907199851E+03  0.90889973027E+02 0.  0.
         23    2    4    4    0    0  0.39809220262E+02 -0.26299286840E+03 -0.14816268618E+03  0.31822097116E+03  0.92533140334E+02 0.  0.
          2    1    3    3  502    0  0.18495792962E+03 -0.43098107331E+02  0.52961386760E+02  0.19715930379E+03  0.00000000000E+00 0. -1.
         -1    1    3    3    0  502  0.16923272300E+02 -0.23942848319E+02 -0.14651318438E+02  0.32776794579E+02  0.00000000000E+00 0.  1.
         13    1    5    5    0    0 -0.22045013271E+03  0.28764171734E+03  0.39598149695E+03  0.53678428115E+03  0.00000000000E+00 0. -1.
        -13    1    5    5    0    0 -0.21240289464E+02  0.42392106716E+02  0.11272109478E+03  0.12228771736E+03  0.00000000000E+00 0.  1.
          1    1    6    6  503    0 -0.18293975901E+01 -0.20047919479E+03 -0.77041766399E+02  0.21478055780E+03  0.00000000000E+00 0. -1.
         -1    1    6    6    0  503  0.41638617852E+02 -0.62513673616E+02 -0.71120919783E+02  0.10344041336E+03  0.00000000000E+00 0.  1.
<mgrwt>
<rscale>  0 0.11394388E+04</rscale>
<asrwt>0</asrwt>
<pdfrwt beam="1">  1        2 0.12354454E+00 0.11394388E+04</pdfrwt>
<pdfrwt beam="2">  1       -1 0.62183007E-01 0.11394388E+04</pdfrwt>
<totfact> 0.10166534E+02</totfact>
</mgrwt>
</event>
<event>
12    7  0.1729738E-007  0.3427748E+04  0.7818608E-02  0.8131130E-01
          2   -1    0    0  501    0  0.00000000000E+00  0.00000000000E+00  0.28370626874E+04  0.28370626874E+04  0.00000000000E+00 0. -1.
         -1   -1    0    0    0  501 -0.00000000000E+00 -0.00000000000E+00 -0.10353537378E+04  0.10353537378E+04  0.00000000000E+00 0.  1.
         24    2    1    2    0    0  0.72526160606E+03 -0.16585630846E+02  0.24595233232E+04  0.25655239836E+04  0.79867720807E+02 0.  0.
        254    2    1    2    0    0 -0.72526160606E+03  0.16585630846E+02 -0.65781437354E+03  0.13068924416E+04  0.86542973342E+03 0.  0.
         23    2    4    4    0    0 -0.55936222165E+03  0.23240255703E+03 -0.78262213095E+03  0.99381476850E+03  0.90957961283E+02 0.  0.
         23    2    4    4    0    0 -0.16589938440E+03 -0.21581692618E+03  0.12480775741E+03  0.31307767309E+03  0.91329632142E+02 0.  0.
          2    1    3    3  502    0  0.14419371209E+03 -0.17994350178E+02  0.59896497680E+03  0.61633973317E+03  0.00000000000E+00 0. -1.
         -1    1    3    3    0  502  0.58106789396E+03  0.14087193318E+01  0.18605583464E+04  0.19491842504E+04  0.00000000000E+00 0.  1.
         13    1    5    5    0    0 -0.29747221772E+02 -0.81205826104E+01 -0.38736894114E+02  0.49511493925E+02  0.00000000000E+00 0.  1.
        -13    1    5    5    0    0 -0.52961499988E+03  0.24052313964E+03 -0.74388523683E+03  0.94430327458E+03  0.00000000000E+00 0. -1.
          2    1    6    6  503    0 -0.76505549686E+02 -0.78024389424E+02  0.42949753261E+01  0.10935881899E+03  0.00000000000E+00 0. -1.
         -2    1    6    6    0  503 -0.89393834717E+02 -0.13779253676E+03  0.12051278208E+03  0.20371885410E+03  0.00000000000E+00 0.  1.
<mgrwt>
<rscale>  0 0.34277476E+04</rscale>
<asrwt>0</asrwt>
<pdfrwt beam="1">  1        2 0.43647118E+00 0.34277476E+04</pdfrwt>
<pdfrwt beam="2">  1       -1 0.15928519E+00 0.34277476E+04</pdfrwt>
<totfact> 0.60969311E-01</totfact>
</mgrwt>
</event>
<event>
12    7  0.1729738E-007  0.1048218E+04  0.7818608E-02  0.9257186E-01
         -1   -1    0    0    0  501 -0.00000000000E+00  0.00000000000E+00  0.21308665690E+03  0.21308665690E+03  0.00000000000E+00 0.  1.
          2   -1    0    0  501    0  0.00000000000E+00 -0.00000000000E+00 -0.12891002319E+04  0.12891002319E+04  0.00000000000E+00 0. -1.
         24    2    1    2    0    0 -0.30351061859E+02  0.13938420632E+03 -0.27243847895E+03  0.31765458088E+03  0.79577408972E+02 0.  0.
        254    2    1    2    0    0  0.30351061859E+02 -0.13938420632E+03 -0.80357509609E+03  0.11845323080E+04  0.85850725660E+03 0.  0.
         23    2    4    4    0    0 -0.14600344124E+03  0.21359952882E+03 -0.71995580130E+03  0.77066347428E+03  0.92973497241E+02 0.  0.
         23    2    4    4    0    0  0.17635450310E+03 -0.35298373513E+03 -0.83619294787E+02  0.41386883369E+03  0.92718913940E+02 0.  0.
          4    1    3    3  502    0 -0.12760048324E+02  0.85691842835E+02 -0.23344970457E+03  0.24900738006E+03  0.00000000000E+00 0. -1.
         -3    1    3    3    0  502 -0.17591013535E+02  0.53692363482E+02 -0.38988774383E+02  0.68647200827E+02  0.00000000000E+00 0.  1.
         13    1    5    5    0    0 -0.88260875402E+02  0.84383806294E+02 -0.44460589963E+03  0.46106942523E+03  0.00000000000E+00 0. -1.
        -13    1    5    5    0    0 -0.57742565841E+02  0.12921572252E+03 -0.27534990167E+03  0.30959404905E+03  0.00000000000E+00 0.  1.
          3    1    6    6  503    0  0.18060372008E+03 -0.31186446108E+03 -0.91423837726E+02  0.37180030110E+03  0.00000000000E+00 0. -1.
         -3    1    6    6    0  503 -0.42492169792E+01 -0.41119274050E+02  0.78045429391E+01  0.42068532585E+02  0.00000000000E+00 0.  1.
<mgrwt>
<rscale>  0 0.10482176E+04</rscale>
<asrwt>0</asrwt>
<pdfrwt beam="1">  1        2 0.19832311E+00 0.10482176E+04</pdfrwt>
<pdfrwt beam="2">  1       -1 0.32782563E-01 0.10482176E+04</pdfrwt>
<totfact> 0.16586720E+02</totfact>
</mgrwt>
</event>
<event>
12    7  0.1729738E-007  0.1209666E+04  0.7818608E-02  0.9104438E-01
          2   -1    0    0  501    0  0.00000000000E+00  0.00000000000E+00  0.97043397873E+03  0.97043397873E+03  0.00000000000E+00 0. -1.
         -1   -1    0    0    0  501 -0.00000000000E+00 -0.00000000000E+00 -0.37696854167E+03  0.37696854167E+03  0.00000000000E+00 0.  1.
         24    2    1    2    0    0  0.31863602303E+02 -0.15997252737E+03  0.30376368832E+03  0.35279276710E+03  0.74725226752E+02 0.  0.
        254    2    1    2    0    0 -0.31863602303E+02  0.15997252737E+03  0.28970174873E+03  0.99460975330E+03  0.93739797283E+03 0.  0.
         23    2    4    4    0    0 -0.29555154619E+03  0.43126254780E+03  0.39302064219E+02  0.53225032804E+03  0.91693281444E+02 0.  0.
         23    2    4    4    0    0  0.26368794389E+03 -0.27129002043E+03  0.25039968451E+03  0.46235942525E+03  0.89143867869E+02 0.  0.
          2    1    3    3  502    0  0.41794493849E+02 -0.80950381031E+02  0.21517485856E+03  0.23366635115E+03  0.00000000000E+00 0. -1.
         -1    1    3    3    0  502 -0.99308915464E+01 -0.79022146336E+02  0.88588829768E+02  0.11912641595E+03  0.00000000000E+00 0.  1.
         13    1    5    5    0    0 -0.22522738562E+03  0.29886889427E+03 -0.10215778302E+02  0.37437194516E+03  0.00000000000E+00 0. -1.
        -13    1    5    5    0    0 -0.70324160569E+02  0.13239365353E+03  0.49517842521E+02  0.15787838289E+03  0.00000000000E+00 0.  1.
          3    1    6    6  503    0  0.21537170889E+03 -0.20301155799E+03  0.23358408681E+03  0.37704136547E+03  0.00000000000E+00 0. -1.
         -3    1    6    6    0  503  0.48316235000E+02 -0.68278462446E+02  0.16815597697E+02  0.85318059780E+02  0.00000000000E+00 0.  1.
<mgrwt>
<rscale>  0 0.12096662E+04</rscale>
<asrwt>0</asrwt>
<pdfrwt beam="1">  1        2 0.14929753E+00 0.12096662E+04</pdfrwt>
<pdfrwt beam="2">  1       -1 0.57995160E-01 0.12096662E+04</pdfrwt>
<totfact> 0.89199950E+01</totfact>
</mgrwt>
</event>
<event>
12    7  0.1729738E-007  0.1196445E+04  0.7818608E-02  0.9115974E-01
          2   -1    0    0  501    0  0.00000000000E+00  0.00000000000E+00  0.94814048795E+03  0.94814048795E+03  0.00000000000E+00 0. -1.
         -1   -1    0    0    0  501 -0.00000000000E+00 -0.00000000000E+00 -0.37744409353E+03  0.37744409353E+03  0.00000000000E+00 0.  1.
         24    2    1    2    0    0  0.65443547622E+01  0.24728180536E+02  0.37295168537E+03  0.38238633574E+03  0.80448981673E+02 0.  0.
        254    2    1    2    0    0 -0.65443547622E+01 -0.24728180536E+02  0.19774470906E+03  0.94319824574E+03  0.92188158096E+03 0.  0.
         23    2    4    4    0    0 -0.19561204681E+03  0.14512891182E+03 -0.28721736541E+03  0.38793698115E+03  0.93138673233E+02 0.  0.
         23    2    4    4    0    0  0.18906769204E+03 -0.16985709235E+03  0.48496207447E+03  0.55526126459E+03  0.92351687991E+02 0.  0.
          4    1    3    3  502    0 -0.24543931949E+02  0.16605685470E+02  0.31271060043E+03  0.31411156140E+03  0.00000000000E+00 0. -1.
         -3    1    3    3    0  502  0.31088286711E+02  0.81224950660E+01  0.60241084940E+02  0.68274774342E+02  0.00000000000E+00 0.  1.
         13    1    5    5    0    0 -0.39745050847E+02  0.46882655784E+02 -0.22582213655E+02  0.65479835475E+02  0.00000000000E+00 0. -1.
        -13    1    5    5    0    0 -0.15586699596E+03  0.98246256031E+02 -0.26463515176E+03  0.32245714568E+03  0.00000000000E+00 0.  1.
          3    1    6    6  503    0  0.22872176442E+01 -0.42502426603E+02  0.55606536876E+02  0.70026956060E+02  0.00000000000E+00 0. -1.
         -3    1    6    6    0  503  0.18678047440E+03 -0.12735466575E+03  0.42935553760E+03  0.48523430853E+03  0.00000000000E+00 0.  1.
<mgrwt>
<rscale>  0 0.11964448E+04</rscale>
<asrwt>0</asrwt>
<pdfrwt beam="1">  1        2 0.14586777E+00 0.11964448E+04</pdfrwt>
<pdfrwt beam="2">  1       -1 0.58068322E-01 0.11964448E+04</pdfrwt>
<totfact> 0.92113660E+01</totfact>
</mgrwt>
</event>
<event>
12    7  0.1729738E-007  0.2236126E+04  0.7818608E-02  0.8503540E-01
         -1   -1    0    0    0  501 -0.00000000000E+00  0.00000000000E+00  0.14662421945E+04  0.14662421945E+04  0.00000000000E+00 0.  1.
          2   -1    0    0  501    0  0.00000000000E+00 -0.00000000000E+00 -0.85256395337E+03  0.85256395337E+03  0.00000000000E+00 0. -1.
         24    2    1    2    0    0  0.14460744504E+03 -0.15360915635E+03 -0.64666663575E+03  0.68490102539E+03  0.80028686828E+02 0.  0.
        254    2    1    2    0    0 -0.14460744504E+03  0.15360915635E+03  0.12603448769E+04  0.16339051225E+04  0.10181697572E+04 0.  0.
         23    2    4    4    0    0  0.37954622412E+03  0.14329488810E+03  0.23202183643E+03  0.47563989648E+03  0.88376565615E+02 0.  0.
         23    2    4    4    0    0 -0.52415366915E+03  0.10314268254E+02  0.10283230405E+04  0.11582652260E+04  0.96367034024E+02 0.  0.
          4    1    3    3  502    0  0.14808057345E+03 -0.11875250063E+03 -0.56520987304E+03  0.59623167747E+03  0.00000000000E+00 0. -1.
         -3    1    3    3    0  502 -0.34731284158E+01 -0.34856655726E+02 -0.81456762707E+02  0.88669347917E+02  0.00000000000E+00 0.  1.
         13    1    5    5    0    0  0.13484454334E+03  0.83245012962E+02  0.55140059355E+02  0.16778918081E+03  0.00000000000E+00 0.  1.
        -13    1    5    5    0    0  0.24470168078E+03  0.60049875138E+02  0.17688177707E+03  0.30785071567E+03  0.00000000000E+00 0. -1.
          1    1    6    6  503    0 -0.31169447187E+03  0.52063549607E+02  0.58531559024E+03  0.66517546345E+03  0.00000000000E+00 0. -1.
         -1    1    6    6    0  503 -0.21245919728E+03 -0.41749281353E+02  0.44300745021E+03  0.49308976256E+03  0.00000000000E+00 0.  1.
<mgrwt>
<rscale>  0 0.22361263E+04</rscale>
<asrwt>0</asrwt>
<pdfrwt beam="1">  1        2 0.13116369E+00 0.22361263E+04</pdfrwt>
<pdfrwt beam="2">  1       -1 0.22557572E+00 0.22361263E+04</pdfrwt>
<totfact> 0.33188234E+00</totfact>
</mgrwt>
</event>
<event>
12    7  0.1729738E-007  0.1920991E+04  0.7818608E-02  0.8644478E-01
          2   -1    0    0  501    0  0.00000000000E+00  0.00000000000E+00  0.60536326574E+03  0.60536326574E+03  0.00000000000E+00 0. -1.
         -1   -1    0    0    0  501 -0.00000000000E+00 -0.00000000000E+00 -0.15239643223E+04  0.15239643223E+04  0.00000000000E+00 0.  1.
         24    2    1    2    0    0 -0.27816808818E+02  0.12513486123E+03  0.45937307299E+03  0.48354287379E+03  0.79734448384E+02 0.  0.
        254    2    1    2    0    0  0.27816808818E+02 -0.12513486123E+03 -0.13779741296E+04  0.16457847143E+04  0.89070877149E+03 0.  0.
         23    2    4    4    0    0 -0.96346629542E+02  0.89494205145E+02 -0.13722847122E+04  0.13814497995E+04  0.89142197023E+02 0.  0.
         23    2    4    4    0    0  0.12416343836E+03 -0.21462906637E+03 -0.56894173219E+01  0.26433491477E+03  0.91424187942E+02 0.  0.
          4    1    3    3  502    0  0.41369502670E+01  0.91290341227E+02  0.19817631679E+03  0.21823128395E+03  0.00000000000E+00 0. -1.
         -3    1    3    3    0  502 -0.31953759085E+02  0.33844519999E+02  0.26119675620E+03  0.26531158984E+03  0.00000000000E+00 0.  1.
         13    1    5    5    0    0 -0.27693964044E+02  0.79774206495E+02 -0.57675342712E+03  0.58290256078E+03  0.00000000000E+00 0. -1.
        -13    1    5    5    0    0 -0.68652665498E+02  0.97199986501E+01 -0.79553128511E+03  0.79854723871E+03  0.00000000000E+00 0.  1.
          1    1    6    6  503    0  0.62387698138E+02 -0.18096504236E+03 -0.20268792826E+02  0.19248739023E+03  0.00000000000E+00 0. -1.
         -1    1    6    6    0  503  0.61775740222E+02 -0.33664024013E+02  0.14579375504E+02  0.71847524542E+02  0.00000000000E+00 0.  1.
<mgrwt>
<rscale>  0 0.19209914E+04</rscale>
<asrwt>0</asrwt>
<pdfrwt beam="1">  1        2 0.93132811E-01 0.19209914E+04</pdfrwt>
<pdfrwt beam="2">  1       -1 0.23445605E+00 0.19209914E+04</pdfrwt>
<totfact> 0.46199712E+00</totfact>
</mgrwt>
</event>
<event>
12    7  0.1729738E-007  0.2715224E+04  0.7818608E-02  0.8330082E-01
          2   -1    0    0  501    0  0.00000000000E+00  0.00000000000E+00  0.30680055840E+04  0.30680055840E+04  0.00000000000E+00 0. -1.
         -1   -1    0    0    0  501 -0.00000000000E+00 -0.00000000000E+00 -0.60075187103E+03  0.60075187103E+03  0.00000000000E+00 0.  1.
         24    2    1    2    0    0 -0.26412169513E+03 -0.22676108023E+03 -0.46147792960E+03  0.58391907099E+03  0.82575690143E+02 0.  0.
        254    2    1    2    0    0  0.26412169513E+03  0.22676108023E+03  0.29287316425E+04  0.30848383840E+04  0.90420017921E+03 0.  0.
         23    2    4    4    0    0  0.26853870351E+03 -0.25484281713E+03  0.19814143599E+04  0.20182416572E+04  0.10118608793E+03 0.  0.
         23    2    4    4    0    0 -0.44170083774E+01  0.48160389736E+03  0.94731728263E+03  0.10665967268E+04  0.90866494363E+02 0.  0.
          2    1    3    3  502    0  0.32613322759E+01 -0.31265384533E+01  0.11566741757E+01  0.46636279936E+01  0.00000000000E+00 0. -1.
         -3    1    3    3    0  502 -0.26738302741E+03 -0.22363454178E+03 -0.46263460378E+03  0.57925544299E+03  0.00000000000E+00 0.  1.
         13    1    5    5    0    0  0.46951141213E+02 -0.53320567560E+02  0.63228684032E+03  0.63626577861E+03  0.00000000000E+00 0. -1.
        -13    1    5    5    0    0  0.22158756230E+03 -0.20152224957E+03  0.13491275196E+04  0.13819758786E+04  0.00000000000E+00 0.  1.
          4    1    6    6  503    0  0.12009880458E+02  0.74117665937E+02  0.22379915282E+03  0.23605873514E+03  0.00000000000E+00 0. -1.
         -4    1    6    6    0  503 -0.16426888835E+02  0.40748623142E+03  0.72351812981E+03  0.83053799169E+03  0.00000000000E+00 0.  1.
<mgrwt>
<rscale>  0 0.27152238E+04</rscale>
<asrwt>0</asrwt>
<pdfrwt beam="1">  1        2 0.47200085E+00 0.27152238E+04</pdfrwt>
<pdfrwt beam="2">  1       -1 0.92423367E-01 0.27152238E+04</pdfrwt>
<totfact> 0.17884137E+00</totfact>
</mgrwt>
</event>
<event>
12    7  0.1729738E-007  0.1247076E+04  0.7818608E-02  0.9072621E-01
         -1   -1    0    0    0  501 -0.00000000000E+00  0.00000000000E+00  0.51935141969E+03  0.51935141969E+03  0.00000000000E+00 0.  1.
          2   -1    0    0  501    0  0.00000000000E+00 -0.00000000000E+00 -0.74862478369E+03  0.74862478369E+03  0.00000000000E+00 0. -1.
         24    2    1    2    0    0 -0.68871088914E+02  0.21201760734E+03 -0.24559449763E+03  0.34158839521E+03  0.81677914793E+02 0.  0.
        254    2    1    2    0    0  0.68871088914E+02 -0.21201760734E+03  0.16321133621E+02  0.92638780817E+03  0.89901796368E+03 0.  0.
         23    2    4    4    0    0 -0.88861780532E+01  0.15179891718E+03  0.36607307477E+03  0.40761852109E+03  0.94981510020E+02 0.  0.
         23    2    4    4    0    0  0.77757266968E+02 -0.36381652452E+03 -0.34975194115E+03  0.51876928708E+03  0.91577818271E+02 0.  0.
          2    1    3    3  502    0 -0.60353960857E+02  0.96109128615E+02 -0.78271013713E+02  0.13786194827E+03  0.00000000000E+00 0. -1.
         -1    1    3    3    0  502 -0.85171280572E+01  0.11590847872E+03 -0.16732348391E+03  0.20372644693E+03  0.00000000000E+00 0.  1.
         13    1    5    5    0    0 -0.19119749451E+02  0.15930423294E+03  0.35868090651E+03  0.39293179579E+03  0.00000000000E+00 0. -1.
        -13    1    5    5    0    0  0.10233571398E+02 -0.75053157666E+01  0.73921682686E+01  0.14686725299E+02  0.00000000000E+00 0.  1.
          1    1    6    6  503    0  0.26596285821E+02 -0.24040681826E+03 -0.17376986073E+03  0.29782337918E+03  0.00000000000E+00 0. -1.
         -1    1    6    6    0  503  0.51160981147E+02 -0.12340970626E+03 -0.17598208042E+03  0.22094590791E+03  0.00000000000E+00 0.  1.
<mgrwt>
<rscale>  0 0.12470755E+04</rscale>
<asrwt>0</asrwt>
<pdfrwt beam="1">  1        2 0.11517304E+00 0.12470755E+04</pdfrwt>
<pdfrwt beam="2">  1       -1 0.79900218E-01 0.12470755E+04</pdfrwt>
<totfact> 0.66071639E+01</totfact>
</mgrwt>
</event>
<event>
12    7  0.1729738E-007  0.1936832E+04  0.7818608E-02  0.8636737E-01
         -1   -1    0    0    0  501 -0.00000000000E+00  0.00000000000E+00  0.54200430090E+03  0.54200430090E+03  0.00000000000E+00 0.  1.
          2   -1    0    0  501    0  0.00000000000E+00 -0.00000000000E+00 -0.17302994028E+04  0.17302994028E+04  0.00000000000E+00 0. -1.
         24    2    1    2    0    0 -0.50731327762E+03 -0.46155231651E+03 -0.80775255466E+02  0.69552061835E+03  0.82625577920E+02 0.  0.
        254    2    1    2    0    0  0.50731327762E+03  0.46155231651E+03 -0.11075198464E+04  0.15767830853E+04  0.88839596209E+03 0.  0.
         23    2    4    4    0    0 -0.89421366010E+02  0.50052791921E+03 -0.53640370246E+03  0.74490450253E+03  0.92894603092E+02 0.  0.
         23    2    4    4    0    0  0.59673464363E+03 -0.38975602699E+02 -0.57111614396E+03  0.83187858280E+03  0.90757887323E+02 0.  0.
          4    1    3    3  502    0 -0.35462208183E+03 -0.36290202194E+03 -0.38339423010E+02  0.50884635187E+03  0.00000000000E+00 0. -1.
         -3    1    3    3    0  502 -0.15269119579E+03 -0.98650294565E+02 -0.42435832456E+02  0.18667426648E+03  0.00000000000E+00 0.  1.
         13    1    5    5    0    0 -0.95502489902E+02  0.31428150802E+03 -0.30978096747E+03  0.45150619007E+03  0.00000000000E+00 0. -1.
        -13    1    5    5    0    0  0.60811238917E+01  0.18624641119E+03 -0.22662273498E+03  0.29339831247E+03  0.00000000000E+00 0.  1.
          2    1    6    6  503    0  0.43939149638E+03  0.11710420126E+02 -0.41440515741E+03  0.60409738911E+03  0.00000000000E+00 0. -1.
         -2    1    6    6    0  503  0.15734314725E+03 -0.50686022825E+02 -0.15671098654E+03  0.22778119369E+03  0.00000000000E+00 0.  1.
<mgrwt>
<rscale>  0 0.19368322E+04</rscale>
<asrwt>0</asrwt>
<pdfrwt beam="1">  1        2 0.26619991E+00 0.19368322E+04</pdfrwt>
<pdfrwt beam="2">  1       -1 0.83385276E-01 0.19368322E+04</pdfrwt>
<totfact> 0.14318115E+01</totfact>
</mgrwt>
</event>
<event>
12    7  0.1729738E-007  0.1652485E+04  0.7818608E-02  0.8788938E-01
          2   -1    0    0  501    0  0.00000000000E+00  0.00000000000E+00  0.62845410995E+03  0.62845410995E+03  0.00000000000E+00 0. -1.
         -1   -1    0    0    0  501 -0.00000000000E+00 -0.00000000000E+00 -0.10862791585E+04  0.10862791585E+04  0.00000000000E+00 0.  1.
         24    2    1    2    0    0  0.34168679091E+03  0.41441416229E+03 -0.16458172005E+03  0.56673084894E+03  0.74884922175E+02 0.  0.
        254    2    1    2    0    0 -0.34168679091E+03 -0.41441416229E+03 -0.29324332852E+03  0.11480024195E+04  0.97130270489E+03 0.  0.
         23    2    4    4    0    0  0.22715113484E+03 -0.11078587464E+03 -0.40614822515E+03  0.48730961754E+03  0.92968459557E+02 0.  0.
         23    2    4    4    0    0 -0.56883792576E+03 -0.30362828765E+03  0.11290489664E+03  0.66069280199E+03  0.89446856136E+02 0.  0.
          2    1    3    3  502    0  0.30240801622E+03  0.35180080690E+03 -0.16624035935E+03  0.49279841019E+03  0.00000000000E+00 0. -1.
         -1    1    3    3    0  502  0.39278774696E+02  0.62613355387E+02  0.16586392973E+01  0.73932438745E+02  0.00000000000E+00 0.  1.
         13    1    5    5    0    0  0.10829470715E+03 -0.56239441488E+02 -0.11298969883E+03  0.16630481177E+03  0.00000000000E+00 0. -1.
        -13    1    5    5    0    0  0.11885642769E+03 -0.54546433152E+02 -0.29315852632E+03  0.32100480577E+03  0.00000000000E+00 0.  1.
          1    1    6    6  503    0 -0.48684379445E+03 -0.23942080261E+03  0.12224561942E+03  0.55613235150E+03  0.00000000000E+00 0. -1.
         -1    1    6    6    0  503 -0.81994131307E+02 -0.64207485039E+02 -0.93407227862E+01  0.10456045049E+03  0.00000000000E+00 0.  1.
<mgrwt>
<rscale>  0 0.16524849E+04</rscale>
<asrwt>0</asrwt>
<pdfrwt beam="1">  1        2 0.96685249E-01 0.16524849E+04</pdfrwt>
<pdfrwt beam="2">  1       -1 0.16711987E+00 0.16524849E+04</pdfrwt>
<totfact> 0.13214482E+01</totfact>
</mgrwt>
</event>
<event>
12    7  0.1729738E-007  0.1454163E+04  0.7818608E-02  0.8915520E-01
          2   -1    0    0  501    0  0.00000000000E+00  0.00000000000E+00  0.88531011887E+03  0.88531011887E+03  0.00000000000E+00 0. -1.
         -1   -1    0    0    0  501 -0.00000000000E+00 -0.00000000000E+00 -0.59713249497E+03  0.59713249497E+03  0.00000000000E+00 0.  1.
         24    2    1    2    0    0  0.15090664598E+03 -0.29536791210E+03 -0.21549756079E+03  0.40356714945E+03  0.80076376746E+02 0.  0.
        254    2    1    2    0    0 -0.15090664598E+03  0.29536791210E+03  0.50367518470E+03  0.10788754644E+04  0.89457730615E+03 0.  0.
         23    2    4    4    0    0 -0.35630886236E+03 -0.13017602139E+03  0.44776903072E+03  0.59415379841E+03  0.92843036139E+02 0.  0.
         23    2    4    4    0    0  0.20540221638E+03  0.42554393348E+03  0.55906153980E+02  0.48472166598E+03  0.92476405608E+02 0.  0.
          4    1    3    3  502    0  0.96237784571E+02 -0.13510238222E+03 -0.68982801209E+02  0.17964685280E+03  0.00000000000E+00 0. -1.
         -3    1    3    3    0  502  0.54668861408E+02 -0.16026552988E+03 -0.14651475958E+03  0.22392029665E+03  0.00000000000E+00 0.  1.
         13    1    5    5    0    0 -0.32628401835E+02  0.10322338133E+01  0.10024106135E+02  0.34149096866E+02  0.00000000000E+00 0. -1.
        -13    1    5    5    0    0 -0.32368046052E+03 -0.13120825520E+03  0.43774492458E+03  0.56000470155E+03  0.00000000000E+00 0.  1.
          3    1    6    6  503    0  0.42282641955E+02  0.16723494729E+03 -0.76967406289E+01  0.17266901639E+03  0.00000000000E+00 0. -1.
         -3    1    6    6    0  503  0.16311957442E+03  0.25830898620E+03  0.63602894609E+02  0.31205264959E+03  0.00000000000E+00 0.  1.
<mgrwt>
<rscale>  0 0.14541629E+04</rscale>
<asrwt>0</asrwt>
<pdfrwt beam="1">  1        2 0.13620156E+00 0.14541629E+04</pdfrwt>
<pdfrwt beam="2">  1       -1 0.91866538E-01 0.14541629E+04</pdfrwt>
<totfact> 0.38332809E+01</totfact>
</mgrwt>
</event>
<event>
12    7  0.1729738E-007  0.2069997E+04  0.7818608E-02  0.8574576E-01
         -1   -1    0    0    0  501 -0.00000000000E+00  0.00000000000E+00  0.81749181697E+03  0.81749181697E+03  0.00000000000E+00 0.  1.
          2   -1    0    0  501    0  0.00000000000E+00 -0.00000000000E+00 -0.13103767336E+04  0.13103767336E+04  0.00000000000E+00 0. -1.
         24    2    1    2    0    0 -0.60080610880E+03 -0.10542005521E+01 -0.79882803798E+03  0.10027166474E+04  0.79657699414E+02 0.  0.
        254    2    1    2    0    0  0.60080610880E+03  0.10542005521E+01  0.30594312132E+03  0.11251519032E+04  0.90077551032E+03 0.  0.
         23    2    4    4    0    0  0.54967310058E+03 -0.78698292755E+02 -0.20401628979E+03  0.59843130491E+03  0.90351764844E+02 0.  0.
         23    2    4    4    0    0  0.51133008220E+02  0.79752493308E+02  0.50995941111E+03  0.52672059825E+03  0.91656657844E+02 0.  0.
          2    1    3    3  502    0 -0.34089481966E+03 -0.82527888055E+01 -0.38827451572E+03  0.51675379646E+03  0.00000000000E+00 0. -1.
         -1    1    3    3    0  502 -0.25991128915E+03  0.71985882535E+01 -0.41055352226E+03  0.48596285098E+03  0.00000000000E+00 0.  1.
         13    1    5    5    0    0  0.24958453542E+03 -0.45398588361E+02 -0.46584365174E+02  0.25792164551E+03  0.00000000000E+00 0.  1.
        -13    1    5    5    0    0  0.30008856516E+03 -0.33299704395E+02 -0.15743192461E+03  0.34050965939E+03  0.00000000000E+00 0. -1.
          4    1    6    6  503    0  0.14891981764E+02  0.21011911321E+02  0.36770832131E+03  0.36860911695E+03  0.00000000000E+00 0. -1.
         -4    1    6    6    0  503  0.36241026456E+02  0.58740581987E+02  0.14225108980E+03  0.15811148130E+03  0.00000000000E+00 0.  1.
<mgrwt>
<rscale>  0 0.20699973E+04</rscale>
<asrwt>0</asrwt>
<pdfrwt beam="1">  1        2 0.20159642E+00 0.20699973E+04</pdfrwt>
<pdfrwt beam="2">  1       -1 0.12576797E+00 0.20699973E+04</pdfrwt>
<totfact> 0.94615520E+00</totfact>
</mgrwt>
</event>
<event>
12    7  0.1729738E-007  0.1507020E+04  0.7818608E-02  0.8879798E-01
         -1   -1    0    0    0  501 -0.00000000000E+00  0.00000000000E+00  0.14989981618E+04  0.14989981618E+04  0.00000000000E+00 0.  1.
          2   -1    0    0  501    0  0.00000000000E+00 -0.00000000000E+00 -0.37877120207E+03  0.37877120207E+03  0.00000000000E+00 0. -1.
         24    2    1    2    0    0  0.68175165512E+02  0.31436618506E+03 -0.76924466423E+02  0.34368847909E+03  0.93436853684E+02 0.  0.
        254    2    1    2    0    0 -0.68175165512E+02 -0.31436618506E+03  0.11971514262E+04  0.15340808848E+04  0.90374701793E+03 0.  0.
         23    2    4    4    0    0  0.16019010704E+03 -0.56550197726E+03  0.87535433662E+03  0.10577498027E+04  0.84475285229E+02 0.  0.
         23    2    4    4    0    0 -0.22836527256E+03  0.25113579220E+03  0.32179708953E+03  0.47633108207E+03  0.90100216894E+02 0.  0.
          2    1    3    3  502    0  0.86052236190E+02  0.29968229361E+03 -0.72989445359E+02  0.32022167882E+03  0.00000000000E+00 0. -1.
         -1    1    3    3    0  502 -0.17877070677E+02  0.14683891453E+02 -0.39350210644E+01  0.23466800271E+02  0.00000000000E+00 0.  1.
         13    1    5    5    0    0  0.67762921798E+02 -0.16711536389E+03  0.21049417902E+03  0.27717712355E+03  0.00000000000E+00 0. -1.
        -13    1    5    5    0    0  0.92427185246E+02 -0.39838661336E+03  0.66486015761E+03  0.78057267916E+03  0.00000000000E+00 0.  1.
          1    1    6    6  503    0 -0.22331411217E+02 -0.37660558418E+01  0.13517531866E+02  0.26374206552E+02  0.00000000000E+00 0. -1.
         -1    1    6    6    0  503 -0.20603386134E+03  0.25490184804E+03  0.30827955766E+03  0.44995687552E+03  0.00000000000E+00 0.  1.
<mgrwt>
<rscale>  0 0.15070200E+04</rscale>
<asrwt>0</asrwt>
<pdfrwt beam="1">  1        2 0.58272493E-01 0.15070200E+04</pdfrwt>
<pdfrwt beam="2">  1       -1 0.23061510E+00 0.15070200E+04</pdfrwt>
<totfact> 0.87387795E+00</totfact>
</mgrwt>
</event>
<event>
12    7  0.1729738E-007  0.4791740E+04  0.7818608E-02  0.7861462E-01
         -1   -1    0    0    0  501 -0.00000000000E+00  0.00000000000E+00  0.17242064934E+04  0.17242064934E+04  0.00000000000E+00 0.  1.
          2   -1    0    0  501    0  0.00000000000E+00 -0.00000000000E+00 -0.33291799500E+04  0.33291799500E+04  0.00000000000E+00 0. -1.
         24    2    1    2    0    0  0.85552372185E+03 -0.21055761990E+04 -0.11727318620E+04  0.25586237493E+04  0.76703986619E+02 0.  0.
        254    2    1    2    0    0 -0.85552372185E+03  0.21055761990E+04 -0.43224159459E+03  0.24947626941E+04  0.93361455375E+03 0.  0.
         23    2    4    4    0    0 -0.63715108116E+03  0.15046409819E+04 -0.71936498995E+03  0.17878311373E+04  0.94594937456E+02 0.  0.
         23    2    4    4    0    0 -0.21837264069E+03  0.60093521719E+03  0.28712339536E+03  0.70693155678E+03  0.92209741012E+02 0.  0.
          2    1    3    3  502    0  0.76879208611E+03 -0.18624767290E+04 -0.10635064532E+04  0.22783561648E+04  0.00000000000E+00 0. -1.
         -1    1    3    3    0  502  0.86731635739E+02 -0.24309947008E+03 -0.10922540885E+03  0.28026758451E+03  0.00000000000E+00 0.  1.
         13    1    5    5    0    0 -0.62126554485E+03  0.14123190444E+04 -0.68311906820E+03  0.16873848470E+04  0.00000000000E+00 0.  1.
        -13    1    5    5    0    0 -0.15885536309E+02  0.92321937401E+02 -0.36245921756E+02  0.10044629029E+03  0.00000000000E+00 0. -1.
          1    1    6    6  503    0 -0.23336908729E+02  0.77136047018E+02  0.47691151527E+01  0.80729954279E+02  0.00000000000E+00 0. -1.
         -1    1    6    6    0  503 -0.19503573196E+03  0.52379917017E+03  0.28235428021E+03  0.62620160250E+03  0.00000000000E+00 0.  1.
<mgrwt>
<rscale>  0 0.47917403E+04</rscale>
<asrwt>0</asrwt>
<pdfrwt beam="1">  1        2 0.51218153E+00 0.47917403E+04</pdfrwt>
<pdfrwt beam="2">  1       -1 0.26526254E+00 0.47917403E+04</pdfrwt>
<totfact> 0.49577522E-02</totfact>
</mgrwt>
</event>
<event>
12    7  0.1729738E-007  0.1874117E+04  0.7818608E-02  0.8667848E-01
         -1   -1    0    0    0  501 -0.00000000000E+00  0.00000000000E+00  0.53043493887E+03  0.53043493887E+03  0.00000000000E+00 0.  1.
          2   -1    0    0  501    0  0.00000000000E+00 -0.00000000000E+00 -0.16553942219E+04  0.16553942219E+04  0.00000000000E+00 0. -1.
         24    2    1    2    0    0  0.52505072126E+03 -0.50851875096E+03 -0.34178245559E+03  0.81043885458E+03  0.75672386614E+02 0.  0.
        254    2    1    2    0    0 -0.52505072126E+03  0.50851875096E+03 -0.78317682747E+03  0.13753903062E+04  0.86259084817E+03 0.  0.
         23    2    4    4    0    0 -0.51385418744E+03  0.18642533179E+03 -0.35185494667E+02  0.55558600985E+03  0.92936887354E+02 0.  0.
         23    2    4    4    0    0 -0.11196533825E+02  0.32209341916E+03 -0.74799133280E+03  0.81980429635E+03  0.93373001109E+02 0.  0.
          2    1    3    3  502    0  0.43893413204E+03 -0.45202334282E+03 -0.27352761478E+03  0.68688108925E+03  0.00000000000E+00 0. -1.
         -1    1    3    3    0  502  0.86116589224E+02 -0.56495408136E+02 -0.68254840805E+02  0.12355776533E+03  0.00000000000E+00 0.  1.
         13    1    5    5    0    0 -0.34924088571E+03  0.14007750343E+03 -0.65391262188E+02  0.38192528116E+03  0.00000000000E+00 0.  1.
        -13    1    5    5    0    0 -0.16461330173E+03  0.46347828366E+02  0.30205767521E+02  0.17366072869E+03  0.00000000000E+00 0. -1.
          3    1    6    6  503    0 -0.30231273361E+02  0.10340384567E+03 -0.16708743177E+03  0.19880768356E+03  0.00000000000E+00 0. -1.
         -3    1    6    6    0  503  0.19034739536E+02  0.21868957349E+03 -0.58090390103E+03  0.62099661279E+03  0.00000000000E+00 0.  1.
<mgrwt>
<rscale>  0 0.18741173E+04</rscale>
<asrwt>0</asrwt>
<pdfrwt beam="1">  1        2 0.25467603E+00 0.18741173E+04</pdfrwt>
<pdfrwt beam="2">  1       -1 0.81605375E-01 0.18741173E+04</pdfrwt>
<totfact> 0.16596554E+01</totfact>
</mgrwt>
</event>
<event>
12    7  0.1729738E-007  0.1491431E+04  0.7818608E-02  0.8890171E-01
          2   -1    0    0  501    0  0.00000000000E+00  0.00000000000E+00  0.17955945460E+04  0.17955945460E+04  0.00000000000E+00 0. -1.
         -1   -1    0    0    0  501 -0.00000000000E+00 -0.00000000000E+00 -0.30969780710E+03  0.30969780710E+03  0.00000000000E+00 0.  1.
         24    2    1    2    0    0  0.39413861986E+03 -0.23356806177E+03  0.32131462196E+03  0.56483051902E+03  0.76753747649E+02 0.  0.
        254    2    1    2    0    0 -0.39413861986E+03  0.23356806177E+03  0.11645821169E+04  0.15404618340E+04  0.89826046556E+03 0.  0.
         23    2    4    4    0    0 -0.44367083661E+03  0.47134805464E+03  0.10884365281E+04  0.12696409885E+04  0.91002001593E+02 0.  0.
         23    2    4    4    0    0  0.49532216750E+02 -0.23777999287E+03  0.76145588854E+02  0.27082084551E+03  0.92482507291E+02 0.  0.
          2    1    3    3  502    0  0.34963606282E+03 -0.17517983808E+03  0.26744435923E+03  0.47377192549E+03  0.00000000000E+00 0. -1.
         -1    1    3    3    0  502  0.44502557046E+02 -0.58388223690E+02  0.53870262727E+02  0.91058593529E+02  0.00000000000E+00 0.  1.
         13    1    5    5    0    0 -0.32061108748E+03  0.37717892476E+03  0.88327357582E+03  0.10125352440E+04  0.00000000000E+00 0.  1.
        -13    1    5    5    0    0 -0.12305974913E+03  0.94169129883E+02  0.20516295224E+03  0.25710574449E+03  0.00000000000E+00 0. -1.
          4    1    6    6  503    0  0.70025815569E+02 -0.11777655158E+03  0.52911547003E+02  0.14688281980E+03  0.00000000000E+00 0. -1.
         -4    1    6    6    0  503 -0.20493598819E+02 -0.12000344130E+03  0.23234041851E+02  0.12393802571E+03  0.00000000000E+00 0.  1.
<mgrwt>
<rscale>  0 0.14914311E+04</rscale>
<asrwt>0</asrwt>
<pdfrwt beam="1">  1        2 0.27624531E+00 0.14914311E+04</pdfrwt>
<pdfrwt beam="2">  1       -1 0.47645818E-01 0.14914311E+04</pdfrwt>
<totfact> 0.42040496E+01</totfact>
</mgrwt>
</event>
<event>
12    7  0.1729738E-007  0.2924309E+04  0.7818608E-02  0.8265681E-01
         -1   -1    0    0    0  501 -0.00000000000E+00  0.00000000000E+00  0.99031341814E+03  0.99031341814E+03  0.00000000000E+00 0.  1.
          2   -1    0    0  501    0  0.00000000000E+00 -0.00000000000E+00 -0.21588079720E+04  0.21588079720E+04  0.00000000000E+00 0. -1.
         24    2    1    2    0    0  0.45562828042E+03 -0.10516047685E+04  0.18255042590E+03  0.11632048722E+04  0.79064515560E+02 0.  0.
        254    2    1    2    0    0 -0.45562828042E+03  0.10516047685E+04 -0.13510449797E+04  0.19859165179E+04  0.89725813438E+03 0.  0.
         23    2    4    4    0    0  0.19611771456E+03  0.64312075112E+03 -0.57544435927E+03  0.88974517161E+03  0.91890158936E+02 0.  0.
         23    2    4    4    0    0 -0.65174599499E+03  0.40848401741E+03 -0.77560062047E+03  0.10961713463E+04  0.91669316051E+02 0.  0.
          2    1    3    3  502    0  0.74465111395E+02 -0.22686770441E+03  0.14330839883E+02  0.23920572963E+03  0.00000000000E+00 0. -1.
         -1    1    3    3    0  502  0.38116316903E+03 -0.82473706412E+03  0.16821958602E+03  0.92399914257E+03  0.00000000000E+00 0.  1.
         13    1    5    5    0    0  0.17729192538E+03  0.44979189459E+03 -0.38954215952E+03  0.62087701623E+03  0.00000000000E+00 0. -1.
        -13    1    5    5    0    0  0.18825789181E+02  0.19332885653E+03 -0.18590219975E+03  0.26886815538E+03  0.00000000000E+00 0.  1.
          1    1    6    6  503    0 -0.64666615824E+03  0.39172778148E+03 -0.74844143588E+03  0.10638573015E+04  0.00000000000E+00 0. -1.
         -1    1    6    6    0  503 -0.50798367471E+01  0.16756235930E+02 -0.27159184596E+02  0.32314044808E+02  0.00000000000E+00 0.  1.
<mgrwt>
<rscale>  0 0.29243095E+04</rscale>
<asrwt>0</asrwt>
<pdfrwt beam="1">  1        2 0.33212430E+00 0.29243095E+04</pdfrwt>
<pdfrwt beam="2">  1       -1 0.15235591E+00 0.29243095E+04</pdfrwt>
<totfact> 0.17843995E+00</totfact>
</mgrwt>
</event>
<event>
12    7  0.1729738E-007  0.1017010E+04  0.7818608E-02  0.9290083E-01
          2   -1    0    0  501    0  0.00000000000E+00  0.00000000000E+00  0.94734451948E+03  0.94734451948E+03  0.00000000000E+00 0. -1.
         -1   -1    0    0    0  501 -0.00000000000E+00 -0.00000000000E+00 -0.27294968210E+03  0.27294968210E+03  0.00000000000E+00 0.  1.
         24    2    1    2    0    0 -0.74612737408E+02 -0.37220888621E+02  0.93840361891E+02  0.14908576622E+03  0.80424480321E+02 0.  0.
        254    2    1    2    0    0  0.74612737408E+02  0.37220888621E+02  0.58055447549E+03  0.10712084354E+04  0.89637690614E+03 0.  0.
         23    2    4    4    0    0  0.13317743876E+03  0.30545514052E+03 -0.74765342384E+02  0.35476207527E+03  0.96058318551E+02 0.  0.
         23    2    4    4    0    0 -0.58564701357E+02 -0.26823425190E+03  0.65531981788E+03  0.71644636010E+03  0.92042843630E+02 0.  0.
          2    1    3    3  502    0 -0.42263063780E+02 -0.54757389182E+02  0.87835827865E+02  0.11180192703E+03  0.00000000000E+00 0. -1.
         -1    1    3    3    0  502 -0.32349673628E+02  0.17536500562E+02  0.60045340267E+01  0.37283839189E+02  0.00000000000E+00 0.  1.
         13    1    5    5    0    0  0.13701987953E+03  0.25903206572E+03 -0.38150102449E+02  0.29551224809E+03  0.00000000000E+00 0.  1.
        -13    1    5    5    0    0 -0.38424407640E+01  0.46423074802E+02 -0.36615239935E+02  0.59249827178E+02  0.00000000000E+00 0. -1.
          4    1    6    6  503    0 -0.93158032082E+01 -0.27605099892E+02  0.17037251446E+03  0.17284565200E+03  0.00000000000E+00 0. -1.
         -4    1    6    6    0  503 -0.49248898148E+02 -0.24062915201E+03  0.48494730341E+03  0.54360070810E+03  0.00000000000E+00 0.  1.
<mgrwt>
<rscale>  0 0.10170101E+04</rscale>
<asrwt>0</asrwt>
<pdfrwt beam="1">  1        2 0.14574531E+00 0.10170101E+04</pdfrwt>
<pdfrwt beam="2">  1       -1 0.41992259E-01 0.10170101E+04</pdfrwt>
<totfact> 0.17257937E+02</totfact>
</mgrwt>
</event>
<event>
12    7  0.1729738E-007  0.2219388E+04  0.7818608E-02  0.8510401E-01
          2   -1    0    0  501    0  0.00000000000E+00  0.00000000000E+00  0.85878052054E+03  0.85878052054E+03  0.00000000000E+00 0. -1.
         -1   -1    0    0    0  501 -0.00000000000E+00 -0.00000000000E+00 -0.14339178788E+04  0.14339178788E+04  0.00000000000E+00 0.  1.
         24    2    1    2    0    0 -0.31948920514E+02  0.73813814014E+03 -0.81413769924E+03  0.11023011564E+04  0.79868633574E+02 0.  0.
        254    2    1    2    0    0  0.31948920514E+02 -0.73813814014E+03  0.23900034094E+03  0.11903972430E+04  0.90225040075E+03 0.  0.
         23    2    4    4    0    0  0.43006933323E+03 -0.26184566479E+03  0.23281337652E+03  0.56292799893E+03  0.95723978904E+02 0.  0.
         23    2    4    4    0    0 -0.39812041272E+03 -0.47629247535E+03  0.61869644216E+01  0.62746924404E+03  0.91241375453E+02 0.  0.
          2    1    3    3  502    0 -0.20959734054E+01  0.25254616070E+03 -0.22494164079E+03  0.33820511254E+03  0.00000000000E+00 0. -1.
         -1    1    3    3    0  502 -0.29852947109E+02  0.48559197945E+03 -0.58919605845E+03  0.76409604386E+03  0.00000000000E+00 0.  1.
         13    1    5    5    0    0  0.35079016026E+03 -0.19494583012E+03  0.22200425119E+03  0.45863220642E+03  0.00000000000E+00 0.  1.
        -13    1    5    5    0    0  0.79279172969E+02 -0.66899834671E+02  0.10809125335E+02  0.10429579251E+03  0.00000000000E+00 0. -1.
          2    1    6    6  503    0 -0.54868281608E+02 -0.35502340613E+02  0.20861501573E+02  0.68601361236E+02  0.00000000000E+00 0. -1.
         -2    1    6    6    0  503 -0.34325213111E+03 -0.44079013474E+03 -0.14674537151E+02  0.55886788281E+03  0.00000000000E+00 0.  1.
<mgrwt>
<rscale>  0 0.22193880E+04</rscale>
<asrwt>0</asrwt>
<pdfrwt beam="1">  1        2 0.13212008E+00 0.22193880E+04</pdfrwt>
<pdfrwt beam="2">  1       -1 0.22060275E+00 0.22193880E+04</pdfrwt>
<totfact> 0.35519150E+00</totfact>
</mgrwt>
</event>
<event>
12    7  0.1729738E-007  0.1693913E+04  0.7818608E-02  0.8764843E-01
         -1   -1    0    0    0  501 -0.00000000000E+00  0.00000000000E+00  0.14200633328E+04  0.14200633328E+04  0.00000000000E+00 0.  1.
          2   -1    0    0  501    0  0.00000000000E+00 -0.00000000000E+00 -0.50514339942E+03  0.50514339942E+03  0.00000000000E+00 0. -1.
         24    2    1    2    0    0  0.41095493604E+03  0.10726533258E+03 -0.15087110674E+03  0.45994718688E+03  0.91648856189E+02 0.  0.
        254    2    1    2    0    0 -0.41095493604E+03 -0.10726533258E+03  0.10657910401E+04  0.14652595454E+04  0.91141932337E+03 0.  0.
         23    2    4    4    0    0 -0.68496670758E+03 -0.71706655533E+02  0.60943813881E+03  0.92415447487E+03  0.91243703547E+02 0.  0.
         23    2    4    4    0    0  0.27401177154E+03 -0.35558677052E+02  0.45635290133E+03  0.54110507050E+03  0.90497824924E+02 0.  0.
          4    1    3    3  502    0  0.37304152952E+03  0.71313394532E+02 -0.14801543930E+03  0.40762010899E+03  0.00000000000E+00 0. -1.
         -3    1    3    3    0  502  0.37913406520E+02  0.35951938052E+02 -0.28556674447E+01  0.52327077888E+02  0.00000000000E+00 0.  1.
         13    1    5    5    0    0 -0.13668452998E+03 -0.38010759647E+02  0.89184434861E+02  0.16757488477E+03  0.00000000000E+00 0.  1.
        -13    1    5    5    0    0 -0.54828217760E+03 -0.33695895886E+02  0.52025370395E+03  0.75657959009E+03  0.00000000000E+00 0. -1.
          2    1    6    6  503    0  0.26563691043E+03 -0.25093036364E+02  0.38448063496E+03  0.46799357615E+03  0.00000000000E+00 0. -1.
         -2    1    6    6    0  503  0.83748611097E+01 -0.10465640688E+02  0.71872266372E+02  0.73111494357E+02  0.00000000000E+00 0.  1.
<mgrwt>
<rscale>  0 0.16939134E+04</rscale>
<asrwt>0</asrwt>
<pdfrwt beam="1">  1        2 0.77714369E-01 0.16939134E+04</pdfrwt>
<pdfrwt beam="2">  1       -1 0.21847128E+00 0.16939134E+04</pdfrwt>
<totfact> 0.74595082E+00</totfact>
</mgrwt>
</event>
<event>
12    7  0.1729738E-007  0.2380044E+04  0.7818608E-02  0.8447013E-01
         -3   -1    0    0    0  501 -0.00000000000E+00  0.00000000000E+00  0.14226650023E+04  0.14226650023E+04  0.00000000000E+00 0.  1.
          2   -1    0    0  501    0  0.00000000000E+00 -0.00000000000E+00 -0.99542181617E+03  0.99542181617E+03  0.00000000000E+00 0. -1.
         24    2    1    2    0    0  0.54914902271E+03  0.86017685305E+03  0.21046146780E+03  0.10450268978E+04  0.79487860763E+02 0.  0.
        254    2    1    2    0    0 -0.54914902271E+03 -0.86017685305E+03  0.21678171837E+03  0.13730599207E+04  0.89265355251E+03 0.  0.
         23    2    4    4    0    0 -0.42357677466E+03 -0.74989008689E+03 -0.22230187061E+03  0.89442143631E+03  0.93910370061E+02 0.  0.
         23    2    4    4    0    0 -0.12557224805E+03 -0.11028676616E+03  0.43908358898E+03  0.47863848441E+03  0.91481366284E+02 0.  0.
          4    1    3    3  502    0  0.11502403359E+03  0.21097617147E+03  0.19774810484E+02  0.24110685673E+03  0.00000000000E+00 0. -1.
         -3    1    3    3    0  502  0.43412498911E+03  0.64920068157E+03  0.19068665731E+03  0.80392004105E+03  0.00000000000E+00 0.  1.
         13    1    5    5    0    0 -0.41794703635E+02 -0.13855559305E+03 -0.22282271099E+02  0.14642728305E+03  0.00000000000E+00 0. -1.
        -13    1    5    5    0    0 -0.38178207102E+03 -0.61133449384E+03 -0.20001959951E+03  0.74799415326E+03  0.00000000000E+00 0.  1.
          2    1    6    6  503    0 -0.14919673389E+02  0.12221977565E+02  0.95821018584E+02  0.97742728590E+02  0.00000000000E+00 0. -1.
         -2    1    6    6    0  503 -0.11065257466E+03 -0.12250874372E+03  0.34326257040E+03  0.38089575582E+03  0.00000000000E+00 0.  1.
<mgrwt>
<rscale>  0 0.23800435E+04</rscale>
<asrwt>0</asrwt>
<pdfrwt beam="1">  1        2 0.15314182E+00 0.23800435E+04</pdfrwt>
<pdfrwt beam="2">  1       -3 0.21887154E+00 0.23800435E+04</pdfrwt>
<totfact> 0.16059401E+00</totfact>
</mgrwt>
</event>
<event>
12    7  0.1729738E-007  0.1718722E+04  0.7818608E-02  0.8750758E-01
          2   -1    0    0  501    0  0.00000000000E+00  0.00000000000E+00  0.31748286669E+04  0.31748286669E+04  0.00000000000E+00 0. -1.
         -1   -1    0    0    0  501 -0.00000000000E+00 -0.00000000000E+00 -0.23261127932E+03  0.23261127932E+03  0.00000000000E+00 0.  1.
         24    2    1    2    0    0 -0.55370471184E+03 -0.25499693945E+03  0.12792354936E+04  0.14193576689E+04  0.80748976678E+02 0.  0.
        254    2    1    2    0    0  0.55370471184E+03  0.25499693945E+03  0.16629818939E+04  0.19880822772E+04  0.90296733852E+03 0.  0.
         23    2    4    4    0    0  0.28352634035E+02  0.47608269600E+03  0.98010843405E+03  0.10938194679E+04  0.91487051995E+02 0.  0.
         23    2    4    4    0    0  0.52535207781E+03 -0.22108575654E+03  0.68287345988E+03  0.89426280928E+03  0.92282676874E+02 0.  0.
          2    1    3    3  502    0 -0.30361062322E+03 -0.15153124749E+03  0.79976811508E+03  0.86877509598E+03  0.00000000000E+00 0. -1.
         -1    1    3    3    0  502 -0.25009408863E+03 -0.10346569196E+03  0.47946737854E+03  0.55058257297E+03  0.00000000000E+00 0.  1.
         13    1    5    5    0    0  0.41569822879E+02  0.13669947427E+03  0.34918065329E+03  0.37728228831E+03  0.00000000000E+00 0. -1.
        -13    1    5    5    0    0 -0.13217188844E+02  0.33938322173E+03  0.63092778076E+03  0.71653717964E+03  0.00000000000E+00 0.  1.
          3    1    6    6  503    0  0.97458073847E+02 -0.38864179498E+01  0.11569243342E+03  0.15132058536E+03  0.00000000000E+00 0. -1.
         -3    1    6    6    0  503  0.42789400396E+03 -0.21719933859E+03  0.56718102645E+03  0.74294222392E+03  0.00000000000E+00 0.  1.
<mgrwt>
<rscale>  0 0.17187216E+04</rscale>
<asrwt>0</asrwt>
<pdfrwt beam="1">  1        2 0.48843515E+00 0.17187216E+04</pdfrwt>
<pdfrwt beam="2">  1       -1 0.35786353E-01 0.17187216E+04</pdfrwt>
<totfact> 0.10929019E+01</totfact>
</mgrwt>
</event>
<event>
12    7  0.1729738E-007  0.1186030E+04  0.7818608E-02  0.9125173E-01
         -1   -1    0    0    0  501 -0.00000000000E+00  0.00000000000E+00  0.30726277889E+03  0.30726277889E+03  0.00000000000E+00 0.  1.
          2   -1    0    0  501    0  0.00000000000E+00 -0.00000000000E+00 -0.11445140037E+04  0.11445140037E+04  0.00000000000E+00 0. -1.
         24    2    1    2    0    0  0.16233856280E+03 -0.11553362182E+03 -0.35159073773E+03  0.41150844882E+03  0.77597228393E+02 0.  0.
        254    2    1    2    0    0 -0.16233856280E+03  0.11553362182E+03 -0.48566048712E+03  0.10402683338E+04  0.89810370828E+03 0.  0.
         23    2    4    4    0    0 -0.32650132654E+03 -0.18438982639E+03 -0.55837636991E+03  0.67864771108E+03  0.90420246478E+02 0.  0.
         23    2    4    4    0    0  0.16416276374E+03  0.29992344820E+03  0.72715882787E+02  0.36162062272E+03  0.92619584260E+02 0.  0.
          2    1    3    3  502    0  0.13001751870E+03 -0.10487644366E+03 -0.22382063789E+03  0.27928355045E+03  0.00000000000E+00 0. -1.
         -1    1    3    3    0  502  0.32321044095E+02 -0.10657178154E+02 -0.12777009984E+03  0.13222489837E+03  0.00000000000E+00 0.  1.
         13    1    5    5    0    0 -0.74306148891E+02 -0.45144639524E+02 -0.69942831926E+02  0.11158602950E+03  0.00000000000E+00 0.  1.
        -13    1    5    5    0    0 -0.25219517765E+03 -0.13924518686E+03 -0.48843353798E+03  0.56706168158E+03  0.00000000000E+00 0. -1.
          3    1    6    6  503    0  0.21532026091E+02  0.84210570383E+02  0.54028497673E+02  0.10234318186E+03  0.00000000000E+00 0. -1.
         -3    1    6    6    0  503  0.14263073765E+03  0.21571287782E+03  0.18687385114E+02  0.25927744087E+03  0.00000000000E+00 0.  1.
<mgrwt>
<rscale>  0 0.11860296E+04</rscale>
<asrwt>0</asrwt>
<pdfrwt beam="1">  1        2 0.17607908E+00 0.11860296E+04</pdfrwt>
<pdfrwt beam="2">  1       -1 0.47271197E-01 0.11860296E+04</pdfrwt>
<totfact> 0.10281534E+02</totfact>
</mgrwt>
</event>
<event>
12    7  0.1729738E-007  0.1170605E+04  0.7818608E-02  0.9138982E-01
         -1   -1    0    0    0  501 -0.00000000000E+00  0.00000000000E+00  0.36809840533E+03  0.36809840533E+03  0.00000000000E+00 0.  1.
          2   -1    0    0  501    0  0.00000000000E+00 -0.00000000000E+00 -0.93067237879E+03  0.93067237879E+03  0.00000000000E+00 0. -1.
         24    2    1    2    0    0  0.22085814496E+03 -0.50425765230E+02 -0.12524257868E+03  0.27019549840E+03  0.77452087429E+02 0.  0.
        254    2    1    2    0    0 -0.22085814496E+03  0.50425765230E+02 -0.43733139479E+03  0.10285752857E+04  0.90298797972E+03 0.  0.
         23    2    4    4    0    0  0.29319176462E+03 -0.12463980217E+03 -0.15301075258E+02  0.33472146789E+03  0.10152756787E+03 0.  0.
         23    2    4    4    0    0 -0.51404990958E+03  0.17506556740E+03 -0.42203031953E+03  0.69385381782E+03  0.91805596114E+02 0.  0.
          2    1    3    3  502    0  0.12908571262E+03 -0.61242028185E+02 -0.10002233425E+03  0.17440806910E+03  0.00000000000E+00 0. -1.
         -1    1    3    3    0  502  0.91772432345E+02  0.10816262956E+02 -0.25220244421E+02  0.95787429298E+02  0.00000000000E+00 0.  1.
         13    1    5    5    0    0  0.10892804453E+02  0.15602614543E+02 -0.30212487904E+01  0.19267140776E+02  0.00000000000E+00 0.  1.
        -13    1    5    5    0    0  0.28229896017E+03 -0.14024241672E+03 -0.12279826468E+02  0.31545432712E+03  0.00000000000E+00 0. -1.
          4    1    6    6  503    0 -0.49034807567E+03  0.14596487365E+03 -0.40559399475E+03  0.65288089896E+03  0.00000000000E+00 0. -1.
         -4    1    6    6    0  503 -0.23701833915E+02  0.29100693757E+02 -0.16436324774E+02  0.40972918863E+02  0.00000000000E+00 0.  1.
<mgrwt>
<rscale>  0 0.11706050E+04</rscale>
<asrwt>0</asrwt>
<pdfrwt beam="1">  1        2 0.14318036E+00 0.11706050E+04</pdfrwt>
<pdfrwt beam="2">  1       -1 0.56630525E-01 0.11706050E+04</pdfrwt>
<totfact> 0.99536724E+01</totfact>
</mgrwt>
</event>
<event>
12    7  0.1729738E-007  0.1354179E+04  0.7818608E-02  0.8987671E-01
          2   -1    0    0  501    0  0.00000000000E+00  0.00000000000E+00  0.32718086149E+03  0.32718086149E+03  0.00000000000E+00 0. -1.
         -1   -1    0    0    0  501 -0.00000000000E+00 -0.00000000000E+00 -0.14012136232E+04  0.14012136232E+04  0.00000000000E+00 0.  1.
         24    2    1    2    0    0  0.25808437439E+03  0.13193868527E+03 -0.64124474851E+03  0.70805220247E+03  0.78279837511E+02 0.  0.
        254    2    1    2    0    0 -0.25808437439E+03 -0.13193868527E+03 -0.43278801323E+03  0.10203422822E+04  0.87736967554E+03 0.  0.
         23    2    4    4    0    0 -0.49288926716E+03 -0.25965071285E+03 -0.47097079393E+03  0.73515384884E+03  0.90991045557E+02 0.  0.
         23    2    4    4    0    0  0.23480489278E+03  0.12771202758E+03  0.38182780702E+02  0.28518843340E+03  0.91819486719E+02 0.  0.
          2    1    3    3  502    0  0.24166642617E+03  0.13369963814E+03 -0.63053896285E+03  0.68837318255E+03  0.00000000000E+00 0. -1.
         -1    1    3    3    0  502  0.16417948214E+02 -0.17609528716E+01 -0.10705785657E+02  0.19679019923E+02  0.00000000000E+00 0.  1.
         13    1    5    5    0    0 -0.32579956598E+02 -0.23542349361E+02 -0.69622111844E+02  0.80392376771E+02  0.00000000000E+00 0. -1.
        -13    1    5    5    0    0 -0.46030931057E+03 -0.23610836348E+03 -0.40134868208E+03  0.65476147207E+03  0.00000000000E+00 0.  1.
          2    1    6    6  503    0  0.10480622374E+03  0.58300953619E+02  0.63432049648E+02  0.13567229139E+03  0.00000000000E+00 0. -1.
         -2    1    6    6    0  503  0.12999866904E+03  0.69411073958E+02 -0.25249268946E+02  0.14951614201E+03  0.00000000000E+00 0.  1.
<mgrwt>
<rscale>  0 0.13541791E+04</rscale>
<asrwt>0</asrwt>
<pdfrwt beam="1">  1        2 0.50335516E-01 0.13541791E+04</pdfrwt>
<pdfrwt beam="2">  1       -1 0.21557133E+00 0.13541791E+04</pdfrwt>
<totfact> 0.13136327E+01</totfact>
</mgrwt>
</event>
<event>
12    7  0.1729738E-007  0.2175770E+04  0.7818608E-02  0.8528581E-01
          2   -1    0    0  501    0  0.00000000000E+00  0.00000000000E+00  0.14089752167E+04  0.14089752167E+04  0.00000000000E+00 0. -1.
         -1   -1    0    0    0  501 -0.00000000000E+00 -0.00000000000E+00 -0.83996755275E+03  0.83996755275E+03  0.00000000000E+00 0.  1.
         24    2    1    2    0    0 -0.61043454870E+03  0.28307515314E+03  0.83789018460E+03  0.10763076922E+04  0.60136564248E+02 0.  0.
        254    2    1    2    0    0  0.61043454870E+03 -0.28307515314E+03 -0.26888252069E+03  0.11726350772E+04  0.92196167692E+03 0.  0.
         23    2    4    4    0    0  0.80375968952E+03 -0.20331109478E+03 -0.20004094176E+02  0.83410444315E+03  0.89246952565E+02 0.  0.
         23    2    4    4    0    0 -0.19332514082E+03 -0.79764058355E+02 -0.24887842652E+03  0.33853063402E+03  0.94475414298E+02 0.  0.
          4    1    3    3  502    0 -0.36805788762E+03  0.20006629160E+03  0.53867574638E+03  0.68239628473E+03  0.00000000000E+00 0. -1.
         -3    1    3    3    0  502 -0.24237666107E+03  0.83008861541E+02  0.29921443822E+03  0.39391140751E+03  0.00000000000E+00 0.  1.
         13    1    5    5    0    0  0.79885729219E+03 -0.20959345215E+03 -0.19928574902E+02  0.82613530161E+03  0.00000000000E+00 0.  1.
        -13    1    5    5    0    0  0.49023973208E+01  0.62823573684E+01 -0.75519273556E-01  0.79691415319E+01  0.00000000000E+00 0. -1.
          4    1    6    6  503    0 -0.15792544301E+03 -0.61671305545E+02 -0.24587653855E+03  0.29866212965E+03  0.00000000000E+00 0.  1.
         -4    1    6    6    0  503 -0.35399697808E+02 -0.18092752809E+02 -0.30018879629E+01  0.39868504367E+02  0.00000000000E+00 0. -1.
<mgrwt>
<rscale>  0 0.21757697E+04</rscale>
<asrwt>0</asrwt>
<pdfrwt beam="1">  1        2 0.21676542E+00 0.21757697E+04</pdfrwt>
<pdfrwt beam="2">  1       -1 0.12922578E+00 0.21757697E+04</pdfrwt>
<totfact> 0.76840231E+00</totfact>
</mgrwt>
</event>
<event>
12    7  0.1729738E-007  0.1377792E+04  0.7818608E-02  0.8970053E-01
          2   -1    0    0  501    0  0.00000000000E+00  0.00000000000E+00  0.93174490027E+03  0.93174490027E+03  0.00000000000E+00 0. -1.
         -1   -1    0    0    0  501 -0.00000000000E+00 -0.00000000000E+00 -0.50934287645E+03  0.50934287645E+03  0.00000000000E+00 0.  1.
         24    2    1    2    0    0 -0.13005712690E+02  0.23361216248E+03  0.45224236441E+03  0.51623266522E+03  0.85024804963E+02 0.  0.
        254    2    1    2    0    0  0.13005712690E+02 -0.23361216248E+03 -0.29840340590E+02  0.92485511150E+03  0.89427218470E+03 0.  0.
         23    2    4    4    0    0 -0.64372859169E+02 -0.44657916456E+03 -0.30845459714E+03  0.55416709589E+03  0.91542976014E+02 0.  0.
         23    2    4    4    0    0  0.77378571859E+02  0.21296700208E+03  0.27861425655E+03  0.37068801561E+03  0.91876621655E+02 0.  0.
          4    1    3    3  502    0  0.10160580218E+02  0.12400404855E+03  0.31745676857E+03  0.34096780106E+03  0.00000000000E+00 0. -1.
         -3    1    3    3    0  502 -0.23166292908E+02  0.10960811392E+03  0.13478559583E+03  0.17526486416E+03  0.00000000000E+00 0.  1.
         13    1    5    5    0    0  0.14708429563E+01 -0.54054740082E+02 -0.75917116015E+02  0.93206688646E+02  0.00000000000E+00 0. -1.
        -13    1    5    5    0    0 -0.65843702125E+02 -0.39252442448E+03 -0.23253748112E+03  0.46096040724E+03  0.00000000000E+00 0.  1.
          2    1    6    6  503    0  0.23526332788E+02  0.15536171685E+02  0.44078272011E+01  0.28535765378E+02  0.00000000000E+00 0. -1.
         -2    1    6    6    0  503  0.53852239071E+02  0.19743083040E+03  0.27420642934E+03  0.34215225023E+03  0.00000000000E+00 0.  1.
<mgrwt>
<rscale>  0 0.13777919E+04</rscale>
<asrwt>0</asrwt>
<pdfrwt beam="1">  1        2 0.14334537E+00 0.13777919E+04</pdfrwt>
<pdfrwt beam="2">  1       -1 0.78360443E-01 0.13777919E+04</pdfrwt>
<totfact> 0.50640011E+01</totfact>
</mgrwt>
</event>
<event>
12    7  0.1729738E-007  0.2538061E+04  0.7818608E-02  0.8389550E-01
          2   -1    0    0  501    0  0.00000000000E+00  0.00000000000E+00  0.17393787780E+04  0.17393787780E+04  0.00000000000E+00 0. -1.
         -1   -1    0    0    0  501 -0.00000000000E+00 -0.00000000000E+00 -0.92587002504E+03  0.92587002504E+03  0.00000000000E+00 0.  1.
         24    2    1    2    0    0  0.72008410005E+03 -0.54846889538E+03  0.10283912525E+04  0.13722519175E+04  0.78406101259E+02 0.  0.
        254    2    1    2    0    0 -0.72008410005E+03  0.54846889538E+03 -0.21488249948E+03  0.12929968855E+04  0.89795724677E+03 0.  0.
         23    2    4    4    0    0  0.99300891935E+02  0.41030899544E+03 -0.60627383232E+01  0.43151573193E+03  0.89190421212E+02 0.  0.
         23    2    4    4    0    0 -0.81938499198E+03  0.13815989995E+03 -0.20881976115E+03  0.86148115358E+03  0.89800680861E+02 0.  0.
          4    1    3    3  502    0  0.50054186817E+03 -0.39617288338E+03  0.77453226323E+03  0.10036908598E+04  0.00000000000E+00 0. -1.
         -3    1    3    3    0  502  0.21954223188E+03 -0.15229601201E+03  0.25385898923E+03  0.36856105771E+03  0.00000000000E+00 0.  1.
         13    1    5    5    0    0  0.30145439972E+02  0.74844332040E+02  0.32182514590E+02  0.86868497368E+02  0.00000000000E+00 0. -1.
        -13    1    5    5    0    0  0.69155451963E+02  0.33546466340E+03 -0.38245252914E+02  0.34464723457E+03  0.00000000000E+00 0.  1.
          2    1    6    6  503    0 -0.25982875673E+03  0.85691234326E+02 -0.76874207985E+02  0.28418939867E+03  0.00000000000E+00 0. -1.
         -2    1    6    6    0  503 -0.55955623525E+03  0.52468665620E+02 -0.13194555317E+03  0.57729175491E+03  0.00000000000E+00 0.  1.
<mgrwt>
<rscale>  0 0.25380612E+04</rscale>
<asrwt>0</asrwt>
<pdfrwt beam="1">  1        2 0.26759673E+00 0.25380612E+04</pdfrwt>
<pdfrwt beam="2">  1       -1 0.14244154E+00 0.25380612E+04</pdfrwt>
<totfact> 0.37801538E+00</totfact>
</mgrwt>
</event>
<event>
12    7  0.1729738E-007  0.2163598E+04  0.7818608E-02  0.8533734E-01
         -1   -1    0    0    0  501 -0.00000000000E+00  0.00000000000E+00  0.75553576153E+03  0.75553576153E+03  0.00000000000E+00 0.  1.
          2   -1    0    0  501    0  0.00000000000E+00 -0.00000000000E+00 -0.15489523562E+04  0.15489523562E+04  0.00000000000E+00 0. -1.
         24    2    1    2    0    0 -0.78695838192E+02 -0.14589595546E+03 -0.12664873826E+04  0.12798202684E+04  0.80442303814E+02 0.  0.
        254    2    1    2    0    0  0.78695838192E+02  0.14589595546E+03  0.47307078796E+03  0.10246678493E+04  0.89368314647E+03 0.  0.
         23    2    4    4    0    0 -0.12431999656E+03 -0.16639020499E+03  0.58303258832E+03  0.62580164599E+03  0.92517777839E+02 0.  0.
         23    2    4    4    0    0  0.20301583476E+03  0.31228616045E+03 -0.10996180037E+03  0.39886620334E+03  0.90909710483E+02 0.  0.
          4    1    3    3  502    0 -0.56171902752E+02 -0.13121012564E+03 -0.11941084011E+04  0.12026081046E+04  0.00000000000E+00 0. -1.
         -3    1    3    3    0  502 -0.22523935440E+02 -0.14685829820E+02 -0.72378981488E+02  0.77212163721E+02  0.00000000000E+00 0.  1.
         13    1    5    5    0    0 -0.52033062391E+02 -0.14551608795E+02  0.20595593748E+03  0.21292495646E+03  0.00000000000E+00 0.  1.
        -13    1    5    5    0    0 -0.72286934173E+02 -0.15183859620E+03  0.37707665084E+03  0.41287668953E+03  0.00000000000E+00 0. -1.
          4    1    6    6  503    0  0.14937828589E+03  0.26311290484E+03 -0.54630519458E+02  0.30745205585E+03  0.00000000000E+00 0. -1.
         -4    1    6    6    0  503  0.53637548867E+02  0.49173255612E+02 -0.55331280908E+02  0.91414147498E+02  0.00000000000E+00 0.  1.
<mgrwt>
<rscale>  0 0.21635978E+04</rscale>
<asrwt>0</asrwt>
<pdfrwt beam="1">  1        2 0.23830036E+00 0.21635978E+04</pdfrwt>
<pdfrwt beam="2">  1       -1 0.11623627E+00 0.21635978E+04</pdfrwt>
<totfact> 0.83222356E+00</totfact>
</mgrwt>
</event>
<event>
12    7  0.1729738E-007  0.1449459E+04  0.7818608E-02  0.8918776E-01
          2   -1    0    0  501    0  0.00000000000E+00  0.00000000000E+00  0.66830554469E+03  0.66830554469E+03  0.00000000000E+00 0. -1.
         -1   -1    0    0    0  501 -0.00000000000E+00 -0.00000000000E+00 -0.78591680841E+03  0.78591680841E+03  0.00000000000E+00 0.  1.
         24    2    1    2    0    0  0.25679891868E+03  0.27333861045E+03 -0.28737073852E+03  0.47775762985E+03  0.70786516594E+02 0.  0.
        254    2    1    2    0    0 -0.25679891868E+03 -0.27333861045E+03  0.16975947479E+03  0.97646472324E+03  0.88544079184E+03 0.  0.
         23    2    4    4    0    0  0.21156710443E+03  0.77285042970E+01  0.32730517342E+03  0.40000754817E+03  0.89760751955E+02 0.  0.
         23    2    4    4    0    0 -0.46836602311E+03 -0.28106711475E+03 -0.15754569863E+03  0.57645717507E+03  0.95481793751E+02 0.  0.
          4    1    3    3  502    0  0.11380490164E+03  0.87175759232E+02 -0.14124684452E+03  0.20125068875E+03  0.00000000000E+00 0. -1.
         -3    1    3    3    0  502  0.14299401704E+03  0.18616285122E+03 -0.14612389399E+03  0.27650694110E+03  0.00000000000E+00 0.  1.
         13    1    5    5    0    0  0.15871481018E+03  0.41707289103E+02  0.26376269783E+03  0.31064553707E+03  0.00000000000E+00 0.  1.
        -13    1    5    5    0    0  0.52852294245E+02 -0.33978784806E+02  0.63542475598E+02  0.89362011106E+02  0.00000000000E+00 0. -1.
          2    1    6    6  503    0 -0.11779468538E+02 -0.12679239120E+02  0.11181509101E+02  0.20604492944E+02  0.00000000000E+00 0. -1.
         -2    1    6    6    0  503 -0.45658655457E+03 -0.26838787563E+03 -0.16872720773E+03  0.55585268212E+03  0.00000000000E+00 0.  1.
<mgrwt>
<rscale>  0 0.14494586E+04</rscale>
<asrwt>0</asrwt>
<pdfrwt beam="1">  1        2 0.10281624E+00 0.14494586E+04</pdfrwt>
<pdfrwt beam="2">  1       -1 0.12091028E+00 0.14494586E+04</pdfrwt>
<totfact> 0.29251645E+01</totfact>
</mgrwt>
</event>
<event>
12    7  0.1729738E-007  0.1551386E+04  0.7818608E-02  0.8850983E-01
         -1   -1    0    0    0  501 -0.00000000000E+00  0.00000000000E+00  0.33381560806E+03  0.33381560806E+03  0.00000000000E+00 0.  1.
          2   -1    0    0  501    0  0.00000000000E+00 -0.00000000000E+00 -0.18024921387E+04  0.18024921387E+04  0.00000000000E+00 0. -1.
         24    2    1    2    0    0  0.70501891297E+02  0.35970390397E+03 -0.98635065559E+03  0.10553762589E+04  0.81080311052E+02 0.  0.
        254    2    1    2    0    0 -0.70501891297E+02 -0.35970390397E+03 -0.48232587507E+03  0.10809314879E+04  0.89521908858E+03 0.  0.
         23    2    4    4    0    0  0.19532927244E+03 -0.27994540996E+03  0.15035955817E+03  0.38391414501E+03  0.90879682962E+02 0.  0.
         23    2    4    4    0    0 -0.26583116374E+03 -0.79758494002E+02 -0.63268543324E+03  0.69701734288E+03  0.92275098814E+02 0.  0.
          4    1    3    3  502    0  0.62358695490E+02  0.28869314926E+03 -0.69050914671E+03  0.75102278462E+03  0.00000000000E+00 0. -1.
         -3    1    3    3    0  502  0.81431958069E+01  0.71010754706E+02 -0.29584150887E+03  0.30435347426E+03  0.00000000000E+00 0.  1.
         13    1    5    5    0    0  0.14877456335E+03 -0.25993833237E+03  0.10975104316E+03  0.31897821056E+03  0.00000000000E+00 0. -1.
        -13    1    5    5    0    0  0.46554709087E+02 -0.20007077594E+02  0.40608515011E+02  0.64935934454E+02  0.00000000000E+00 0.  1.
          1    1    6    6  503    0 -0.27312553055E+03 -0.77460181018E+02 -0.62330987409E+03  0.68491812228E+03  0.00000000000E+00 0. -1.
         -1    1    6    6    0  503  0.72943668167E+01 -0.22983129841E+01 -0.93755591478E+01  0.12099220601E+02  0.00000000000E+00 0.  1.
<mgrwt>
<rscale>  0 0.15513865E+04</rscale>
<asrwt>0</asrwt>
<pdfrwt beam="1">  1        2 0.27730649E+00 0.15513865E+04</pdfrwt>
<pdfrwt beam="2">  1       -1 0.51356247E-01 0.15513865E+04</pdfrwt>
<totfact> 0.35965467E+01</totfact>
</mgrwt>
</event>
<event>
12    7  0.1729738E-007  0.2820342E+04  0.7818608E-02  0.8296981E-01
         -1   -1    0    0    0  501 -0.00000000000E+00  0.00000000000E+00  0.18964841090E+04  0.18964841090E+04  0.00000000000E+00 0.  1.
          2   -1    0    0  501    0  0.00000000000E+00 -0.00000000000E+00 -0.10485628289E+04  0.10485628289E+04  0.00000000000E+00 0. -1.
         24    2    1    2    0    0 -0.11852739395E+03 -0.78772170661E+03  0.14185620927E+04  0.16288390528E+04  0.79019104664E+02 0.  0.
        254    2    1    2    0    0  0.11852739395E+03  0.78772170661E+03 -0.57064081257E+03  0.13162078852E+04  0.87875936970E+03 0.  0.
         23    2    4    4    0    0  0.86891386949E+02  0.96718186245E+03 -0.41475983804E+03  0.10602568761E+04  0.95540838698E+02 0.  0.
         23    2    4    4    0    0  0.31636007005E+02 -0.17946015585E+03 -0.15588097454E+03  0.25595100908E+03  0.89472098176E+02 0.  0.
          4    1    3    3  502    0 -0.30947773945E+02 -0.81985794502E+02  0.12456462365E+03  0.15230161088E+03  0.00000000000E+00 0. -1.
         -3    1    3    3    0  502 -0.87579620009E+02 -0.70573591210E+03  0.12939974690E+04  0.14765374419E+04  0.00000000000E+00 0.  1.
         13    1    5    5    0    0  0.51758384692E+02  0.87060829539E+03 -0.35710943277E+03  0.94242500039E+03  0.00000000000E+00 0. -1.
        -13    1    5    5    0    0  0.35133002257E+02  0.96573567060E+02 -0.57650405266E+02  0.11783187569E+03  0.00000000000E+00 0.  1.
          4    1    6    6  503    0  0.33927960026E+02 -0.10067687936E+03 -0.13967082791E+03  0.17548470212E+03  0.00000000000E+00 0. -1.
         -4    1    6    6    0  503 -0.22919530211E+01 -0.78783276490E+02 -0.16210146632E+02  0.80466306967E+02  0.00000000000E+00 0.  1.
<mgrwt>
<rscale>  0 0.28203423E+04</rscale>
<asrwt>0</asrwt>
<pdfrwt beam="1">  1        2 0.16131736E+00 0.28203423E+04</pdfrwt>
<pdfrwt beam="2">  1       -1 0.29176679E+00 0.28203423E+04</pdfrwt>
<totfact> 0.86720114E-01</totfact>
</mgrwt>
</event>
<event>
12    7  0.1729738E-007  0.2099831E+04  0.7818608E-02  0.8561318E-01
          2   -1    0    0  501    0  0.00000000000E+00  0.00000000000E+00  0.17266329552E+04  0.17266329552E+04  0.00000000000E+00 0. -1.
         -1   -1    0    0    0  501 -0.00000000000E+00 -0.00000000000E+00 -0.63842336388E+03  0.63842336388E+03  0.00000000000E+00 0.  1.
         24    2    1    2    0    0 -0.42034714154E+03  0.42353674837E+03 -0.23941521439E+03  0.64793068849E+03  0.80121380330E+02 0.  0.
        254    2    1    2    0    0  0.42034714154E+03 -0.42353674837E+03  0.13276248057E+04  0.17171256306E+04  0.91096526275E+03 0.  0.
         23    2    4    4    0    0 -0.27173239644E+03 -0.83144631002E+02  0.24656488415E+03  0.38588984691E+03  0.85820783705E+02 0.  0.
         23    2    4    4    0    0  0.69207953798E+03 -0.34039211737E+03  0.10810599216E+04  0.13312357837E+04  0.93044491135E+02 0.  0.
          4    1    3    3  502    0 -0.16117138397E+03  0.14154861670E+03 -0.48212185980E+02  0.21985595461E+03  0.00000000000E+00 0. -1.
         -3    1    3    3    0  502 -0.25917575758E+03  0.28198813167E+03 -0.19120302841E+03  0.42807473389E+03  0.00000000000E+00 0.  1.
         13    1    5    5    0    0 -0.68796295774E+01 -0.22765153637E+02  0.10479439325E+02  0.25988462282E+02  0.00000000000E+00 0.  1.
        -13    1    5    5    0    0 -0.26485276686E+03 -0.60379477366E+02  0.23608544483E+03  0.35990138463E+03  0.00000000000E+00 0. -1.
          1    1    6    6  503    0  0.50742742308E+03 -0.23805215884E+03  0.71302650561E+03  0.90694995327E+03  0.00000000000E+00 0. -1.
         -1    1    6    6    0  503  0.18465211491E+03 -0.10233995852E+03  0.36803341598E+03  0.42428583046E+03  0.00000000000E+00 0.  1.
<mgrwt>
<rscale>  0 0.20998312E+04</rscale>
<asrwt>0</asrwt>
<pdfrwt beam="1">  1        2 0.26563584E+00 0.20998312E+04</pdfrwt>
<pdfrwt beam="2">  1       -1 0.98218980E-01 0.20998312E+04</pdfrwt>
<totfact> 0.98771878E+00</totfact>
</mgrwt>
</event>
<event>
12    7  0.1729738E-007  0.1620930E+04  0.7818608E-02  0.8807792E-01
         -1   -1    0    0    0  501 -0.00000000000E+00  0.00000000000E+00  0.28122810922E+03  0.28122810922E+03  0.00000000000E+00 0.  1.
          2   -1    0    0  501    0  0.00000000000E+00 -0.00000000000E+00 -0.23356601181E+04  0.23356601181E+04  0.00000000000E+00 0. -1.
         24    2    1    2    0    0 -0.23680718619E+03 -0.69927670859E+02  0.91710009513E+02  0.27554070493E+03  0.80897661544E+02 0.  0.
        254    2    1    2    0    0  0.23680718619E+03  0.69927670859E+02 -0.21461420184E+04  0.23413475224E+04  0.90278188668E+03 0.  0.
         23    2    4    4    0    0 -0.27895344352E+03 -0.61659829408E+02 -0.32662741829E+03  0.44339328632E+03  0.91077866452E+02 0.  0.
         23    2    4    4    0    0  0.51576062971E+03  0.13158750027E+03 -0.18195146001E+04  0.18979542361E+04  0.90953861151E+02 0.  0.
          2    1    3    3  502    0 -0.31755159598E+02 -0.28653220935E+02 -0.85030093061E+01  0.43608467048E+02  0.00000000000E+00 0. -1.
         -1    1    3    3    0  502 -0.20505202659E+03 -0.41274449924E+02  0.10021301882E+03  0.23193223788E+03  0.00000000000E+00 0.  1.
         13    1    5    5    0    0 -0.27051091505E+03 -0.38809505032E+02 -0.28289767166E+03  0.39333627531E+03  0.00000000000E+00 0.  1.
        -13    1    5    5    0    0 -0.84425284741E+01 -0.22850324376E+02 -0.43729746628E+02  0.50057011011E+02  0.00000000000E+00 0. -1.
          2    1    6    6  503    0  0.13737200181E+02  0.13405948601E+02 -0.13194142595E+03  0.13333030416E+03  0.00000000000E+00 0. -1.
         -2    1    6    6    0  503  0.50202342953E+03  0.11818155167E+03 -0.16875731742E+04  0.17646239319E+04  0.00000000000E+00 0.  1.
<mgrwt>
<rscale>  0 0.16209297E+04</rscale>
<asrwt>0</asrwt>
<pdfrwt beam="1">  1        2 0.35933233E+00 0.16209297E+04</pdfrwt>
<pdfrwt beam="2">  1       -1 0.43265862E-01 0.16209297E+04</pdfrwt>
<totfact> 0.24890433E+01</totfact>
</mgrwt>
</event>
<event>
12    7  0.1729738E-007  0.2167868E+04  0.7818608E-02  0.8531922E-01
          2   -1    0    0  501    0  0.00000000000E+00  0.00000000000E+00  0.85933351345E+03  0.85933351345E+03  0.00000000000E+00 0. -1.
         -1   -1    0    0    0  501 -0.00000000000E+00 -0.00000000000E+00 -0.13672378403E+04  0.13672378403E+04  0.00000000000E+00 0.  1.
         24    2    1    2    0    0 -0.70513647117E+03 -0.24204311109E+03 -0.73408550019E+03  0.10494084425E+04  0.81081730173E+02 0.  0.
        254    2    1    2    0    0  0.70513647117E+03  0.24204311109E+03  0.22618117329E+03  0.11771629113E+04  0.88246942496E+03 0.  0.
         23    2    4    4    0    0  0.65503222199E+03 -0.44750533027E+02  0.44809479840E+03  0.80000433607E+03  0.90267199578E+02 0.  0.
         23    2    4    4    0    0  0.50104249177E+02  0.28679364412E+03 -0.22191362511E+03  0.37715857523E+03  0.90784931389E+02 0.  0.
          4    1    3    3  502    0 -0.64071490677E+01  0.53254172981E+01 -0.11958253331E+02  0.14574342225E+02  0.00000000000E+00 0. -1.
         -3    1    3    3    0  502 -0.69872932210E+03 -0.24736852839E+03 -0.72212724686E+03  0.10348341003E+04  0.00000000000E+00 0.  1.
         13    1    5    5    0    0  0.58963316765E+03 -0.14141885834E+02  0.38715493119E+03  0.70551839528E+03  0.00000000000E+00 0.  1.
        -13    1    5    5    0    0  0.65399054346E+02 -0.30608647193E+02  0.60939867210E+02  0.94485940795E+02  0.00000000000E+00 0. -1.
          1    1    6    6  503    0  0.70591335228E+02  0.18289580335E+03 -0.16871898757E+03  0.25865055240E+03  0.00000000000E+00 0. -1.
         -1    1    6    6    0  503 -0.20487086051E+02  0.10389784077E+03 -0.53194637543E+02  0.11850802283E+03  0.00000000000E+00 0.  1.
<mgrwt>
<rscale>  0 0.21678684E+04</rscale>
<asrwt>0</asrwt>
<pdfrwt beam="1">  1        2 0.13220516E+00 0.21678684E+04</pdfrwt>
<pdfrwt beam="2">  1       -1 0.21034428E+00 0.21678684E+04</pdfrwt>
<totfact> 0.41798216E+00</totfact>
</mgrwt>
</event>
<event>
12    7  0.1729738E-007  0.1300020E+04  0.7818608E-02  0.9029549E-01
          2   -1    0    0  501    0  0.00000000000E+00  0.00000000000E+00  0.23753747751E+04  0.23753747751E+04  0.00000000000E+00 0. -1.
         -1   -1    0    0    0  501 -0.00000000000E+00 -0.00000000000E+00 -0.17787209790E+03  0.17787209790E+03  0.00000000000E+00 0.  1.
         24    2    1    2    0    0  0.55267319672E+02 -0.32930239839E+03  0.72003751162E+03  0.79758415441E+03  0.78688747745E+02 0.  0.
        254    2    1    2    0    0 -0.55267319672E+02  0.32930239839E+03  0.14774651656E+04  0.17556627186E+04  0.88766757275E+03 0.  0.
         23    2    4    4    0    0  0.35612521784E+03  0.29256112275E+03  0.10716640092E+04  0.11699238490E+04  0.88548758512E+02 0.  0.
         23    2    4    4    0    0 -0.41139253751E+03  0.36741275643E+02  0.40580115636E+03  0.58573886952E+03  0.88440395222E+02 0.  0.
          2    1    3    3  502    0  0.55336271981E+02 -0.17570928652E+03  0.46085386383E+03  0.49630851310E+03  0.00000000000E+00 0. -1.
         -1    1    3    3    0  502 -0.68952308958E-01 -0.15359311187E+03  0.25918364779E+03  0.30127564132E+03  0.00000000000E+00 0.  1.
         13    1    5    5    0    0  0.22650843455E+03  0.13819082568E+03  0.54959402021E+03  0.61029203032E+03  0.00000000000E+00 0. -1.
        -13    1    5    5    0    0  0.12961678329E+03  0.15437029707E+03  0.52206998899E+03  0.55963181873E+03  0.00000000000E+00 0.  1.
          4    1    6    6  503    0 -0.41312962932E+03  0.40884506492E+02  0.39106382929E+03  0.57033196655E+03  0.00000000000E+00 0. -1.
         -4    1    6    6    0  503  0.17370918091E+01 -0.41432308492E+01  0.14737327073E+02  0.15406902968E+02  0.00000000000E+00 0.  1.
<mgrwt>
<rscale>  0 0.13000198E+04</rscale>
<asrwt>0</asrwt>
<pdfrwt beam="1">  1        2 0.36544225E+00 0.13000198E+04</pdfrwt>
<pdfrwt beam="2">  1       -1 0.27364940E-01 0.13000198E+04</pdfrwt>
<totfact> 0.55132177E+01</totfact>
</mgrwt>
</event>
<event>
12    7  0.1729738E-007  0.1251787E+04  0.7818608E-02  0.9068697E-01
          2   -1    0    0  501    0  0.00000000000E+00  0.00000000000E+00  0.54117295891E+03  0.54117295891E+03  0.00000000000E+00 0. -1.
         -1   -1    0    0    0  501 -0.00000000000E+00 -0.00000000000E+00 -0.72387759250E+03  0.72387759250E+03  0.00000000000E+00 0.  1.
         24    2    1    2    0    0 -0.18840427432E+02  0.28371443272E+01  0.24786779479E+03  0.26113564580E+03  0.79939794361E+02 0.  0.
        254    2    1    2    0    0  0.18840427432E+02 -0.28371443272E+01 -0.43057242838E+03  0.10039149056E+04  0.90669151895E+03 0.  0.
         23    2    4    4    0    0 -0.34939454462E+03 -0.13849084601E+03 -0.45917011051E+03  0.60004357613E+03  0.89212334470E+02 0.  0.
         23    2    4    4    0    0  0.36823497205E+03  0.13565370168E+03  0.28597682134E+02  0.40387132949E+03  0.91078548163E+02 0.  0.
          2    1    3    3  502    0 -0.31410107133E+02 -0.13745223491E+02  0.23312862585E+03  0.23563633461E+03  0.00000000000E+00 0. -1.
         -1    1    3    3    0  502  0.12569679701E+02  0.16582367818E+02  0.14739168938E+02  0.25499311191E+02  0.00000000000E+00 0.  1.
         13    1    5    5    0    0 -0.62189262819E+02  0.98895812001E+01 -0.78195170320E+02  0.10039817173E+03  0.00000000000E+00 0. -1.
        -13    1    5    5    0    0 -0.28720528180E+03 -0.14838042721E+03 -0.38097494019E+03  0.49964540439E+03  0.00000000000E+00 0.  1.
          1    1    6    6  503    0  0.45059421305E+02  0.19723754371E+02  0.35172113361E+02  0.60468632307E+02  0.00000000000E+00 0. -1.
         -1    1    6    6    0  503  0.32317555075E+03  0.11592994731E+03 -0.65744312263E+01  0.34340269718E+03  0.00000000000E+00 0.  1.
<mgrwt>
<rscale>  0 0.12517875E+04</rscale>
<asrwt>0</asrwt>
<pdfrwt beam="1">  1        2 0.83257378E-01 0.12517875E+04</pdfrwt>
<pdfrwt beam="2">  1       -1 0.11136578E+00 0.12517875E+04</pdfrwt>
<totfact> 0.46782271E+01</totfact>
</mgrwt>
</event>
<event>
12    7  0.1729738E-007  0.1485441E+04  0.7818608E-02  0.8894192E-01
          2   -1    0    0  501    0  0.00000000000E+00  0.00000000000E+00  0.22262117049E+04  0.22262117049E+04  0.00000000000E+00 0. -1.
         -1   -1    0    0    0  501 -0.00000000000E+00 -0.00000000000E+00 -0.24779043233E+03  0.24779043233E+03  0.00000000000E+00 0.  1.
         24    2    1    2    0    0 -0.32017821105E+03  0.11115895860E+03  0.95707897867E+02  0.36126069608E+03  0.80491539342E+02 0.  0.
        254    2    1    2    0    0  0.32017821105E+03 -0.11115895860E+03  0.18827133747E+04  0.21127414412E+04  0.89676995099E+03 0.  0.
         23    2    4    4    0    0  0.17138837183E+02 -0.58844403851E+02  0.17685659012E+04  0.17719613576E+04  0.90913709577E+02 0.  0.
         23    2    4    4    0    0  0.30303937387E+03 -0.52314554751E+02  0.11414747355E+03  0.34078008353E+03  0.92367444823E+02 0.  0.
          4    1    3    3  502    0 -0.32344909174E+02  0.22824389557E+02  0.37647909079E+02  0.54630677885E+02  0.00000000000E+00 0. -1.
         -3    1    3    3    0  502 -0.28783330188E+03  0.88334569044E+02  0.58059988788E+02  0.30663001819E+03  0.00000000000E+00 0.  1.
         13    1    5    5    0    0  0.44135121705E+02 -0.57693882329E+02  0.88281622808E+03  0.88579963061E+03  0.00000000000E+00 0. -1.
        -13    1    5    5    0    0 -0.26996284522E+02 -0.11505215216E+01  0.88574967309E+03  0.88616172703E+03  0.00000000000E+00 0.  1.
          3    1    6    6  503    0  0.29470304186E+03 -0.67376348464E+02  0.99751554113E+02  0.31833917095E+03  0.00000000000E+00 0. -1.
         -3    1    6    6    0  503  0.83363320101E+01  0.15061793713E+02  0.14395919436E+02  0.22440912586E+02  0.00000000000E+00 0.  1.
<mgrwt>
<rscale>  0 0.14854413E+04</rscale>
<asrwt>0</asrwt>
<pdfrwt beam="1">  1        2 0.34249410E+00 0.14854413E+04</pdfrwt>
<pdfrwt beam="2">  1       -1 0.38121606E-01 0.14854413E+04</pdfrwt>
<totfact> 0.36611416E+01</totfact>
</mgrwt>
</event>
<event>
12    7  0.1729738E-007  0.1552668E+04  0.7818608E-02  0.8850165E-01
          2   -1    0    0  501    0  0.00000000000E+00  0.00000000000E+00  0.27086489414E+04  0.27086489414E+04  0.00000000000E+00 0. -1.
         -1   -1    0    0    0  501 -0.00000000000E+00 -0.00000000000E+00 -0.22250742294E+03  0.22250742294E+03  0.00000000000E+00 0.  1.
         24    2    1    2    0    0 -0.12042610122E+03  0.38599263106E+03  0.14071717947E+04  0.14662547107E+04  0.79231682874E+02 0.  0.
        254    2    1    2    0    0  0.12042610122E+03 -0.38599263106E+03  0.10789697237E+04  0.14649016536E+04  0.90458191067E+03 0.  0.
         23    2    4    4    0    0 -0.37273934044E+03 -0.14382667948E+03  0.62148390460E+03  0.74419231035E+03  0.89214468925E+02 0.  0.
         23    2    4    4    0    0  0.49316544166E+03 -0.24216595158E+03  0.45748581909E+03  0.72070934329E+03  0.90951535923E+02 0.  0.
          4    1    3    3  502    0 -0.10287165326E+03  0.36848560947E+03  0.12530662649E+04  0.13101676555E+04  0.00000000000E+00 0. -1.
         -3    1    3    3    0  502 -0.17554447958E+02  0.17507021594E+02  0.15410552988E+03  0.15608705515E+03  0.00000000000E+00 0.  1.
         13    1    5    5    0    0 -0.68593189899E+01 -0.23066501405E+02  0.37557005817E+02  0.44605408080E+02  0.00000000000E+00 0.  1.
        -13    1    5    5    0    0 -0.36588002145E+03 -0.12076017808E+03  0.58392689879E+03  0.69958690227E+03  0.00000000000E+00 0. -1.
          4    1    6    6  503    0  0.37046019924E+03 -0.18859394634E+03  0.29282125524E+03  0.50848079938E+03  0.00000000000E+00 0. -1.
         -4    1    6    6    0  503  0.12270524242E+03 -0.53572005235E+02  0.16466456385E+03  0.21222854391E+03  0.00000000000E+00 0.  1.
<mgrwt>
<rscale>  0 0.15526680E+04</rscale>
<asrwt>0</asrwt>
<pdfrwt beam="1">  1        2 0.41671520E+00 0.15526680E+04</pdfrwt>
<pdfrwt beam="2">  1       -1 0.34231913E-01 0.15526680E+04</pdfrwt>
<totfact> 0.23312653E+01</totfact>
</mgrwt>
</event>
<event>
12    7  0.1729738E-007  0.1839316E+04  0.7818608E-02  0.8685667E-01
          2   -1    0    0  501    0  0.00000000000E+00  0.00000000000E+00  0.14613320975E+04  0.14613320975E+04  0.00000000000E+00 0. -1.
         -1   -1    0    0    0  501 -0.00000000000E+00 -0.00000000000E+00 -0.57876672084E+03  0.57876672084E+03  0.00000000000E+00 0.  1.
         24    2    1    2    0    0 -0.20332228115E+03  0.23328057493E+02  0.10614384838E+04  0.10839290844E+04  0.79790078776E+02 0.  0.
        254    2    1    2    0    0  0.20332228115E+03 -0.23328057493E+02 -0.17887310714E+03  0.95616973401E+03  0.91672287170E+03 0.  0.
         23    2    4    4    0    0 -0.20837398155E+02  0.34575176233E+03 -0.33298828034E+03  0.48868517627E+03  0.89182556262E+02 0.  0.
         23    2    4    4    0    0  0.22415967930E+03 -0.36907981983E+03  0.15411517320E+03  0.46748455774E+03  0.91229654623E+02 0.  0.
          2    1    3    3  502    0 -0.20477504058E+03  0.32839189235E+02  0.10392970161E+04  0.10597874869E+04  0.00000000000E+00 0. -1.
         -1    1    3    3    0  502  0.14527594323E+01 -0.95111317423E+01  0.22141467709E+02  0.24141597489E+02  0.00000000000E+00 0.  1.
         13    1    5    5    0    0 -0.53985628669E+02  0.19829438507E+03 -0.21001763722E+03  0.29384097603E+03  0.00000000000E+00 0. -1.
        -13    1    5    5    0    0  0.33148230514E+02  0.14745737726E+03 -0.12297064313E+03  0.19484420024E+03  0.00000000000E+00 0.  1.
          2    1    6    6  503    0  0.16731702640E+03 -0.32640573878E+03  0.15003009143E+03  0.39628868514E+03  0.00000000000E+00 0.  1.
         -2    1    6    6    0  503  0.56842652901E+02 -0.42674081043E+02  0.40850817682E+01  0.71195872596E+02  0.00000000000E+00 0. -1.
<mgrwt>
<rscale>  0 0.18393155E+04</rscale>
<asrwt>0</asrwt>
<pdfrwt beam="1">  1        2 0.22482032E+00 0.18393155E+04</pdfrwt>
<pdfrwt beam="2">  1       -1 0.89041035E-01 0.18393155E+04</pdfrwt>
<totfact> 0.17708756E+01</totfact>
</mgrwt>
</event>
<event>
12    7  0.1729738E-007  0.1190918E+04  0.7818608E-02  0.9120843E-01
         -1   -1    0    0    0  501 -0.00000000000E+00  0.00000000000E+00  0.13133778221E+04  0.13133778221E+04  0.00000000000E+00 0.  1.
          2   -1    0    0  501    0  0.00000000000E+00 -0.00000000000E+00 -0.26996917170E+03  0.26996917170E+03  0.00000000000E+00 0. -1.
         24    2    1    2    0    0 -0.12641378333E+03  0.12759593878E+03  0.26187272253E+02  0.19693510642E+03  0.76396954816E+02 0.  0.
        254    2    1    2    0    0  0.12641378333E+03 -0.12759593878E+03  0.10172213782E+04  0.13864118874E+04  0.92473640631E+03 0.  0.
         23    2    4    4    0    0 -0.26480739064E+03  0.24681613209E+03  0.27607866984E+03  0.46410100678E+03  0.90161828721E+02 0.  0.
         23    2    4    4    0    0  0.39122117396E+03 -0.37441207086E+03  0.74114270836E+03  0.92231088066E+03  0.90146772866E+02 0.  0.
          4    1    3    3  502    0 -0.34199284312E+02  0.88020862511E+02  0.19050725348E+02  0.96333760546E+02  0.00000000000E+00 0. -1.
         -3    1    3    3    0  502 -0.92214499014E+02  0.39575076267E+02  0.71365469054E+01  0.10060134587E+03  0.00000000000E+00 0.  1.
         13    1    5    5    0    0 -0.26649264573E+03  0.25244982743E+03  0.27295456158E+03  0.45744227864E+03  0.00000000000E+00 0. -1.
        -13    1    5    5    0    0  0.16852550959E+01 -0.56336953465E+01  0.31241082590E+01  0.66587281375E+01  0.00000000000E+00 0.  1.
          1    1    6    6  503    0  0.31482498265E+03 -0.25156543653E+03  0.51639164371E+03  0.65502692178E+03  0.00000000000E+00 0. -1.
         -1    1    6    6    0  503  0.76396191312E+02 -0.12284663434E+03  0.22475106464E+03  0.26728395888E+03  0.00000000000E+00 0.  1.
<mgrwt>
<rscale>  0 0.11909182E+04</rscale>
<asrwt>0</asrwt>
<pdfrwt beam="1">  1        2 0.41533720E-01 0.11909182E+04</pdfrwt>
<pdfrwt beam="2">  1       -1 0.20205812E+00 0.11909182E+04</pdfrwt>
<totfact> 0.20369610E+01</totfact>
</mgrwt>
</event>
<event>
12    7  0.1729738E-007  0.1268547E+04  0.7818608E-02  0.9054886E-01
          4   -1    0    0  501    0  0.00000000000E+00  0.00000000000E+00  0.26740209799E+03  0.26740209799E+03  0.00000000000E+00 0. -1.
         -3   -1    0    0    0  501 -0.00000000000E+00 -0.00000000000E+00 -0.15044871456E+04  0.15044871456E+04  0.00000000000E+00 0.  1.
         24    2    1    2    0    0 -0.10388547952E+03  0.36739784147E+02 -0.72401524128E+03  0.73668820638E+03  0.79808766570E+02 0.  0.
        254    2    1    2    0    0  0.10388547952E+03 -0.36739784147E+02 -0.51306980630E+03  0.10352010372E+04  0.89233320943E+03 0.  0.
         23    2    4    4    0    0  0.44813756742E+03 -0.18637778177E+03 -0.39090942280E+03  0.62991355565E+03  0.91743958264E+02 0.  0.
         23    2    4    4    0    0 -0.34425208790E+03  0.14963799762E+03 -0.12216038349E+03  0.40528748153E+03  0.91835467192E+02 0.  0.
          2    1    3    3  502    0 -0.91330026743E+02 -0.51819155559E+01 -0.52597795815E+03  0.53387342928E+03  0.00000000000E+00 0. -1.
         -1    1    3    3    0  502 -0.12555452778E+02  0.41921699703E+02 -0.19803728313E+03  0.20281477710E+03  0.00000000000E+00 0.  1.
         13    1    5    5    0    0  0.43672050622E+02  0.43516849961E+01 -0.17205868713E+02  0.47140503667E+02  0.00000000000E+00 0.  1.
        -13    1    5    5    0    0  0.40446551680E+03 -0.19072946676E+03 -0.37370355409E+03  0.58277305198E+03  0.00000000000E+00 0. -1.
          3    1    6    6  503    0 -0.33691093008E+03  0.16041501101E+03 -0.12059292623E+03  0.39215380200E+03  0.00000000000E+00 0. -1.
         -3    1    6    6    0  503 -0.73411578263E+01 -0.10777013392E+02 -0.15674572627E+01  0.13133679536E+02  0.00000000000E+00 0.  1.
<mgrwt>
<rscale>  0 0.12685472E+04</rscale>
<asrwt>0</asrwt>
<pdfrwt beam="1">  1        4 0.41138783E-01 0.12685472E+04</pdfrwt>
<pdfrwt beam="2">  1       -3 0.23145957E+00 0.12685472E+04</pdfrwt>
<totfact> 0.12210059E+00</totfact>
</mgrwt>
</event>
<event>
12    7  0.1729738E-007  0.1842257E+04  0.7818608E-02  0.8684145E-01
         -1   -1    0    0    0  501 -0.00000000000E+00  0.00000000000E+00  0.37476022196E+03  0.37476022196E+03  0.00000000000E+00 0.  1.
          2   -1    0    0  501    0  0.00000000000E+00 -0.00000000000E+00 -0.22640537027E+04  0.22640537027E+04  0.00000000000E+00 0. -1.
         24    2    1    2    0    0 -0.45808225218E+03 -0.26777697207E+03 -0.13531927690E+04  0.14556158635E+04  0.78377392271E+02 0.  0.
        254    2    1    2    0    0  0.45808225218E+03  0.26777697207E+03 -0.53610071177E+03  0.11831980611E+04  0.91159740136E+03 0.  0.
         23    2    4    4    0    0 -0.21265001628E+03  0.69973349404E+02  0.71602393249E+02  0.25220180236E+03  0.91446964633E+02 0.  0.
         23    2    4    4    0    0  0.67073226847E+03  0.19780362266E+03 -0.60770310502E+03  0.93099625878E+03  0.91885368268E+02 0.  0.
          2    1    3    3  502    0 -0.17314235586E+03 -0.82627442802E+02 -0.58405694076E+03  0.61475855402E+03  0.00000000000E+00 0. -1.
         -1    1    3    3    0  502 -0.28493989633E+03 -0.18514952927E+03 -0.76913582820E+03  0.84085730950E+03  0.00000000000E+00 0.  1.
         13    1    5    5    0    0 -0.19726908699E+03  0.41701289484E+02  0.83020128122E+02  0.21805144324E+03  0.00000000000E+00 0.  1.
        -13    1    5    5    0    0 -0.15380929294E+02  0.28272059919E+02 -0.11417734873E+02  0.34150359114E+02  0.00000000000E+00 0. -1.
          1    1    6    6  503    0  0.21419965467E+03  0.55968777190E+02 -0.13845089270E+03  0.26111806864E+03  0.00000000000E+00 0. -1.
         -1    1    6    6    0  503  0.45653261380E+03  0.14183484547E+03 -0.46925221233E+03  0.66987819014E+03  0.00000000000E+00 0.  1.
<mgrwt>
<rscale>  0 0.18422565E+04</rscale>
<asrwt>0</asrwt>
<pdfrwt beam="1">  1        2 0.34831596E+00 0.18422565E+04</pdfrwt>
<pdfrwt beam="2">  1       -1 0.57655417E-01 0.18422565E+04</pdfrwt>
<totfact> 0.15515690E+01</totfact>
</mgrwt>
</event>
<event>
12    7  0.1729738E-007  0.2028478E+04  0.7818608E-02  0.8593421E-01
          2   -1    0    0  501    0  0.00000000000E+00  0.00000000000E+00  0.31951706705E+04  0.31951706705E+04  0.00000000000E+00 0. -1.
         -1   -1    0    0    0  501 -0.00000000000E+00 -0.00000000000E+00 -0.32194871651E+03  0.32194871651E+03  0.00000000000E+00 0.  1.
         24    2    1    2    0    0 -0.44844783162E+03  0.38665452474E+03  0.19947448217E+03  0.62976253275E+03  0.78762931851E+02 0.  0.
        254    2    1    2    0    0  0.44844783162E+03 -0.38665452474E+03  0.26737474718E+04  0.28873568542E+04  0.91503927873E+03 0.  0.
         23    2    4    4    0    0 -0.10272037487E+03 -0.41039436622E+03  0.59916255353E+03  0.73863507876E+03  0.87241061408E+02 0.  0.
         23    2    4    4    0    0  0.55116820648E+03  0.23739841474E+02  0.20745849183E+04  0.21487217755E+04  0.93555937240E+02 0.  0.
          4    1    3    3  502    0 -0.81255061091E+01  0.25559001552E+02  0.14330148615E+01  0.26857772459E+02  0.00000000000E+00 0. -1.
         -3    1    3    3    0  502 -0.44032232551E+03  0.36109552319E+03  0.19804146731E+03  0.60290476029E+03  0.00000000000E+00 0.  1.
         13    1    5    5    0    0  0.34112774794E+01 -0.59058336088E+02  0.13117405019E+03  0.14389633532E+03  0.00000000000E+00 0. -1.
        -13    1    5    5    0    0 -0.10613165235E+03 -0.35133603013E+03  0.46798850334E+03  0.59473874344E+03  0.00000000000E+00 0.  1.
          4    1    6    6  503    0  0.15927386453E+03 -0.29920190976E+02  0.68729240965E+03  0.70614038131E+03  0.00000000000E+00 0. -1.
         -4    1    6    6    0  503  0.39189434195E+03  0.53660032450E+02  0.13872925086E+04  0.14425813942E+04  0.00000000000E+00 0.  1.
<mgrwt>
<rscale>  0 0.20284783E+04</rscale>
<asrwt>0</asrwt>
<pdfrwt beam="1">  1        2 0.49156470E+00 0.20284783E+04</pdfrwt>
<pdfrwt beam="2">  1       -1 0.49530574E-01 0.20284783E+04</pdfrwt>
<totfact> 0.56498950E+00</totfact>
</mgrwt>
</event>
<event>
12    7  0.1729738E-007  0.1879604E+04  0.7818608E-02  0.8665076E-01
          2   -1    0    0  501    0  0.00000000000E+00  0.00000000000E+00  0.38473831564E+03  0.38473831564E+03  0.00000000000E+00 0. -1.
         -1   -1    0    0    0  501 -0.00000000000E+00 -0.00000000000E+00 -0.22956575747E+04  0.22956575747E+04  0.00000000000E+00 0.  1.
         24    2    1    2    0    0 -0.42962622980E+03  0.93710497619E+02 -0.15516702175E+04  0.16148053482E+04  0.80966006229E+02 0.  0.
        254    2    1    2    0    0  0.42962622980E+03 -0.93710497619E+02 -0.35924904160E+03  0.10655905421E+04  0.90170004707E+03 0.  0.
         23    2    4    4    0    0  0.29858652685E+02  0.16752426088E+03  0.23084189966E+03  0.30126538667E+03  0.92287233372E+02 0.  0.
         23    2    4    4    0    0  0.39976757711E+03 -0.26123475850E+03 -0.59009094125E+03  0.76432515546E+03  0.89038809306E+02 0.  0.
          4    1    3    3  502    0 -0.44138077135E+02 -0.14907871224E+02 -0.15576055611E+03  0.16257848972E+03  0.00000000000E+00 0. -1.
         -3    1    3    3    0  502 -0.38548815266E+03  0.10861836884E+03 -0.13959096614E+04  0.14522268585E+04  0.00000000000E+00 0.  1.
         13    1    5    5    0    0  0.12150870278E+02  0.14618970870E+03  0.12779091566E+03  0.19454971782E+03  0.00000000000E+00 0.  1.
        -13    1    5    5    0    0  0.17707782408E+02  0.21334552175E+02  0.10305098400E+03  0.10671566885E+03  0.00000000000E+00 0. -1.
          1    1    6    6  503    0  0.27433542987E+03 -0.22559394723E+03 -0.42163463782E+03  0.55129694804E+03  0.00000000000E+00 0.  1.
         -1    1    6    6    0  503  0.12543214725E+03 -0.35640811263E+02 -0.16845630344E+03  0.21302820742E+03  0.00000000000E+00 0. -1.
<mgrwt>
<rscale>  0 0.18796036E+04</rscale>
<asrwt>0</asrwt>
<pdfrwt beam="1">  1        2 0.59190509E-01 0.18796036E+04</pdfrwt>
<pdfrwt beam="2">  1       -1 0.35317809E+00 0.18796036E+04</pdfrwt>
<totfact> 0.13217631E+00</totfact>
</mgrwt>
</event>
<event>
12    7  0.1729738E-007  0.2515908E+04  0.7818608E-02  0.8397340E-01
         -1   -1    0    0    0  501 -0.00000000000E+00  0.00000000000E+00  0.16079259900E+04  0.16079259900E+04  0.00000000000E+00 0.  1.
          2   -1    0    0  501    0  0.00000000000E+00 -0.00000000000E+00 -0.98415486743E+03  0.98415486743E+03  0.00000000000E+00 0. -1.
         24    2    1    2    0    0  0.11205414773E+03  0.29138306757E+03 -0.80794352495E+03  0.86991921089E+03  0.80786569943E+02 0.  0.
        254    2    1    2    0    0 -0.11205414773E+03 -0.29138306757E+03  0.14317146475E+04  0.17221616465E+04  0.90475061802E+03 0.  0.
         23    2    4    4    0    0  0.20409531325E+03  0.12777150086E+03  0.80269144617E+02  0.26942855079E+03  0.90377846195E+02 0.  0.
         23    2    4    4    0    0 -0.31614946098E+03 -0.41915456843E+03  0.13514455028E+04  0.14527330957E+04  0.91583111280E+02 0.  0.
          2    1    3    3  502    0  0.85614364335E+02  0.27789268276E+03 -0.75745046562E+03  0.81134787260E+03  0.00000000000E+00 0. -1.
         -1    1    3    3    0  502  0.26439783398E+02  0.13490384806E+02 -0.50493059329E+02  0.58571338287E+02  0.00000000000E+00 0.  1.
         13    1    5    5    0    0 -0.47650409133E+01  0.13585101135E+02 -0.68600373974E+01  0.15947435557E+02  0.00000000000E+00 0.  1.
        -13    1    5    5    0    0  0.20886035416E+03  0.11418639972E+03  0.87129182015E+02  0.25348111524E+03  0.00000000000E+00 0. -1.
          2    1    6    6  503    0 -0.89055309182E+02 -0.17611177898E+03  0.57918782417E+03  0.61188621692E+03  0.00000000000E+00 0.  1.
         -2    1    6    6    0  503 -0.22709415180E+03 -0.24304278944E+03  0.77225767868E+03  0.84084687878E+03  0.00000000000E+00 0. -1.
<mgrwt>
<rscale>  0 0.25159079E+04</rscale>
<asrwt>0</asrwt>
<pdfrwt beam="1">  1        2 0.15140844E+00 0.25159079E+04</pdfrwt>
<pdfrwt beam="2">  1       -1 0.24737323E+00 0.25159079E+04</pdfrwt>
<totfact> 0.18995201E+00</totfact>
</mgrwt>
</event>
<event>
12    7  0.1729738E-007  0.1841430E+04  0.7818608E-02  0.8684573E-01
          2   -1    0    0  501    0  0.00000000000E+00  0.00000000000E+00  0.13083564333E+04  0.13083564333E+04  0.00000000000E+00 0. -1.
         -1   -1    0    0    0  501 -0.00000000000E+00 -0.00000000000E+00 -0.64792438367E+03  0.64792438367E+03  0.00000000000E+00 0.  1.
         24    2    1    2    0    0  0.53029055813E+01  0.13191783623E+03  0.98568120805E+03  0.99761229587E+03  0.78945630987E+02 0.  0.
        254    2    1    2    0    0 -0.53029055813E+01 -0.13191783623E+03 -0.32524915845E+03  0.95866852107E+03  0.89209185732E+03 0.  0.
         23    2    4    4    0    0 -0.16608411752E+03  0.33170976076E+03 -0.41053709187E+02  0.38429429931E+03  0.91549997080E+02 0.  0.
         23    2    4    4    0    0  0.16078121194E+03 -0.46362759699E+03 -0.28419544926E+03  0.57437422176E+03  0.91310166150E+02 0.  0.
          2    1    3    3  502    0  0.34032692655E+02  0.10960284559E+03  0.81942706690E+03  0.82742475543E+03  0.00000000000E+00 0. -1.
         -1    1    3    3    0  502 -0.28729787074E+02  0.22314990636E+02  0.16625414115E+03  0.17018754045E+03  0.00000000000E+00 0.  1.
         13    1    5    5    0    0 -0.11535045968E+03  0.30157604165E+03 -0.39230196196E+02  0.32525812172E+03  0.00000000000E+00 0. -1.
        -13    1    5    5    0    0 -0.50733657840E+02  0.30133719106E+02 -0.18235129912E+01  0.59036177592E+02  0.00000000000E+00 0.  1.
          2    1    6    6  503    0  0.29493825104E+02 -0.18140217335E+03 -0.14155751488E+03  0.23198095662E+03  0.00000000000E+00 0.  1.
         -2    1    6    6    0  503  0.13128738684E+03 -0.28222542364E+03 -0.14263793438E+03  0.34239326515E+03  0.00000000000E+00 0. -1.
<mgrwt>
<rscale>  0 0.18414299E+04</rscale>
<asrwt>0</asrwt>
<pdfrwt beam="1">  1        2 0.20128560E+00 0.18414299E+04</pdfrwt>
<pdfrwt beam="2">  1       -1 0.99680675E-01 0.18414299E+04</pdfrwt>
<totfact> 0.16835999E+01</totfact>
</mgrwt>
</event>
<event>
12    7  0.1729738E-007  0.1860380E+04  0.7818608E-02  0.8674833E-01
         -1   -1    0    0    0  501 -0.00000000000E+00  0.00000000000E+00  0.33455134350E+03  0.33455134350E+03  0.00000000000E+00 0.  1.
          2   -1    0    0  501    0  0.00000000000E+00 -0.00000000000E+00 -0.25863095855E+04  0.25863095855E+04  0.00000000000E+00 0. -1.
         24    2    1    2    0    0  0.50500359672E+03 -0.76354221979E+02 -0.91892569895E+02  0.52494327356E+03  0.79136566383E+02 0.  0.
        254    2    1    2    0    0 -0.50500359672E+03  0.76354221979E+02 -0.21598656722E+04  0.23959176555E+04  0.90252040987E+03 0.  0.
         23    2    4    4    0    0  0.21381125442E+03 -0.10167050364E+03 -0.86632392049E+03  0.90261724297E+03  0.90269642026E+02 0.  0.
         23    2    4    4    0    0 -0.71881485113E+03  0.17802472562E+03 -0.12935417517E+04  0.14933004125E+04  0.91149687854E+02 0.  0.
          4    1    3    3  502    0  0.40024891746E+03 -0.45920679802E+02 -0.10141340632E+03  0.41544263592E+03  0.00000000000E+00 0. -1.
         -3    1    3    3    0  502  0.10475467926E+03 -0.30433542177E+02  0.95208364268E+01  0.10950063764E+03  0.00000000000E+00 0.  1.
         13    1    5    5    0    0  0.18966500388E+03 -0.11025433073E+03 -0.82758416718E+03  0.85616843256E+03  0.00000000000E+00 0. -1.
        -13    1    5    5    0    0  0.24146250532E+02  0.85838270908E+01 -0.38739753310E+02  0.46448810413E+02  0.00000000000E+00 0.  1.
          4    1    6    6  503    0 -0.58595161758E+03  0.13959783299E+03 -0.97547087380E+03  0.11464598897E+04  0.00000000000E+00 0. -1.
         -4    1    6    6    0  503 -0.13286323355E+03  0.38426892629E+02 -0.31807087786E+03  0.34684052279E+03  0.00000000000E+00 0.  1.
<mgrwt>
<rscale>  0 0.18603799E+04</rscale>
<asrwt>0</asrwt>
<pdfrwt beam="1">  1        2 0.39789378E+00 0.18603799E+04</pdfrwt>
<pdfrwt beam="2">  1       -1 0.51469437E-01 0.18603799E+04</pdfrwt>
<totfact> 0.12608772E+01</totfact>
</mgrwt>
</event>
<event>
12    7  0.1729738E-007  0.2532554E+04  0.7818608E-02  0.8391479E-01
         -1   -1    0    0    0  501 -0.00000000000E+00  0.00000000000E+00  0.32153056595E+03  0.32153056595E+03  0.00000000000E+00 0.  1.
          2   -1    0    0  501    0  0.00000000000E+00 -0.00000000000E+00 -0.49869512429E+04  0.49869512429E+04  0.00000000000E+00 0. -1.
         24    2    1    2    0    0  0.91413969751E+03  0.98248355041E+02 -0.33218109218E+04  0.34476140204E+04  0.79438706389E+02 0.  0.
        254    2    1    2    0    0 -0.91413969751E+03 -0.98248355041E+02 -0.13436097551E+04  0.18608677884E+04  0.90124226815E+03 0.  0.
         23    2    4    4    0    0 -0.16644858792E+02 -0.14065909264E+03 -0.77599292902E+03  0.79430110783E+03  0.93205109010E+02 0.  0.
         23    2    4    4    0    0 -0.89749483872E+03  0.42410737597E+02 -0.56761682612E+03  0.10665666805E+04  0.89888634308E+02 0.  0.
          4    1    3    3  502    0  0.67530747908E+03  0.61004092443E+02 -0.23201623169E+04  0.24172122099E+04  0.00000000000E+00 0. -1.
         -3    1    3    3    0  502  0.23883221843E+03  0.37244262598E+02 -0.10016486048E+04  0.10304018106E+04  0.00000000000E+00 0.  1.
         13    1    5    5    0    0 -0.45239442166E+02 -0.37444839638E+02 -0.20034874384E+03  0.20877821318E+03  0.00000000000E+00 0. -1.
        -13    1    5    5    0    0  0.28594583374E+02 -0.10321425300E+03 -0.57564418518E+03  0.58552289465E+03  0.00000000000E+00 0.  1.
          1    1    6    6  503    0 -0.37268841057E+03  0.27984367908E+02 -0.18560337795E+03  0.41728693980E+03  0.00000000000E+00 0. -1.
         -1    1    6    6    0  503 -0.52480642814E+03  0.14426369689E+02 -0.38201344817E+03  0.64927974075E+03  0.00000000000E+00 0.  1.
<mgrwt>
<rscale>  0 0.25325539E+04</rscale>
<asrwt>0</asrwt>
<pdfrwt beam="1">  1        2 0.76722329E+00 0.25325539E+04</pdfrwt>
<pdfrwt beam="2">  1       -1 0.49466240E-01 0.25325539E+04</pdfrwt>
<totfact> 0.14908823E-01</totfact>
</mgrwt>
</event>
<event>
12    7  0.1729738E-007  0.3103874E+04  0.7818608E-02  0.8214676E-01
          2   -1    0    0  501    0  0.00000000000E+00  0.00000000000E+00  0.33442510934E+04  0.33442510934E+04  0.00000000000E+00 0. -1.
         -1   -1    0    0    0  501 -0.00000000000E+00 -0.00000000000E+00 -0.72019370919E+03  0.72019370919E+03  0.00000000000E+00 0.  1.
         24    2    1    2    0    0 -0.89517012332E+03 -0.10849853648E+04  0.14438266840E+04  0.20173461567E+04  0.80791279814E+02 0.  0.
        254    2    1    2    0    0  0.89517012332E+03  0.10849853648E+04  0.11802307002E+04  0.20470986460E+04  0.90506661033E+03 0.  0.
         23    2    4    4    0    0  0.68934735919E+03  0.27192942614E+03  0.24046790430E+03  0.78430094394E+03  0.90320336815E+02 0.  0.
         23    2    4    4    0    0  0.20582276413E+03  0.81305593861E+03  0.93976279591E+03  0.12627977020E+04  0.89894127143E+02 0.  0.
          2    1    3    3  502    0 -0.29513710311E+02 -0.27959320325E+02  0.61874250992E+02  0.74035164788E+02  0.00000000000E+00 0. -1.
         -1    1    3    3    0  502 -0.86565641301E+03 -0.10570260444E+04  0.13819524330E+04  0.19433109919E+04  0.00000000000E+00 0.  1.
         13    1    5    5    0    0  0.31005996383E+03  0.11864076060E+03  0.15496061976E+03  0.36636812760E+03  0.00000000000E+00 0. -1.
        -13    1    5    5    0    0  0.37928739537E+03  0.15328866554E+03  0.85507284540E+02  0.41793281634E+03  0.00000000000E+00 0.  1.
          2    1    6    6  503    0  0.85017854478E+02  0.51289571761E+03  0.57227518314E+03  0.77316811753E+03  0.00000000000E+00 0.  1.
         -2    1    6    6    0  503  0.12080490965E+03  0.30016022100E+03  0.36748761277E+03  0.48962958449E+03  0.00000000000E+00 0. -1.
<mgrwt>
<rscale>  0 0.31038741E+04</rscale>
<asrwt>0</asrwt>
<pdfrwt beam="1">  1        2 0.51450016E+00 0.31038741E+04</pdfrwt>
<pdfrwt beam="2">  1       -1 0.11079903E+00 0.31038741E+04</pdfrwt>
<totfact> 0.75159112E-01</totfact>
</mgrwt>
</event>
<event>
12    7  0.1729738E-007  0.2212284E+04  0.7818608E-02  0.8513333E-01
         -1   -1    0    0    0  501 -0.00000000000E+00  0.00000000000E+00  0.90139927611E+03  0.90139927611E+03  0.00000000000E+00 0.  1.
          2   -1    0    0  501    0  0.00000000000E+00 -0.00000000000E+00 -0.13573895147E+04  0.13573895147E+04  0.00000000000E+00 0. -1.
         24    2    1    2    0    0 -0.18156099409E+02  0.26110465962E+03  0.70379014575E+03  0.75511245547E+03  0.79805788820E+02 0.  0.
        254    2    1    2    0    0  0.18156099409E+02 -0.26110465962E+03 -0.11597803843E+04  0.15036763353E+04  0.92056867987E+03 0.  0.
         23    2    4    4    0    0 -0.15564910642E+03  0.20589917097E+03 -0.88797647145E+03  0.92887325399E+03  0.87648132844E+02 0.  0.
         23    2    4    4    0    0  0.17380520583E+03 -0.46700383059E+03 -0.27180391286E+03  0.57480308133E+03  0.90666354855E+02 0.  0.
          4    1    3    3  502    0 -0.19286076963E+02  0.26988428180E+02  0.15431257749E+03  0.15783757345E+03  0.00000000000E+00 0. -1.
         -3    1    3    3    0  502  0.11299775535E+01  0.23411623144E+03  0.54947756825E+03  0.59727488201E+03  0.00000000000E+00 0.  1.
         13    1    5    5    0    0 -0.15401856201E+03  0.17194436868E+03 -0.83157035457E+03  0.86301554908E+03  0.00000000000E+00 0.  1.
        -13    1    5    5    0    0 -0.16305444108E+01  0.33954802291E+02 -0.56406116885E+02  0.65857704908E+02  0.00000000000E+00 0. -1.
          3    1    6    6  503    0  0.64241387626E+02 -0.97634163533E+02 -0.96296177500E+02  0.15143427477E+03  0.00000000000E+00 0. -1.
         -3    1    6    6    0  503  0.10956381821E+03 -0.36936966706E+03 -0.17550773536E+03  0.42336880657E+03  0.00000000000E+00 0.  1.
<mgrwt>
<rscale>  0 0.22122838E+04</rscale>
<asrwt>0</asrwt>
<pdfrwt beam="1">  1        2 0.20882915E+00 0.22122838E+04</pdfrwt>
<pdfrwt beam="2">  1       -1 0.13867681E+00 0.22122838E+04</pdfrwt>
<totfact> 0.68462095E+00</totfact>
</mgrwt>
</event>
<event>
12    7  0.1729738E-007  0.2474114E+04  0.7818608E-02  0.8412266E-01
          2   -1    0    0  501    0  0.00000000000E+00  0.00000000000E+00  0.17546478018E+04  0.17546478018E+04  0.00000000000E+00 0. -1.
         -1   -1    0    0    0  501 -0.00000000000E+00 -0.00000000000E+00 -0.87214646844E+03  0.87214646844E+03  0.00000000000E+00 0.  1.
         24    2    1    2    0    0 -0.92544255298E+03  0.47023331671E+03  0.89883403620E+02  0.10449708183E+04  0.79509080122E+02 0.  0.
        254    2    1    2    0    0  0.92544255298E+03 -0.47023331671E+03  0.79261792969E+03  0.15818234519E+04  0.89238946626E+03 0.  0.
         23    2    4    4    0    0  0.80108200183E+03 -0.40867176839E+03  0.14706722804E+03  0.91558885611E+03  0.89046032726E+02 0.  0.
         23    2    4    4    0    0  0.12436055115E+03 -0.61561548326E+02  0.64555070165E+03  0.66623459579E+03  0.88755041041E+02 0.  0.
          4    1    3    3  502    0 -0.74859736722E+03  0.36524291879E+03  0.43141916196E+02  0.83406332666E+03  0.00000000000E+00 0. -1.
         -3    1    3    3    0  502 -0.17684518576E+03  0.10499039793E+03  0.46741487423E+02  0.21090749164E+03  0.00000000000E+00 0.  1.
         13    1    5    5    0    0  0.63747251921E+03 -0.34350221740E+03  0.14977181448E+03  0.73945695110E+03  0.00000000000E+00 0.  1.
        -13    1    5    5    0    0  0.16360948261E+03 -0.65169550982E+02 -0.27045864331E+01  0.17613190502E+03  0.00000000000E+00 0. -1.
          3    1    6    6  503    0  0.91560758042E+02 -0.84434581967E+02  0.47480446068E+03  0.49086846194E+03  0.00000000000E+00 0. -1.
         -3    1    6    6    0  503  0.32799793112E+02  0.22873033641E+02  0.17074624097E+03  0.17536613385E+03  0.00000000000E+00 0.  1.
<mgrwt>
<rscale>  0 0.24741139E+04</rscale>
<asrwt>0</asrwt>
<pdfrwt beam="1">  1        2 0.26994581E+00 0.24741139E+04</pdfrwt>
<pdfrwt beam="2">  1       -1 0.13417638E+00 0.24741139E+04</pdfrwt>
<totfact> 0.43536104E+00</totfact>
</mgrwt>
</event>
<event>
12    7  0.1729738E-007  0.1223543E+04  0.7818608E-02  0.9092495E-01
          2   -1    0    0  501    0  0.00000000000E+00  0.00000000000E+00  0.23925744682E+04  0.23925744682E+04  0.00000000000E+00 0. -1.
         -1   -1    0    0    0  501 -0.00000000000E+00 -0.00000000000E+00 -0.15642755772E+03  0.15642755772E+03  0.00000000000E+00 0.  1.
         24    2    1    2    0    0 -0.20870314693E+03  0.65553493618E+02  0.91832957597E+03  0.94737955639E+03  0.79652681686E+02 0.  0.
        254    2    1    2    0    0  0.20870314693E+03 -0.65553493618E+02  0.13178173345E+04  0.16016224695E+04  0.88357101790E+03 0.  0.
         23    2    4    4    0    0  0.15233631882E+03  0.38975903062E+03  0.48530773556E+03  0.64691787202E+03  0.88660470109E+02 0.  0.
         23    2    4    4    0    0  0.56366828109E+02 -0.45531252424E+03  0.83250959890E+03  0.95470459746E+03  0.88892756274E+02 0.  0.
          2    1    3    3  502    0 -0.16490221015E+03  0.78103611083E+02  0.80086573868E+03  0.82138836391E+03  0.00000000000E+00 0. -1.
         -1    1    3    3    0  502 -0.43800936783E+02 -0.12550117465E+02  0.11746383728E+03  0.12599119247E+03  0.00000000000E+00 0.  1.
         13    1    5    5    0    0  0.34664688760E+01  0.60047168822E+02  0.36091657887E+02  0.70144755036E+02  0.00000000000E+00 0.  1.
        -13    1    5    5    0    0  0.14886984994E+03  0.32971186180E+03  0.44921607768E+03  0.57677311698E+03  0.00000000000E+00 0. -1.
          2    1    6    6  503    0  0.55999463072E+02 -0.30553559136E+03  0.48057163964E+03  0.57222114456E+03  0.00000000000E+00 0. -1.
         -2    1    6    6    0  503  0.36736503681E+00 -0.14977693288E+03  0.35193795926E+03  0.38248345291E+03  0.00000000000E+00 0.  1.
<mgrwt>
<rscale>  0 0.12235433E+04</rscale>
<asrwt>0</asrwt>
<pdfrwt beam="1">  1        2 0.36808835E+00 0.12235433E+04</pdfrwt>
<pdfrwt beam="2">  1       -1 0.24065780E-01 0.12235433E+04</pdfrwt>
<totfact> 0.67679496E+01</totfact>
</mgrwt>
</event>
<event>
12    7  0.1729738E-007  0.3393855E+04  0.7818608E-02  0.8139416E-01
         -1   -1    0    0    0  501 -0.00000000000E+00  0.00000000000E+00  0.97327657470E+03  0.97327657470E+03  0.00000000000E+00 0.  1.
          2   -1    0    0  501    0  0.00000000000E+00 -0.00000000000E+00 -0.29586269926E+04  0.29586269926E+04  0.00000000000E+00 0. -1.
         24    2    1    2    0    0 -0.62209388199E+03  0.12668236799E+03 -0.26226143639E+04  0.26995011709E+04  0.78429900502E+02 0.  0.
        254    2    1    2    0    0  0.62209388199E+03 -0.12668236799E+03  0.63726394607E+03  0.12324023964E+04  0.84241385870E+03 0.  0.
         23    2    4    4    0    0 -0.19540797564E+03 -0.73325807803E+02  0.17768360932E+03  0.28900464622E+03  0.91603872627E+02 0.  0.
         23    2    4    4    0    0  0.81750185763E+03 -0.53356560183E+02  0.45958033674E+03  0.94339775018E+03  0.87344257891E+02 0.  0.
          4    1    3    3  502    0 -0.44707441091E+03  0.11742987457E+03 -0.19971816182E+04  0.20499755414E+04  0.00000000000E+00 0. -1.
         -1    1    3    3    0  502 -0.17501947107E+03  0.92524934175E+01 -0.62543274574E+03  0.64952562947E+03  0.00000000000E+00 0.  1.
         13    1    5    5    0    0 -0.19195780681E+03 -0.46271983558E+02  0.13818928924E+03  0.24100866315E+03  0.00000000000E+00 0.  1.
        -13    1    5    5    0    0 -0.34501688358E+01 -0.27053824245E+02  0.39494320086E+02  0.47995983065E+02  0.00000000000E+00 0. -1.
          2    1    6    6  503    0  0.79093526510E+03 -0.66869524248E+02  0.44771476498E+03  0.91131697978E+03  0.00000000000E+00 0.  1.
         -2    1    6    6    0  503  0.26566592525E+02  0.13512964065E+02  0.11865571766E+02  0.32080770402E+02  0.00000000000E+00 0. -1.
<mgrwt>
<rscale>  0 0.33938546E+04</rscale>
<asrwt>0</asrwt>
<pdfrwt beam="1">  1        2 0.45517338E+00 0.33938546E+04</pdfrwt>
<pdfrwt beam="2">  1       -1 0.14973486E+00 0.33938546E+04</pdfrwt>
<totfact> 0.60944134E-01</totfact>
</mgrwt>
</event>
<event>
12    7  0.1729738E-007  0.1606118E+04  0.7818608E-02  0.8816798E-01
         -1   -1    0    0    0  501 -0.00000000000E+00  0.00000000000E+00  0.42116621334E+03  0.42116621334E+03  0.00000000000E+00 0.  1.
          2   -1    0    0  501    0  0.00000000000E+00 -0.00000000000E+00 -0.15312331626E+04  0.15312331626E+04  0.00000000000E+00 0. -1.
         24    2    1    2    0    0 -0.30967281850E+03 -0.39506105216E+03 -0.12273724272E+03  0.52359527198E+03  0.84362839220E+02 0.  0.
        254    2    1    2    0    0  0.30967281850E+03  0.39506105216E+03 -0.98732970652E+03  0.14288041039E+04  0.90260219842E+03 0.  0.
         23    2    4    4    0    0  0.47077770101E+03  0.57401082769E+03 -0.57811271916E+03  0.94486295488E+03  0.86206805859E+02 0.  0.
         23    2    4    4    0    0 -0.16110488251E+03 -0.17894977552E+03 -0.40921698736E+03  0.48394114906E+03  0.93609228592E+02 0.  0.
          4    1    3    3  502    0 -0.21224468077E+03 -0.31837989260E+03 -0.11419276260E+03  0.39931635023E+03  0.00000000000E+00 0. -1.
         -3    1    3    3    0  502 -0.97428137725E+02 -0.76681159561E+02 -0.85444801179E+01  0.12427892176E+03  0.00000000000E+00 0.  1.
         13    1    5    5    0    0  0.26457144937E+03  0.27295561974E+03 -0.25771318789E+03  0.45925908742E+03  0.00000000000E+00 0. -1.
        -13    1    5    5    0    0  0.20620625164E+03  0.30105520795E+03 -0.32039953127E+03  0.48560386745E+03  0.00000000000E+00 0.  1.
          3    1    6    6  503    0 -0.38568020680E+00 -0.42478687122E+02 -0.10984982576E+03  0.11777763721E+03  0.00000000000E+00 0. -1.
         -3    1    6    6    0  503 -0.16071920231E+03 -0.13647108840E+03 -0.29936716160E+03  0.36616351184E+03  0.00000000000E+00 0.  1.
<mgrwt>
<rscale>  0 0.16061179E+04</rscale>
<asrwt>0</asrwt>
<pdfrwt beam="1">  1        2 0.23557433E+00 0.16061179E+04</pdfrwt>
<pdfrwt beam="2">  1       -1 0.64794802E-01 0.16061179E+04</pdfrwt>
<totfact> 0.32148566E+01</totfact>
</mgrwt>
</event>
<event>
12    7  0.1729738E-007  0.1550075E+04  0.7818608E-02  0.8851820E-01
         -1   -1    0    0    0  501 -0.00000000000E+00  0.00000000000E+00  0.51212166229E+03  0.51212166229E+03  0.00000000000E+00 0.  1.
          2   -1    0    0  501    0  0.00000000000E+00 -0.00000000000E+00 -0.11729307679E+04  0.11729307679E+04  0.00000000000E+00 0. -1.
         24    2    1    2    0    0 -0.11851721669E+03  0.35619241693E+03  0.14551194945E+03  0.41041882501E+03  0.79690124576E+02 0.  0.
        254    2    1    2    0    0  0.11851721669E+03 -0.35619241693E+03 -0.80632105501E+03  0.12746336051E+04  0.91302673294E+03 0.  0.
         23    2    4    4    0    0  0.15955992149E+03 -0.63928103512E+03 -0.66081367086E+03  0.93872565372E+03  0.10193887843E+03 0.  0.
         23    2    4    4    0    0 -0.41042704798E+02  0.28308861819E+03 -0.14550738415E+03  0.33590795142E+03  0.99187114174E+02 0.  0.
          4    1    3    3  502    0 -0.85630663229E+02  0.20650453529E+03  0.12404827107E+03  0.25566522473E+03  0.00000000000E+00 0. -1.
         -3    1    3    3    0  502 -0.32886553458E+02  0.14968788164E+03  0.21463678382E+02  0.15475360028E+03  0.00000000000E+00 0.  1.
         13    1    5    5    0    0  0.46479227502E+02 -0.19047541278E+03 -0.13400853744E+03  0.23748576709E+03  0.00000000000E+00 0. -1.
        -13    1    5    5    0    0  0.11308069398E+03 -0.44880562234E+03 -0.52680513342E+03  0.70123988662E+03  0.00000000000E+00 0.  1.
          3    1    6    6  503    0 -0.86548957533E+01  0.16900541561E+03 -0.13569326784E+03  0.21691104320E+03  0.00000000000E+00 0.  1.
         -3    1    6    6    0  503 -0.32387809044E+02  0.11408320259E+03 -0.98141163084E+01  0.11899690822E+03  0.00000000000E+00 0. -1.
<mgrwt>
<rscale>  0 0.15500752E+04</rscale>
<asrwt>0</asrwt>
<pdfrwt beam="1">  1        2 0.18045089E+00 0.15500752E+04</pdfrwt>
<pdfrwt beam="2">  1       -1 0.78787948E-01 0.15500752E+04</pdfrwt>
<totfact> 0.34785309E+01</totfact>
</mgrwt>
</event>
<event>
12    7  0.1729738E-007  0.2769386E+04  0.7818608E-02  0.8312836E-01
          2   -1    0    0  501    0  0.00000000000E+00  0.00000000000E+00  0.29506369307E+04  0.29506369307E+04  0.00000000000E+00 0. -1.
         -1   -1    0    0    0  501 -0.00000000000E+00 -0.00000000000E+00 -0.64981699404E+03  0.64981699404E+03  0.00000000000E+00 0.  1.
         24    2    1    2    0    0  0.49823021626E+03 -0.47239656805E+03 -0.30730353769E+03  0.75663800015E+03  0.81692919447E+02 0.  0.
        254    2    1    2    0    0 -0.49823021626E+03  0.47239656805E+03  0.26081234743E+04  0.28438159246E+04  0.90199173474E+03 0.  0.
         23    2    4    4    0    0 -0.73288874029E+03  0.26388343188E+03  0.15603769819E+04  0.17462447780E+04  0.88510608544E+02 0.  0.
         23    2    4    4    0    0  0.23465852403E+03  0.20851313617E+03  0.10477464924E+04  0.10975711465E+04  0.91363879577E+02 0.  0.
          4    1    3    3  502    0  0.15139419669E+03 -0.11062334264E+03 -0.54209222394E+02  0.19518290529E+03  0.00000000000E+00 0. -1.
         -3    1    3    3    0  502  0.34683601957E+03 -0.36177322541E+03 -0.25309431530E+03  0.56145509485E+03  0.00000000000E+00 0.  1.
         13    1    5    5    0    0 -0.14033648299E+03  0.87211551348E+02  0.30663321483E+03  0.34831610871E+03  0.00000000000E+00 0. -1.
        -13    1    5    5    0    0 -0.59255225729E+03  0.17667188053E+03  0.12537437671E+04  0.13979286693E+04  0.00000000000E+00 0.  1.
          3    1    6    6  503    0 -0.50371165940E+01 -0.24443503963E+01  0.41540366205E+02  0.41915980448E+02  0.00000000000E+00 0. -1.
         -3    1    6    6    0  503  0.23969564062E+03  0.21095748657E+03  0.10062061262E+04  0.10556551661E+04  0.00000000000E+00 0.  1.
<mgrwt>
<rscale>  0 0.27693855E+04</rscale>
<asrwt>0</asrwt>
<pdfrwt beam="1">  1        2 0.45394414E+00 0.27693855E+04</pdfrwt>
<pdfrwt beam="2">  1       -1 0.99971847E-01 0.27693855E+04</pdfrwt>
<totfact> 0.17669991E+00</totfact>
</mgrwt>
</event>
<event>
12    7  0.1729738E-007  0.1912498E+04  0.7818608E-02  0.8648660E-01
          2   -1    0    0  501    0  0.00000000000E+00  0.00000000000E+00  0.13138301476E+04  0.13138301476E+04  0.00000000000E+00 0. -1.
         -1   -1    0    0    0  501 -0.00000000000E+00 -0.00000000000E+00 -0.69598953121E+03  0.69598953121E+03  0.00000000000E+00 0.  1.
         24    2    1    2    0    0  0.96743327338E+02  0.29847530651E+03  0.92728543193E+03  0.98218276462E+03  0.79861948848E+02 0.  0.
        254    2    1    2    0    0 -0.96743327338E+02 -0.29847530651E+03 -0.30944481556E+03  0.10276369142E+04  0.92835055530E+03 0.  0.
         23    2    4    4    0    0 -0.37454093587E+03  0.16458306507E+03 -0.51011471140E+02  0.42198809636E+03  0.90018249975E+02 0.  0.
         23    2    4    4    0    0  0.27779760853E+03 -0.46305837158E+03 -0.25843334442E+03  0.60564881782E+03  0.91804848552E+02 0.  0.
          4    1    3    3  502    0  0.46094088862E+02  0.23025338330E+03  0.74362004801E+03  0.77981540210E+03  0.00000000000E+00 0. -1.
         -3    1    3    3    0  502  0.50649238476E+02  0.68221923207E+02  0.18366538392E+03  0.20236736252E+03  0.00000000000E+00 0.  1.
         13    1    5    5    0    0 -0.30657296299E+03  0.11234125752E+03 -0.92684553728E+01  0.32663962411E+03  0.00000000000E+00 0.  1.
        -13    1    5    5    0    0 -0.67967972885E+02  0.52241807549E+02 -0.41743015767E+02  0.95348472245E+02  0.00000000000E+00 0. -1.
          2    1    6    6  503    0  0.12356345352E+03 -0.12595930752E+03 -0.96560491923E+02  0.20114075370E+03  0.00000000000E+00 0. -1.
         -2    1    6    6    0  503  0.15423415501E+03 -0.33709906406E+03 -0.16187285250E+03  0.40450806412E+03  0.00000000000E+00 0.  1.
<mgrwt>
<rscale>  0 0.19124979E+04</rscale>
<asrwt>0</asrwt>
<pdfrwt beam="1">  1        2 0.20212771E+00 0.19124979E+04</pdfrwt>
<pdfrwt beam="2">  1       -1 0.10707531E+00 0.19124979E+04</pdfrwt>
<totfact> 0.14075517E+01</totfact>
</mgrwt>
</event>
<event>
12    7  0.1729738E-007  0.2054649E+04  0.7818608E-02  0.8581488E-01
         -1   -1    0    0    0  501 -0.00000000000E+00  0.00000000000E+00  0.12876495595E+04  0.12876495595E+04  0.00000000000E+00 0.  1.
          2   -1    0    0  501    0  0.00000000000E+00 -0.00000000000E+00 -0.81962952646E+03  0.81962952646E+03  0.00000000000E+00 0. -1.
         24    2    1    2    0    0  0.65961669753E+03  0.30053558701E+03  0.58033554736E+03  0.93199784981E+03  0.80092557764E+02 0.  0.
        254    2    1    2    0    0 -0.65961669753E+03 -0.30053558701E+03 -0.11231551430E+03  0.11752812362E+04  0.91828937848E+03 0.  0.
         23    2    4    4    0    0 -0.46948311893E+03 -0.62218706592E+03 -0.86797392197E+02  0.78943125448E+03  0.90204070315E+02 0.  0.
         23    2    4    4    0    0 -0.19013357859E+03  0.32165147891E+03 -0.25518122101E+02  0.38584998169E+03  0.92836319510E+02 0.  0.
          4    1    3    3  502    0  0.10268825007E+03  0.16379697826E+02  0.86590867083E+02  0.13531869592E+03  0.00000000000E+00 0. -1.
         -3    1    3    3    0  502  0.55692844746E+03  0.28415588918E+03  0.49374468027E+03  0.79667915389E+03  0.00000000000E+00 0.  1.
         13    1    5    5    0    0 -0.38683858287E+03 -0.50988710646E+03 -0.36001340101E+02  0.64103435712E+03  0.00000000000E+00 0. -1.
        -13    1    5    5    0    0 -0.82644536066E+02 -0.11229995946E+03 -0.50796052096E+02  0.14839689736E+03  0.00000000000E+00 0.  1.
          1    1    6    6  503    0 -0.75762135544E+02  0.20012910905E+03 -0.42297247887E+02  0.21812982064E+03  0.00000000000E+00 0. -1.
         -1    1    6    6    0  503 -0.11437144305E+03  0.12152236985E+03  0.16779125786E+02  0.16772016105E+03  0.00000000000E+00 0.  1.
<mgrwt>
<rscale>  0 0.20546490E+04</rscale>
<asrwt>0</asrwt>
<pdfrwt beam="1">  1        2 0.12609685E+00 0.20546490E+04</pdfrwt>
<pdfrwt beam="2">  1       -1 0.19809993E+00 0.20546490E+04</pdfrwt>
<totfact> 0.54593617E+00</totfact>
</mgrwt>
</event>
<event>
12    7  0.1729738E-007  0.2675383E+04  0.7818608E-02  0.8343037E-01
          4   -1    0    0  501    0  0.00000000000E+00  0.00000000000E+00  0.24853865029E+04  0.24853865029E+04  0.00000000000E+00 0. -1.
         -3   -1    0    0    0  501 -0.00000000000E+00 -0.00000000000E+00 -0.71997615883E+03  0.71997615883E+03  0.00000000000E+00 0.  1.
         24    2    1    2    0    0  0.43917812214E+03 -0.22559693266E+03 -0.50684327341E+03  0.71237342643E+03  0.82549354281E+02 0.  0.
        254    2    1    2    0    0 -0.43917812214E+03  0.22559693266E+03  0.22722536174E+04  0.24929892353E+04  0.89893683102E+03 0.  0.
         23    2    4    4    0    0 -0.13109740851E+03  0.54097492967E+03  0.10778985920E+04  0.12165754987E+04  0.91379233729E+02 0.  0.
         23    2    4    4    0    0 -0.30808071362E+03 -0.31537799701E+03  0.11943550254E+04  0.12764137365E+04  0.91493677224E+02 0.  0.
          4    1    3    3  502    0  0.86214179082E+02 -0.82777591980E+02 -0.13179789276E+03  0.17792048489E+03  0.00000000000E+00 0. -1.
         -3    1    3    3    0  502  0.35296394305E+03 -0.14281934068E+03 -0.37504538065E+03  0.53445294153E+03  0.00000000000E+00 0.  1.
         13    1    5    5    0    0 -0.12891038975E+03  0.41957111090E+03  0.78255766149E+03  0.89724818152E+03  0.00000000000E+00 0.  1.
        -13    1    5    5    0    0 -0.21870187607E+01  0.12140381877E+03  0.29534093051E+03  0.31932731718E+03  0.00000000000E+00 0. -1.
          2    1    6    6  503    0 -0.39923066689E+01 -0.17179733238E+02  0.11020829170E+03  0.11161070427E+03  0.00000000000E+00 0. -1.
         -2    1    6    6    0  503 -0.30408840695E+03 -0.29819826377E+03  0.10841467337E+04  0.11648030323E+04  0.00000000000E+00 0.  1.
<mgrwt>
<rscale>  0 0.26753834E+04</rscale>
<asrwt>0</asrwt>
<pdfrwt beam="1">  1        4 0.38236715E+00 0.26753834E+04</pdfrwt>
<pdfrwt beam="2">  1       -3 0.11076556E+00 0.26753834E+04</pdfrwt>
<totfact> 0.12330949E-02</totfact>
</mgrwt>
</event>
<event>
12    7  0.1729738E-007  0.3372641E+04  0.7818608E-02  0.8144654E-01
         -1   -1    0    0    0  501 -0.00000000000E+00  0.00000000000E+00  0.11910506598E+04  0.11910506598E+04  0.00000000000E+00 0.  1.
          2   -1    0    0  501    0  0.00000000000E+00 -0.00000000000E+00 -0.23875362704E+04  0.23875362704E+04  0.00000000000E+00 0. -1.
         24    2    1    2    0    0 -0.88805242498E+03 -0.12851793709E+04 -0.45236694676E+03  0.16282421182E+04  0.78825224151E+02 0.  0.
        254    2    1    2    0    0  0.88805242498E+03  0.12851793709E+04 -0.74411866381E+03  0.19503448121E+04  0.89989397998E+03 0.  0.
         23    2    4    4    0    0  0.10013559699E+04  0.79142795733E+03 -0.44368234072E+03  0.13542937408E+04  0.90473900942E+02 0.  0.
         23    2    4    4    0    0 -0.11330354497E+03  0.49375141356E+03 -0.30043632309E+03  0.59605107124E+03  0.91579165737E+02 0.  0.
          2    1    3    3  502    0 -0.34748183458E+03 -0.54257853204E+03 -0.21941873697E+03  0.68064650952E+03  0.00000000000E+00 0. -1.
         -1    1    3    3    0  502 -0.54057059040E+03 -0.74260083885E+03 -0.23294820979E+03  0.94759560864E+03  0.00000000000E+00 0.  1.
         13    1    5    5    0    0  0.97691369773E+03  0.75081761024E+03 -0.42945033670E+03  0.13048046016E+04  0.00000000000E+00 0. -1.
        -13    1    5    5    0    0  0.24442272217E+02  0.40610347095E+02 -0.14232004019E+02  0.49489139220E+02  0.00000000000E+00 0.  1.
          2    1    6    6  503    0 -0.11143612428E+03  0.49593746455E+03 -0.30336429319E+03  0.59194752548E+03  0.00000000000E+00 0. -1.
         -2    1    6    6    0  503 -0.18674206913E+01 -0.21860509874E+01  0.29279700948E+01  0.41035457636E+01  0.00000000000E+00 0.  1.
<mgrwt>
<rscale>  0 0.33726409E+04</rscale>
<asrwt>0</asrwt>
<pdfrwt beam="1">  1        2 0.36731327E+00 0.33726409E+04</pdfrwt>
<pdfrwt beam="2">  1       -1 0.18323856E+00 0.33726409E+04</pdfrwt>
<totfact> 0.75238096E-01</totfact>
</mgrwt>
</event>
<event>
12    7  0.1729738E-007  0.1711853E+04  0.7818608E-02  0.8754633E-01
         -1   -1    0    0    0  501 -0.00000000000E+00  0.00000000000E+00  0.38571837023E+03  0.38571837023E+03  0.00000000000E+00 0.  1.
          2   -1    0    0  501    0  0.00000000000E+00 -0.00000000000E+00 -0.18993396091E+04  0.18993396091E+04  0.00000000000E+00 0. -1.
         24    2    1    2    0    0 -0.10039393618E+03 -0.38813430826E+03  0.80270752760E+02  0.41673649091E+03  0.80614672576E+02 0.  0.
        254    2    1    2    0    0  0.10039393618E+03  0.38813430826E+03 -0.15938919916E+04  0.18683214884E+04  0.88848540755E+03 0.  0.
         23    2    4    4    0    0 -0.16194511855E+02 -0.12099420523E+02 -0.13938866357E+04  0.13970128089E+04  0.91193074598E+02 0.  0.
         23    2    4    4    0    0  0.11658844804E+03  0.40023372878E+03 -0.20000535593E+03  0.47130867952E+03  0.91377377520E+02 0.  0.
          4    1    3    3  502    0 -0.31264109630E+02 -0.39939634292E+02 -0.69306423415E+01  0.51192311353E+02  0.00000000000E+00 0. -1.
         -3    1    3    3    0  502 -0.69129826551E+02 -0.34819467397E+03  0.87201395102E+02  0.36554417955E+03  0.00000000000E+00 0.  1.
         13    1    5    5    0    0  0.34374963681E+02 -0.73054280001E+01 -0.31967807774E+03  0.32160391913E+03  0.00000000000E+00 0.  1.
        -13    1    5    5    0    0 -0.50569475536E+02 -0.47939925233E+01 -0.10742085579E+04  0.10754088898E+04  0.00000000000E+00 0. -1.
          2    1    6    6  503    0  0.36548008847E+02  0.19027407545E+03 -0.46721542269E+02  0.19930600405E+03  0.00000000000E+00 0.  1.
         -2    1    6    6    0  503  0.80040439190E+02  0.20995965333E+03 -0.15328381366E+03  0.27200267547E+03  0.00000000000E+00 0. -1.
<mgrwt>
<rscale>  0 0.17118530E+04</rscale>
<asrwt>0</asrwt>
<pdfrwt beam="1">  1        2 0.29220609E+00 0.17118530E+04</pdfrwt>
<pdfrwt beam="2">  1       -1 0.59341288E-01 0.17118530E+04</pdfrwt>
<totfact> 0.23690059E+01</totfact>
</mgrwt>
</event>
<event>
12    7  0.1729738E-007  0.1262083E+04  0.7818608E-02  0.9060186E-01
         -1   -1    0    0    0  501 -0.00000000000E+00  0.00000000000E+00  0.56380468228E+03  0.56380468228E+03  0.00000000000E+00 0.  1.
          2   -1    0    0  501    0  0.00000000000E+00 -0.00000000000E+00 -0.70629717387E+03  0.70629717387E+03  0.00000000000E+00 0. -1.
         24    2    1    2    0    0  0.11378092719E+03 -0.21606816500E+03 -0.22105530451E+03  0.33880023298E+03  0.79300686631E+02 0.  0.
        254    2    1    2    0    0 -0.11378092719E+03  0.21606816500E+03  0.78562812916E+02  0.93130162316E+03  0.89527596104E+03 0.  0.
         23    2    4    4    0    0  0.48550458662E+02  0.70747847815E+02 -0.38755856865E+03  0.40862428246E+03  0.97003892049E+02 0.  0.
         23    2    4    4    0    0 -0.16233138585E+03  0.14532031718E+03  0.46612138157E+03  0.52267734070E+03  0.91940125677E+02 0.  0.
          2    1    3    3  502    0  0.47967577879E+02 -0.13499438337E+03 -0.82562114992E+02  0.16535076323E+03  0.00000000000E+00 0. -1.
         -1    1    3    3    0  502  0.65813349308E+02 -0.81073781630E+02 -0.13849318952E+03  0.17344946976E+03  0.00000000000E+00 0.  1.
         13    1    5    5    0    0  0.29929700963E+02  0.12758233913E+02 -0.25121450840E+02  0.41105313824E+02  0.00000000000E+00 0.  1.
        -13    1    5    5    0    0  0.18620757699E+02  0.57989613902E+02 -0.36243711781E+03  0.36751896864E+03  0.00000000000E+00 0. -1.
          1    1    6    6  503    0 -0.15789966547E+03  0.14371169418E+03  0.47022492540E+03  0.51642698988E+03  0.00000000000E+00 0. -1.
         -1    1    6    6    0  503 -0.44317203781E+01  0.16086230028E+01 -0.41035438340E+01  0.62503508280E+01  0.00000000000E+00 0.  1.
<mgrwt>
<rscale>  0 0.12620834E+04</rscale>
<asrwt>0</asrwt>
<pdfrwt beam="1">  1        2 0.10866110E+00 0.12620834E+04</pdfrwt>
<pdfrwt beam="2">  1       -1 0.86739182E-01 0.12620834E+04</pdfrwt>
<totfact> 0.59593616E+01</totfact>
</mgrwt>
</event>
<event>
12    7  0.1729738E-007  0.1961350E+04  0.7818608E-02  0.8624907E-01
         -1   -1    0    0    0  501 -0.00000000000E+00  0.00000000000E+00  0.83589944222E+03  0.83589944222E+03  0.00000000000E+00 0.  1.
          2   -1    0    0  501    0  0.00000000000E+00 -0.00000000000E+00 -0.11505249596E+04  0.11505249596E+04  0.00000000000E+00 0. -1.
         24    2    1    2    0    0 -0.60000683669E+03  0.34759874776E+03  0.20765851653E+03  0.72834206266E+03  0.80789895689E+02 0.  0.
        254    2    1    2    0    0  0.60000683669E+03 -0.34759874776E+03 -0.52228403388E+03  0.12580823391E+04  0.91058084016E+03 0.  0.
         23    2    4    4    0    0  0.79655472762E+03 -0.99531723712E+02 -0.30564716735E+03  0.86375745348E+03  0.90833635917E+02 0.  0.
         23    2    4    4    0    0 -0.19654789093E+03 -0.24806702405E+03 -0.21663686653E+03  0.39432488566E+03  0.91609288061E+02 0.  0.
          2    1    3    3  502    0 -0.11256394007E+03  0.67594544457E+02  0.73269860080E+02  0.15036001942E+03  0.00000000000E+00 0. -1.
         -3    1    3    3    0  502 -0.48744289662E+03  0.28000420330E+03  0.13438865645E+03  0.57798204324E+03  0.00000000000E+00 0.  1.
         13    1    5    5    0    0  0.12098843275E+03 -0.47036210033E+02 -0.59956609408E+02  0.14298741527E+03  0.00000000000E+00 0.  1.
        -13    1    5    5    0    0  0.67556629487E+03 -0.52495513679E+02 -0.24569055794E+03  0.72077003821E+03  0.00000000000E+00 0. -1.
          2    1    6    6  503    0 -0.78600906267E+02 -0.98897167156E+02 -0.14193841783E+03  0.19001385895E+03  0.00000000000E+00 0. -1.
         -2    1    6    6    0  503 -0.11794698466E+03 -0.14916985689E+03 -0.74698448707E+02  0.20431102671E+03  0.00000000000E+00 0.  1.
<mgrwt>
<rscale>  0 0.19613497E+04</rscale>
<asrwt>0</asrwt>
<pdfrwt beam="1">  1        2 0.17700384E+00 0.19613497E+04</pdfrwt>
<pdfrwt beam="2">  1       -1 0.12859991E+00 0.19613497E+04</pdfrwt>
<totfact> 0.11238211E+01</totfact>
</mgrwt>
</event>
<event>
12    7  0.1729738E-007  0.1370555E+04  0.7818608E-02  0.8975412E-01
          2   -1    0    0  501    0  0.00000000000E+00  0.00000000000E+00  0.27733024126E+04  0.27733024126E+04  0.00000000000E+00 0. -1.
         -1   -1    0    0    0  501 -0.00000000000E+00 -0.00000000000E+00 -0.16933071881E+03  0.16933071881E+03  0.00000000000E+00 0.  1.
         24    2    1    2    0    0  0.99446331258E+02  0.33052767415E+03  0.40290111224E+03  0.53658988297E+03  0.80382088055E+02 0.  0.
        254    2    1    2    0    0 -0.99446331258E+02 -0.33052767415E+03  0.22010705815E+04  0.24060432484E+04  0.90840205426E+03 0.  0.
         23    2    4    4    0    0 -0.24491399914E+03 -0.59205592463E+03  0.12921749663E+04  0.14449841930E+04  0.88034593934E+02 0.  0.
         23    2    4    4    0    0  0.14546766788E+03  0.26152825047E+03  0.90889561530E+03  0.96105905544E+03  0.89361067282E+02 0.  0.
          2    1    3    3  502    0 -0.13215734055E+02  0.36395817722E+02  0.34112845503E+02  0.51604238223E+02  0.00000000000E+00 0. -1.
         -1    1    3    3    0  502  0.11266206531E+03  0.29413185643E+03  0.36878826674E+03  0.48498564475E+03  0.00000000000E+00 0.  1.
         13    1    5    5    0    0 -0.39644922618E+01 -0.78845946676E+02  0.13518496974E+03  0.15654832018E+03  0.00000000000E+00 0. -1.
        -13    1    5    5    0    0 -0.24094950688E+03 -0.51320997795E+03  0.11569899965E+04  0.12884358728E+04  0.00000000000E+00 0.  1.
          3    1    6    6  503    0  0.35061360786E+02  0.12164974048E+03  0.27782364142E+03  0.30530957095E+03  0.00000000000E+00 0. -1.
         -3    1    6    6    0  503  0.11040630710E+03  0.13987850999E+03  0.63107197387E+03  0.65574948449E+03  0.00000000000E+00 0.  1.
<mgrwt>
<rscale>  0 0.13705551E+04</rscale>
<asrwt>0</asrwt>
<pdfrwt beam="1">  1        2 0.42666188E+00 0.13705551E+04</pdfrwt>
<pdfrwt beam="2">  1       -1 0.26050882E-01 0.13705551E+04</pdfrwt>
<totfact> 0.35023344E+01</totfact>
</mgrwt>
</event>
<event>
12    7  0.1729738E-007  0.3545499E+04  0.7818608E-02  0.8103091E-01
          2   -1    0    0  501    0  0.00000000000E+00  0.00000000000E+00  0.13009930863E+04  0.13009930863E+04  0.00000000000E+00 0. -1.
         -1   -1    0    0    0  501 -0.00000000000E+00 -0.00000000000E+00 -0.24155709149E+04  0.24155709149E+04  0.00000000000E+00 0.  1.
         24    2    1    2    0    0  0.60853173499E+03  0.10478863648E+04 -0.17529865411E+04  0.21324643227E+04  0.77881758832E+02 0.  0.
        254    2    1    2    0    0 -0.60853173499E+03 -0.10478863648E+04  0.63840871250E+03  0.15840996785E+04  0.79588278104E+03 0.  0.
         23    2    4    4    0    0 -0.19205679008E+03 -0.20482482555E+02 -0.11230422841E+03  0.24232597186E+03  0.93831200619E+02 0.  0.
         23    2    4    4    0    0 -0.41647494491E+03 -0.10274038822E+04  0.75071294091E+03  0.13417737066E+04  0.88185277425E+02 0.  0.
          4    1    3    3  502    0  0.20425873056E+03  0.28188738300E+03 -0.49729646393E+03  0.60703039359E+03  0.00000000000E+00 0. -1.
         -3    1    3    3    0  502  0.40427300443E+03  0.76599898180E+03 -0.12556900771E+04  0.15254339291E+04  0.00000000000E+00 0.  1.
         13    1    5    5    0    0 -0.17540806101E+03 -0.25187593852E+01 -0.61443709166E+02  0.18587539216E+03  0.00000000000E+00 0. -1.
        -13    1    5    5    0    0 -0.16648729071E+02 -0.17963723169E+02 -0.50860519244E+02  0.56450579692E+02  0.00000000000E+00 0.  1.
          3    1    6    6  503    0 -0.32192803378E+02 -0.15951567485E+03  0.10057413318E+03  0.19130285774E+03  0.00000000000E+00 0. -1.
         -3    1    6    6    0  503 -0.38428214153E+03 -0.86788820739E+03  0.65013880772E+03  0.11504708489E+04  0.00000000000E+00 0.  1.
<mgrwt>
<rscale>  0 0.35454992E+04</rscale>
<asrwt>0</asrwt>
<pdfrwt beam="1">  1        2 0.20015278E+00 0.35454992E+04</pdfrwt>
<pdfrwt beam="2">  1       -1 0.37162629E+00 0.35454992E+04</pdfrwt>
<totfact> 0.17142066E-01</totfact>
</mgrwt>
</event>
<event>
12    7  0.1729738E-007  0.1753033E+04  0.7818608E-02  0.8731682E-01
         -1   -1    0    0    0  501 -0.00000000000E+00  0.00000000000E+00  0.27312210041E+03  0.27312210041E+03  0.00000000000E+00 0.  1.
          2   -1    0    0  501    0  0.00000000000E+00 -0.00000000000E+00 -0.28129598480E+04  0.28129598480E+04  0.00000000000E+00 0. -1.
         24    2    1    2    0    0 -0.17642249834E+03 -0.60806081167E+03 -0.82959186520E+03  0.10470901901E+04  0.85512307312E+02 0.  0.
        254    2    1    2    0    0  0.17642249834E+03  0.60806081167E+03 -0.17102458824E+04  0.20389917583E+04  0.91196686552E+03 0.  0.
         23    2    4    4    0    0  0.51447127251E+03  0.31666170188E+03 -0.12496714803E+04  0.13910929973E+04  0.92225780940E+02 0.  0.
         23    2    4    4    0    0 -0.33804877417E+03  0.29139910978E+03 -0.46057440204E+03  0.64789876105E+03  0.91943514520E+02 0.  0.
          4    1    3    3  502    0 -0.85838972407E+02 -0.33653470264E+03 -0.52134915733E+03  0.62644144108E+03  0.00000000000E+00 0. -1.
         -3    1    3    3    0  502 -0.90583525930E+02 -0.27152610903E+03 -0.30824270788E+03  0.42064874898E+03  0.00000000000E+00 0.  1.
         13    1    5    5    0    0  0.23647977273E+02  0.23845056493E+02 -0.12633552965E+03  0.13072291154E+03  0.00000000000E+00 0. -1.
        -13    1    5    5    0    0  0.49082329523E+03  0.29281664539E+03 -0.11233359507E+04  0.12603700857E+04  0.00000000000E+00 0.  1.
          3    1    6    6  503    0 -0.59614820422E+02  0.42944305923E+02 -0.33471007545E+02  0.80736909596E+02  0.00000000000E+00 0. -1.
         -3    1    6    6    0  503 -0.27843395375E+03  0.24845480386E+03 -0.42710339449E+03  0.56716185146E+03  0.00000000000E+00 0.  1.
<mgrwt>
<rscale>  0 0.17530334E+04</rscale>
<asrwt>0</asrwt>
<pdfrwt beam="1">  1        2 0.43276306E+00 0.17530334E+04</pdfrwt>
<pdfrwt beam="2">  1       -1 0.42018784E-01 0.17530334E+04</pdfrwt>
<totfact> 0.13671633E+01</totfact>
</mgrwt>
</event>
<event>
12    7  0.1729738E-007  0.2200371E+04  0.7818608E-02  0.8518274E-01
          2   -1    0    0  501    0  0.00000000000E+00  0.00000000000E+00  0.15475021214E+04  0.15475021214E+04  0.00000000000E+00 0. -1.
         -1   -1    0    0    0  501 -0.00000000000E+00 -0.00000000000E+00 -0.78216905878E+03  0.78216905878E+03  0.00000000000E+00 0.  1.
         24    2    1    2    0    0  0.14931808493E+03 -0.24683694203E+03 -0.59738570025E+03  0.66824921475E+03  0.80392609743E+02 0.  0.
        254    2    1    2    0    0 -0.14931808493E+03  0.24683694203E+03  0.13627187629E+04  0.16614219655E+04  0.90559160450E+03 0.  0.
         23    2    4    4    0    0 -0.12908128337E+03 -0.25338972145E+03  0.97825478362E+03  0.10230295076E+04  0.93480602625E+02 0.  0.
         23    2    4    4    0    0 -0.20236801557E+02  0.50022666348E+03  0.38446397929E+03  0.63839245789E+03  0.95373664720E+02 0.  0.
          2    1    3    3  502    0  0.13800880577E+03 -0.23583208776E+03 -0.50182474092E+03  0.57139415003E+03  0.00000000000E+00 0. -1.
         -1    1    3    3    0  502  0.11309279163E+02 -0.11004854274E+02 -0.95560959336E+02  0.96855064720E+02  0.00000000000E+00 0.  1.
         13    1    5    5    0    0 -0.62168163175E+02 -0.19429584232E+03  0.57810430800E+03  0.61304187931E+03  0.00000000000E+00 0.  1.
        -13    1    5    5    0    0 -0.66913120199E+02 -0.59093879130E+02  0.40015047561E+03  0.40998762828E+03  0.00000000000E+00 0. -1.
          1    1    6    6  503    0 -0.39115020498E+02  0.90322218793E+02  0.89547342660E+02  0.13306695538E+03  0.00000000000E+00 0. -1.
         -1    1    6    6    0  503  0.18878218941E+02  0.40990444469E+03  0.29491663663E+03  0.50532550251E+03  0.00000000000E+00 0.  1.
<mgrwt>
<rscale>  0 0.22003711E+04</rscale>
<asrwt>0</asrwt>
<pdfrwt beam="1">  1        2 0.23807725E+00 0.22003711E+04</pdfrwt>
<pdfrwt beam="2">  1       -1 0.12033370E+00 0.22003711E+04</pdfrwt>
<totfact> 0.76405372E+00</totfact>
</mgrwt>
</event>
<event>
12    7  0.1729738E-007  0.1554427E+04  0.7818608E-02  0.8849045E-01
          2   -1    0    0  501    0  0.00000000000E+00  0.00000000000E+00  0.20528826419E+04  0.20528826419E+04  0.00000000000E+00 0. -1.
         -1   -1    0    0    0  501 -0.00000000000E+00 -0.00000000000E+00 -0.29425017099E+03  0.29425017099E+03  0.00000000000E+00 0.  1.
         24    2    1    2    0    0  0.30950963488E+03 -0.20392399226E+03  0.58406613074E+02  0.38823908116E+03  0.99684717910E+02 0.  0.
        254    2    1    2    0    0 -0.30950963488E+03  0.20392399226E+03  0.17002258579E+04  0.19588937318E+04  0.89950846351E+03 0.  0.
         23    2    4    4    0    0 -0.27899283029E+03  0.90342579738E+02  0.61091229636E+02  0.31303355949E+03  0.90879535429E+02 0.  0.
         23    2    4    4    0    0 -0.30516804584E+02  0.11358141253E+03  0.16391346282E+04  0.16458601723E+04  0.90892049288E+02 0.  0.
          2    1    3    3  502    0  0.82362507933E+02 -0.31400145312E+02  0.53198021715E+02  0.10295426826E+03  0.00000000000E+00 0. -1.
         -1    1    3    3    0  502  0.22714712694E+03 -0.17252384695E+03  0.52085913594E+01  0.28528481290E+03  0.00000000000E+00 0.  1.
         13    1    5    5    0    0 -0.27809504992E+03  0.74832088576E+02  0.46495527895E+02  0.29171652745E+03  0.00000000000E+00 0. -1.
        -13    1    5    5    0    0 -0.89778036784E+00  0.15510491162E+02  0.14595701741E+02  0.21317032039E+02  0.00000000000E+00 0.  1.
          3    1    6    6  503    0 -0.15570054141E+02  0.10384838277E+03  0.15920666189E+04  0.15955259422E+04  0.00000000000E+00 0. -1.
         -3    1    6    6    0  503 -0.14946750444E+02  0.97330297544E+01  0.47068009333E+02  0.50334230099E+02  0.00000000000E+00 0.  1.
<mgrwt>
<rscale>  0 0.15544273E+04</rscale>
<asrwt>0</asrwt>
<pdfrwt beam="1">  1        2 0.31582809E+00 0.15544273E+04</pdfrwt>
<pdfrwt beam="2">  1       -1 0.45269258E-01 0.15544273E+04</pdfrwt>
<totfact> 0.33152252E+01</totfact>
</mgrwt>
</event>
<event>
12    7  0.1729738E-007  0.2565523E+04  0.7818608E-02  0.8380007E-01
         -1   -1    0    0    0  501 -0.00000000000E+00  0.00000000000E+00  0.50265278664E+03  0.50265278664E+03  0.00000000000E+00 0.  1.
          2   -1    0    0  501    0  0.00000000000E+00 -0.00000000000E+00 -0.32735860831E+04  0.32735860831E+04  0.00000000000E+00 0. -1.
         24    2    1    2    0    0 -0.48410157635E+03  0.53383530671E+03 -0.25046626235E+04  0.26075015132E+04  0.79967572172E+02 0.  0.
        254    2    1    2    0    0  0.48410157635E+03 -0.53383530671E+03 -0.26627067291E+03  0.11687373565E+04  0.88074540386E+03 0.  0.
         23    2    4    4    0    0  0.57382243708E+03 -0.60890027230E+03 -0.43158956283E+03  0.94629516080E+03  0.95777083361E+02 0.  0.
         23    2    4    4    0    0 -0.89720860739E+02  0.75064965589E+02  0.16531888991E+03  0.22244219575E+03  0.92008766842E+02 0.  0.
          2    1    3    3  502    0 -0.39184875602E+03  0.41293203860E+03 -0.20772113116E+04  0.21538024861E+04  0.00000000000E+00 0. -1.
         -1    1    3    3    0  502 -0.92252820322E+02  0.12090326811E+03 -0.42745131189E+03  0.45369902704E+03  0.00000000000E+00 0.  1.
         13    1    5    5    0    0  0.25648371541E+03 -0.27558714206E+03 -0.24795363172E+03  0.45079171756E+03  0.00000000000E+00 0.  1.
        -13    1    5    5    0    0  0.31733872167E+03 -0.33331313024E+03 -0.18363593111E+03  0.49550344323E+03  0.00000000000E+00 0. -1.
          1    1    6    6  503    0 -0.98799639358E+02  0.54585169577E+02  0.91514347836E+02  0.14531271567E+03  0.00000000000E+00 0. -1.
         -1    1    6    6    0  503  0.90787786193E+01  0.20479796013E+02  0.73804542078E+02  0.77129480080E+02  0.00000000000E+00 0.  1.
<mgrwt>
<rscale>  0 0.25655231E+04</rscale>
<asrwt>0</asrwt>
<pdfrwt beam="1">  1        2 0.50362862E+00 0.25655231E+04</pdfrwt>
<pdfrwt beam="2">  1       -1 0.77331200E-01 0.25655231E+04</pdfrwt>
<totfact> 0.19620493E+00</totfact>
</mgrwt>
</event>
<event>
12    7  0.1729738E-007  0.2002973E+04  0.7818608E-02  0.8605232E-01
         -1   -1    0    0    0  501 -0.00000000000E+00  0.00000000000E+00  0.37898402587E+03  0.37898402587E+03  0.00000000000E+00 0.  1.
          2   -1    0    0  501    0  0.00000000000E+00 -0.00000000000E+00 -0.26464841989E+04  0.26464841989E+04  0.00000000000E+00 0. -1.
         24    2    1    2    0    0  0.29160537074E+03  0.73557452718E+03 -0.96192089001E+03  0.12481499361E+04  0.80516377195E+02 0.  0.
        254    2    1    2    0    0 -0.29160537074E+03 -0.73557452718E+03 -0.13055792830E+04  0.17773182887E+04  0.91006563378E+03 0.  0.
         23    2    4    4    0    0 -0.54587396826E+03 -0.41019437991E+03 -0.45299478659E+03  0.82435382221E+03  0.90095110814E+02 0.  0.
         23    2    4    4    0    0  0.25426859751E+03 -0.32538014727E+03 -0.85258449644E+03  0.95296446649E+03  0.10351903637E+03 0.  0.
          4    1    3    3  502    0  0.20926695280E+02  0.17259697541E+02 -0.42397161173E+02  0.50332325697E+02  0.00000000000E+00 0. -1.
         -3    1    3    3    0  502  0.27067867546E+03  0.71831482964E+03 -0.91952372884E+03  0.11978176104E+04  0.00000000000E+00 0.  1.
         13    1    5    5    0    0 -0.20886795398E+03 -0.12372109361E+03 -0.12059721702E+03  0.27106534260E+03  0.00000000000E+00 0.  1.
        -13    1    5    5    0    0 -0.33700601427E+03 -0.28647328630E+03 -0.33239756957E+03  0.55328847962E+03  0.00000000000E+00 0. -1.
          4    1    6    6  503    0  0.10393379430E+03 -0.63695754766E+02 -0.20487884126E+03  0.23840034054E+03  0.00000000000E+00 0. -1.
         -4    1    6    6    0  503  0.15033480322E+03 -0.26168439250E+03 -0.64770565518E+03  0.71456412595E+03  0.00000000000E+00 0.  1.
<mgrwt>
<rscale>  0 0.20029730E+04</rscale>
<asrwt>0</asrwt>
<pdfrwt beam="1">  1        2 0.40715142E+00 0.20029730E+04</pdfrwt>
<pdfrwt beam="2">  1       -1 0.58305235E-01 0.20029730E+04</pdfrwt>
<totfact> 0.90122846E+00</totfact>
</mgrwt>
</event>
<event>
12    7  0.1729738E-007  0.1604444E+04  0.7818608E-02  0.8817823E-01
         -1   -1    0    0    0  501 -0.00000000000E+00  0.00000000000E+00  0.48088002015E+03  0.48088002015E+03  0.00000000000E+00 0.  1.
          2   -1    0    0  501    0  0.00000000000E+00 -0.00000000000E+00 -0.13382959480E+04  0.13382959480E+04  0.00000000000E+00 0. -1.
         24    2    1    2    0    0  0.13902068939E+03 -0.28423083398E+03 -0.79319145994E+03  0.85775954030E+03  0.80528366445E+02 0.  0.
        254    2    1    2    0    0 -0.13902068939E+03  0.28423083398E+03 -0.64224467931E+02  0.96141642787E+03  0.90558425695E+03 0.  0.
         23    2    4    4    0    0  0.10804097713E+03 -0.28572063788E+03  0.51525478076E+02  0.32301890150E+03  0.91527046200E+02 0.  0.
         23    2    4    4    0    0 -0.24706166651E+03  0.56995147186E+03 -0.11574994601E+03  0.63839752636E+03  0.90935165514E+02 0.  0.
          2    1    3    3  502    0  0.11447963047E+03 -0.27864723403E+03 -0.73691236003E+03  0.79610909628E+03  0.00000000000E+00 0. -1.
         -1    1    3    3    0  502  0.24541058914E+02 -0.55835999464E+01 -0.56279099909E+02  0.61650444017E+02  0.00000000000E+00 0.  1.
         13    1    5    5    0    0  0.10315245279E+03 -0.14575873211E+03  0.22287111334E+02  0.17995208206E+03  0.00000000000E+00 0. -1.
        -13    1    5    5    0    0  0.48885243338E+01 -0.13996190577E+03  0.29238366742E+02  0.14306681945E+03  0.00000000000E+00 0.  1.
          1    1    6    6  503    0 -0.56768973422E+02  0.14661608827E+03  0.99562120543E+01  0.15753767753E+03  0.00000000000E+00 0. -1.
         -1    1    6    6    0  503 -0.19029269309E+03  0.42333538359E+03 -0.12570615806E+03  0.48085984884E+03  0.00000000000E+00 0.  1.
<mgrwt>
<rscale>  0 0.16044436E+04</rscale>
<asrwt>0</asrwt>
<pdfrwt beam="1">  1        2 0.20589169E+00 0.16044436E+04</pdfrwt>
<pdfrwt beam="2">  1       -1 0.73981541E-01 0.16044436E+04</pdfrwt>
<totfact> 0.31573016E+01</totfact>
</mgrwt>
</event>
<event>
12    7  0.1729738E-007  0.2797924E+04  0.7818608E-02  0.8303913E-01
          2   -1    0    0  501    0  0.00000000000E+00  0.00000000000E+00  0.20182295194E+04  0.20182295194E+04  0.00000000000E+00 0. -1.
         -1   -1    0    0    0  501 -0.00000000000E+00 -0.00000000000E+00 -0.96970885138E+03  0.96970885138E+03  0.00000000000E+00 0.  1.
         24    2    1    2    0    0  0.32861439397E+02  0.54855780437E+03 -0.72964146207E+03  0.91821622509E+03  0.93535201398E+02 0.  0.
        254    2    1    2    0    0 -0.32861439397E+02 -0.54855780437E+03  0.17781621301E+04  0.20697221457E+04  0.90547979578E+03 0.  0.
         23    2    4    4    0    0  0.88821161002E+02 -0.74006301441E+03  0.16039406178E+04  0.17712307118E+04  0.95132881034E+02 0.  0.
         23    2    4    4    0    0 -0.12168260040E+03  0.19150521004E+03  0.17422151233E+03  0.29849143393E+03  0.85223823309E+02 0.  0.
          4    1    3    3  502    0 -0.17987098270E+02  0.27263102019E+02 -0.57092471806E+02  0.65775092343E+02  0.00000000000E+00 0. -1.
         -3    1    3    3    0  502  0.50848537667E+02  0.52129470235E+03 -0.67254899027E+03  0.85244113274E+03  0.00000000000E+00 0.  1.
         13    1    5    5    0    0  0.52515402620E+02 -0.51659842795E+03  0.12129741351E+04  0.13194461170E+04  0.00000000000E+00 0.  1.
        -13    1    5    5    0    0  0.36305758382E+02 -0.22346458646E+03  0.39096648268E+03  0.45178459477E+03  0.00000000000E+00 0. -1.
          1    1    6    6  503    0 -0.40149010367E+02  0.10310512434E+02  0.46472822663E+02  0.62273372692E+02  0.00000000000E+00 0. -1.
         -1    1    6    6    0  503 -0.81533590032E+02  0.18119469761E+03  0.12774868966E+03  0.23621806124E+03  0.00000000000E+00 0.  1.
<mgrwt>
<rscale>  0 0.27979243E+04</rscale>
<asrwt>0</asrwt>
<pdfrwt beam="1">  1        2 0.31049685E+00 0.27979243E+04</pdfrwt>
<pdfrwt beam="2">  1       -1 0.14918598E+00 0.27979243E+04</pdfrwt>
<totfact> 0.22878596E+00</totfact>
</mgrwt>
</event>
<event>
12    7  0.1729738E-007  0.2080718E+04  0.7818608E-02  0.8569785E-01
          2   -1    0    0  501    0  0.00000000000E+00  0.00000000000E+00  0.16904821512E+04  0.16904821512E+04  0.00000000000E+00 0. -1.
         -3   -1    0    0    0  501 -0.00000000000E+00 -0.00000000000E+00 -0.64025903183E+03  0.64025903183E+03  0.00000000000E+00 0.  1.
         24    2    1    2    0    0 -0.59696656451E+03 -0.59543666026E+03  0.45562248043E+03  0.96164673680E+03  0.79111985237E+02 0.  0.
        254    2    1    2    0    0  0.59696656451E+03  0.59543666026E+03  0.59460063896E+03  0.13690944463E+04  0.89997543710E+03 0.  0.
         23    2    4    4    0    0  0.37689622594E+03 -0.17537172482E+03  0.22001480988E+03  0.47878630274E+03  0.89575667050E+02 0.  0.
         23    2    4    4    0    0  0.22007033857E+03  0.77080838508E+03  0.37458582908E+03  0.89030814352E+03  0.98780193564E+02 0.  0.
          2    1    3    3  502    0 -0.48125904209E+03 -0.49825906659E+03  0.40423335936E+03  0.80204549239E+03  0.00000000000E+00 0. -1.
         -1    1    3    3    0  502 -0.11570752242E+03 -0.97177593663E+02  0.51389121064E+02  0.15960124441E+03  0.00000000000E+00 0.  1.
         13    1    5    5    0    0  0.12850969455E+03 -0.68489768629E+02  0.31045781586E+02  0.14889402458E+03  0.00000000000E+00 0. -1.
        -13    1    5    5    0    0  0.24838653139E+03 -0.10688195619E+03  0.18896902829E+03  0.32989227816E+03  0.00000000000E+00 0.  1.
          4    1    6    6  503    0  0.29123158597E+02  0.76442263600E+02  0.72738306532E+02  0.10946432875E+03  0.00000000000E+00 0.  1.
         -4    1    6    6    0  503  0.19094717997E+03  0.69436612148E+03  0.30184752255E+03  0.78084381477E+03  0.00000000000E+00 0. -1.
<mgrwt>
<rscale>  0 0.20807176E+04</rscale>
<asrwt>0</asrwt>
<pdfrwt beam="1">  1        2 0.26007418E+00 0.20807176E+04</pdfrwt>
<pdfrwt beam="2">  1       -3 0.98501390E-01 0.20807176E+04</pdfrwt>
<totfact> 0.52836888E+00</totfact>
</mgrwt>
</event>
<event>
12    7  0.1729738E-007  0.1237910E+04  0.7818608E-02  0.9080306E-01
          2   -1    0    0  501    0  0.00000000000E+00  0.00000000000E+00  0.68515005769E+03  0.68515005769E+03  0.00000000000E+00 0. -1.
         -1   -1    0    0    0  501 -0.00000000000E+00 -0.00000000000E+00 -0.55915542615E+03  0.55915542615E+03  0.00000000000E+00 0.  1.
         24    2    1    2    0    0 -0.48279212105E+02  0.16060166332E+03  0.24025614124E+03  0.30383403729E+03  0.80425942531E+02 0.  0.
        254    2    1    2    0    0  0.48279212105E+02 -0.16060166332E+03 -0.11426150970E+03  0.94047144654E+03  0.91831752274E+03 0.  0.
         23    2    4    4    0    0  0.33730521718E+03 -0.10889910678E+03  0.26613937409E+03  0.45147413086E+03  0.85818992061E+02 0.  0.
         23    2    4    4    0    0 -0.28902600508E+03 -0.51702556533E+02 -0.38040088379E+03  0.48899731568E+03  0.90577902314E+02 0.  0.
          4    1    3    3  502    0 -0.69084317859E+02  0.13635457144E+03  0.21072367409E+03  0.26032610117E+03  0.00000000000E+00 0. -1.
         -3    1    3    3    0  502  0.20805105754E+02  0.24247091874E+02  0.29532467147E+02  0.43507936122E+02  0.00000000000E+00 0.  1.
         13    1    5    5    0    0  0.21279003754E+02  0.13190151801E+02  0.26777047304E+02  0.36657691793E+02  0.00000000000E+00 0. -1.
        -13    1    5    5    0    0  0.31602621343E+03 -0.12208925858E+03  0.23936232679E+03  0.41481643907E+03  0.00000000000E+00 0.  1.
          3    1    6    6  503    0 -0.75096139689E+02  0.12610813569E+02 -0.14919096048E+03  0.16750046419E+03  0.00000000000E+00 0. -1.
         -3    1    6    6    0  503 -0.21392986539E+03 -0.64313370101E+02 -0.23120992332E+03  0.32149685149E+03  0.00000000000E+00 0.  1.
<mgrwt>
<rscale>  0 0.12379101E+04</rscale>
<asrwt>0</asrwt>
<pdfrwt beam="1">  1        2 0.10540770E+00 0.12379101E+04</pdfrwt>
<pdfrwt beam="2">  1       -1 0.86023912E-01 0.12379101E+04</pdfrwt>
<totfact> 0.63170779E+01</totfact>
</mgrwt>
</event>
<event>
12    7  0.1729738E-007  0.1910995E+04  0.7818608E-02  0.8649403E-01
          2   -1    0    0  501    0  0.00000000000E+00  0.00000000000E+00  0.11496064294E+04  0.11496064294E+04  0.00000000000E+00 0. -1.
         -1   -1    0    0    0  501 -0.00000000000E+00 -0.00000000000E+00 -0.79416317045E+03  0.79416317045E+03  0.00000000000E+00 0.  1.
         24    2    1    2    0    0 -0.70451925398E+03 -0.20370597437E+02  0.35731127985E+03  0.79402930790E+03  0.77774357124E+02 0.  0.
        254    2    1    2    0    0  0.70451925398E+03  0.20370597437E+02 -0.18680208966E+01  0.11497402919E+04  0.90837046900E+03 0.  0.
         23    2    4    4    0    0  0.48920099360E+03 -0.40303972503E+03 -0.12047654274E+03  0.65141722873E+03  0.89839726397E+02 0.  0.
         23    2    4    4    0    0  0.21531826038E+03  0.42341032247E+03  0.11860852184E+03  0.49832306322E+03  0.92842013415E+02 0.  0.
          4    1    3    3  502    0 -0.63069913394E+03  0.17056046000E+01  0.33312648324E+03  0.71327243076E+03  0.00000000000E+00 0. -1.
         -3    1    3    3    0  502 -0.73820120037E+02 -0.22076202037E+02  0.24184796616E+02  0.80756877144E+02  0.00000000000E+00 0.  1.
         13    1    5    5    0    0  0.47617814018E+03 -0.39750323883E+03 -0.13076754691E+03  0.63392002445E+03  0.00000000000E+00 0.  1.
        -13    1    5    5    0    0  0.13022853423E+02 -0.55364861994E+01  0.10291004178E+02  0.17497204282E+02  0.00000000000E+00 0. -1.
          3    1    6    6  503    0  0.58759644975E+02  0.17810388682E+03  0.10355356318E+02  0.18783216919E+03  0.00000000000E+00 0. -1.
         -3    1    6    6    0  503  0.15655861540E+03  0.24530643564E+03  0.10825316552E+03  0.31049089402E+03  0.00000000000E+00 0.  1.
<mgrwt>
<rscale>  0 0.19109946E+04</rscale>
<asrwt>0</asrwt>
<pdfrwt beam="1">  1        2 0.17686253E+00 0.19109946E+04</pdfrwt>
<pdfrwt beam="2">  1       -1 0.12217895E+00 0.19109946E+04</pdfrwt>
<totfact> 0.12838916E+01</totfact>
</mgrwt>
</event>
<event>
12    7  0.1729738E-007  0.2870853E+04  0.7818608E-02  0.8281603E-01
         -1   -1    0    0    0  501 -0.00000000000E+00  0.00000000000E+00  0.80445713520E+03  0.80445713520E+03  0.00000000000E+00 0.  1.
          2   -1    0    0  501    0  0.00000000000E+00 -0.00000000000E+00 -0.25612911871E+04  0.25612911871E+04  0.00000000000E+00 0. -1.
         24    2    1    2    0    0  0.19904809562E+03 -0.52368464539E+03 -0.21752542926E+04  0.22478406873E+04  0.84798381622E+02 0.  0.
        254    2    1    2    0    0 -0.19904809562E+03  0.52368464539E+03  0.41842024071E+03  0.11179076351E+04  0.87222487381E+03 0.  0.
         23    2    4    4    0    0  0.68063948173E+02  0.42136393003E+03  0.61727295944E+03  0.75593062995E+03  0.90691500533E+02 0.  0.
         23    2    4    4    0    0 -0.26711204379E+03  0.10232071536E+03 -0.19885271873E+03  0.36197700510E+03  0.98318745653E+02 0.  0.
          4    1    3    3  502    0  0.17177261548E+03 -0.42406916150E+03 -0.18858370135E+04  0.19405467597E+04  0.00000000000E+00 0. -1.
         -3    1    3    3    0  502  0.27275480141E+02 -0.99615483894E+02 -0.28941727914E+03  0.30729392755E+03  0.00000000000E+00 0.  1.
         13    1    5    5    0    0  0.76685180115E+02  0.34711140257E+03  0.55271259730E+03  0.65715915717E+03  0.00000000000E+00 0.  1.
        -13    1    5    5    0    0 -0.86212319415E+01  0.74252527468E+02  0.64560362142E+02  0.98771472782E+02  0.00000000000E+00 0. -1.
          1    1    6    6  503    0  0.55793946098E+00  0.13342634510E+02  0.46695100034E+01  0.14147138078E+02  0.00000000000E+00 0. -1.
         -1    1    6    6    0  503 -0.26766998325E+03  0.88978080848E+02 -0.20352222874E+03  0.34782986702E+03  0.00000000000E+00 0.  1.
<mgrwt>
<rscale>  0 0.28708528E+04</rscale>
<asrwt>0</asrwt>
<pdfrwt beam="1">  1        2 0.39404480E+00 0.28708528E+04</pdfrwt>
<pdfrwt beam="2">  1       -1 0.12376264E+00 0.28708528E+04</pdfrwt>
<totfact> 0.18083336E+00</totfact>
</mgrwt>
</event>
<event>
12    7  0.1729738E-007  0.1455595E+04  0.7818608E-02  0.8914531E-01
          2   -1    0    0  501    0  0.00000000000E+00  0.00000000000E+00  0.41851324353E+03  0.41851324353E+03  0.00000000000E+00 0. -1.
         -1   -1    0    0    0  501 -0.00000000000E+00 -0.00000000000E+00 -0.12656450955E+04  0.12656450955E+04  0.00000000000E+00 0.  1.
         24    2    1    2    0    0 -0.42951758327E+03  0.16511584109E+02 -0.21876344507E+03  0.48942155350E+03  0.83174667921E+02 0.  0.
        254    2    1    2    0    0  0.42951758327E+03 -0.16511584109E+02 -0.62836840687E+03  0.11947367855E+04  0.92075574671E+03 0.  0.
         23    2    4    4    0    0  0.35482050926E+03  0.14590377626E+03  0.12394470027E+03  0.41590716356E+03  0.10213214114E+03 0.  0.
         23    2    4    4    0    0  0.74697074008E+02 -0.16241536037E+03 -0.75231310714E+03  0.77882962193E+03  0.92963254418E+02 0.  0.
          4    1    3    3  502    0 -0.63606803642E+02 -0.54797236392E+01 -0.26714642163E+01  0.63898275108E+02  0.00000000000E+00 0. -1.
         -3    1    3    3    0  502 -0.36591077963E+03  0.21991307748E+02 -0.21609198086E+03  0.42552327839E+03  0.00000000000E+00 0.  1.
         13    1    5    5    0    0 -0.11404432555E+00  0.19367372521E+02  0.45676668984E+00  0.19373093720E+02  0.00000000000E+00 0.  1.
        -13    1    5    5    0    0  0.35493455359E+03  0.12653640374E+03  0.12348793358E+03  0.39653406984E+03  0.00000000000E+00 0. -1.
          1    1    6    6  503    0  0.91879873817E+02 -0.13624182092E+03 -0.68727523954E+03  0.70664771978E+03  0.00000000000E+00 0. -1.
         -1    1    6    6    0  503 -0.17182799809E+02 -0.26173539449E+02 -0.65037867595E+02  0.72181902149E+02  0.00000000000E+00 0.  1.
<mgrwt>
<rscale>  0 0.14555950E+04</rscale>
<asrwt>0</asrwt>
<pdfrwt beam="1">  1        2 0.64386654E-01 0.14555950E+04</pdfrwt>
<pdfrwt beam="2">  1       -1 0.19471463E+00 0.14555950E+04</pdfrwt>
<totfact> 0.13717890E+01</totfact>
</mgrwt>
</event>
<event>
12    7  0.1729738E-007  0.1669584E+04  0.7818608E-02  0.8778904E-01
         -1   -1    0    0    0  501 -0.00000000000E+00  0.00000000000E+00  0.13247475475E+04  0.13247475475E+04  0.00000000000E+00 0.  1.
          2   -1    0    0  501    0  0.00000000000E+00 -0.00000000000E+00 -0.52604556219E+03  0.52604556219E+03  0.00000000000E+00 0. -1.
         24    2    1    2    0    0  0.28376988277E+03  0.34425068788E+03 -0.14377552502E+03  0.47524842665E+03  0.78458797865E+02 0.  0.
        254    2    1    2    0    0 -0.28376988277E+03 -0.34425068788E+03  0.94247751035E+03  0.13755446831E+04  0.89712063578E+03 0.  0.
         23    2    4    4    0    0 -0.21825867222E+03  0.27724456930E+03  0.26902549991E+03  0.45232449179E+03  0.87871082057E+02 0.  0.
         23    2    4    4    0    0 -0.65511210546E+02 -0.62149525718E+03  0.67345201045E+03  0.92322019129E+03  0.90828617821E+02 0.  0.
          4    1    3    3  502    0  0.18457817931E+03  0.22292838253E+03 -0.13197758763E+03  0.31809472120E+03  0.00000000000E+00 0. -1.
         -3    1    3    3    0  502  0.99191703458E+02  0.12132230535E+03 -0.11797937388E+02  0.15715370545E+03  0.00000000000E+00 0.  1.
         13    1    5    5    0    0 -0.93008831722E+02  0.14666486992E+03  0.81849107455E+02  0.19199089363E+03  0.00000000000E+00 0. -1.
        -13    1    5    5    0    0 -0.12524984050E+03  0.13057969938E+03  0.18717639245E+03  0.26033359815E+03  0.00000000000E+00 0.  1.
          2    1    6    6  503    0 -0.49258947791E+02 -0.54548844882E+03  0.62756864393E+03  0.83296248090E+03  0.00000000000E+00 0. -1.
         -2    1    6    6    0  503 -0.16252262755E+02 -0.76006808360E+02  0.45883366513E+02  0.90257710387E+02  0.00000000000E+00 0.  1.
<mgrwt>
<rscale>  0 0.16695839E+04</rscale>
<asrwt>0</asrwt>
<pdfrwt beam="1">  1        2 0.80930087E-01 0.16695839E+04</pdfrwt>
<pdfrwt beam="2">  1       -1 0.20380731E+00 0.16695839E+04</pdfrwt>
<totfact> 0.89608349E+00</totfact>
</mgrwt>
</event>
<event>
12    7  0.1729738E-007  0.1710528E+04  0.7818608E-02  0.8755383E-01
          2   -1    0    0  501    0  0.00000000000E+00  0.00000000000E+00  0.30775590068E+04  0.30775590068E+04  0.00000000000E+00 0. -1.
         -1   -1    0    0    0  501 -0.00000000000E+00 -0.00000000000E+00 -0.23768066957E+03  0.23768066957E+03  0.00000000000E+00 0.  1.
         24    2    1    2    0    0  0.22671867564E+03  0.24133563456E+03  0.27210654834E+02  0.34210851018E+03  0.81569397474E+02 0.  0.
        254    2    1    2    0    0 -0.22671867564E+03 -0.24133563456E+03  0.28126676824E+04  0.29731311662E+04  0.90485644903E+03 0.  0.
         23    2    4    4    0    0 -0.18679103418E+03 -0.49425089117E+03  0.25023523035E+04  0.25591383913E+04  0.90815315127E+02 0.  0.
         23    2    4    4    0    0 -0.39927641467E+02  0.25291525660E+03  0.31031537891E+03  0.41399277484E+03  0.97642407036E+02 0.  0.
          2    1    3    3  502    0  0.11424657372E+03  0.67121328792E+02 -0.30877148422E+01  0.13254088565E+03  0.00000000000E+00 0. -1.
         -1    1    3    3    0  502  0.11247210193E+03  0.17421430577E+03  0.30298369676E+02  0.20956762453E+03  0.00000000000E+00 0.  1.
         13    1    5    5    0    0 -0.35189844604E+02 -0.59341984702E+02  0.48469990212E+03  0.48958532599E+03  0.00000000000E+00 0. -1.
        -13    1    5    5    0    0 -0.15160118957E+03 -0.43490890646E+03  0.20176524013E+04  0.20695530653E+04  0.00000000000E+00 0.  1.
          1    1    6    6  503    0 -0.58475500801E+02  0.76370623440E+02  0.99456317546E+02  0.13835973193E+03  0.00000000000E+00 0. -1.
         -1    1    6    6    0  503  0.18547859333E+02  0.17654463316E+03  0.21085906137E+03  0.27563304291E+03  0.00000000000E+00 0.  1.
<mgrwt>
<rscale>  0 0.17105277E+04</rscale>
<asrwt>0</asrwt>
<pdfrwt beam="1">  1        2 0.47347059E+00 0.17105277E+04</pdfrwt>
<pdfrwt beam="2">  1       -1 0.36566259E-01 0.17105277E+04</pdfrwt>
<totfact> 0.12139461E+01</totfact>
</mgrwt>
</event>
<event>
12    7  0.1729738E-007  0.2249149E+04  0.7818608E-02  0.8498245E-01
         -1   -1    0    0    0  501 -0.00000000000E+00  0.00000000000E+00  0.32891399199E+03  0.32891399199E+03  0.00000000000E+00 0.  1.
          2   -1    0    0  501    0  0.00000000000E+00 -0.00000000000E+00 -0.38449810210E+04  0.38449810210E+04  0.00000000000E+00 0. -1.
         24    2    1    2    0    0  0.22188418352E+03 -0.88804735217E+03 -0.18831439898E+04  0.20960307277E+04  0.96191656909E+02 0.  0.
        254    2    1    2    0    0 -0.22188418352E+03  0.88804735217E+03 -0.16329230393E+04  0.20778642853E+04  0.90178802676E+03 0.  0.
         23    2    4    4    0    0 -0.39249919055E+03  0.98816292050E+03 -0.13440514301E+04  0.17160508035E+04  0.88512945480E+02 0.  0.
         23    2    4    4    0    0  0.17061500703E+03 -0.10011556832E+03 -0.28887160918E+03  0.36181348174E+03  0.91266540076E+02 0.  0.
          2    1    3    3  502    0  0.21364233788E+03 -0.75919663350E+03 -0.16692179254E+04  0.18461611683E+04  0.00000000000E+00 0. -1.
         -1    1    3    3    0  502  0.82418456450E+01 -0.12885071867E+03 -0.21392606431E+03  0.24986955940E+03  0.00000000000E+00 0.  1.
         13    1    5    5    0    0 -0.25589887182E+03  0.74576507754E+03 -0.97693332046E+03  0.12554077011E+04  0.00000000000E+00 0.  1.
        -13    1    5    5    0    0 -0.13660031873E+03  0.24239784296E+03 -0.36711810962E+03  0.46064310237E+03  0.00000000000E+00 0. -1.
          1    1    6    6  503    0  0.49246271260E+02  0.10904118643E+02 -0.44635768920E+02  0.67353150657E+02  0.00000000000E+00 0. -1.
         -1    1    6    6    0  503  0.12136873577E+03 -0.11101968697E+03 -0.24423584026E+03  0.29446033108E+03  0.00000000000E+00 0.  1.
<mgrwt>
<rscale>  0 0.22491492E+04</rscale>
<asrwt>0</asrwt>
<pdfrwt beam="1">  1        2 0.59153557E+00 0.22491492E+04</pdfrwt>
<pdfrwt beam="2">  1       -1 0.50602150E-01 0.22491492E+04</pdfrwt>
<totfact> 0.18532442E+00</totfact>
</mgrwt>
</event>
<event>
12    7  0.1729738E-007  0.1418627E+04  0.7818608E-02  0.8940445E-01
          2   -1    0    0  501    0  0.00000000000E+00  0.00000000000E+00  0.32522492018E+04  0.32522492018E+04  0.00000000000E+00 0. -1.
         -1   -1    0    0    0  501 -0.00000000000E+00 -0.00000000000E+00 -0.15470078370E+03  0.15470078370E+03  0.00000000000E+00 0.  1.
         24    2    1    2    0    0  0.34592323979E+03 -0.14781969861E+03  0.42001875682E+03  0.56937238239E+03  0.79092367602E+02 0.  0.
        254    2    1    2    0    0 -0.34592323979E+03  0.14781969861E+03  0.26775296613E+04  0.28375776031E+04  0.86091115428E+03 0.  0.
         23    2    4    4    0    0  0.17513920430E+03  0.12951575967E+03  0.17809581454E+04  0.17964126031E+04  0.88533903793E+02 0.  0.
         23    2    4    4    0    0 -0.52106244409E+03  0.18303938944E+02  0.89657151595E+03  0.10411650001E+04  0.91339856124E+02 0.  0.
          4    1    3    3  502    0  0.33848756941E+03 -0.13520232581E+03  0.37904491442E+03  0.52585982038E+03  0.00000000000E+00 0. -1.
         -3    1    3    3    0  502  0.74356703870E+01 -0.12617372803E+02  0.40973842406E+02  0.43512562003E+02  0.00000000000E+00 0.  1.
         13    1    5    5    0    0  0.16346978484E+03  0.86331834684E+02  0.12531808052E+04  0.12667429443E+04  0.00000000000E+00 0. -1.
        -13    1    5    5    0    0  0.11669419461E+02  0.43183924987E+02  0.52777734013E+03  0.52966965883E+03  0.00000000000E+00 0.  1.
          3    1    6    6  503    0 -0.51550414600E+03  0.20316264849E+02  0.85067639731E+03  0.99489075184E+03  0.00000000000E+00 0. -1.
         -3    1    6    6    0  503 -0.55582980904E+01 -0.20123259049E+01  0.45895118643E+02  0.46274248221E+02  0.00000000000E+00 0.  1.
<mgrwt>
<rscale>  0 0.14186268E+04</rscale>
<asrwt>0</asrwt>
<pdfrwt beam="1">  1        2 0.50034598E+00 0.14186268E+04</pdfrwt>
<pdfrwt beam="2">  1       -1 0.23800123E-01 0.14186268E+04</pdfrwt>
<totfact> 0.20464007E+01</totfact>
</mgrwt>
</event>
<event>
12    7  0.1729738E-007  0.1707399E+04  0.7818608E-02  0.8757156E-01
          2   -1    0    0  501    0  0.00000000000E+00  0.00000000000E+00  0.96940453180E+03  0.96940453180E+03  0.00000000000E+00 0. -1.
         -1   -1    0    0    0  501 -0.00000000000E+00 -0.00000000000E+00 -0.75180445319E+03  0.75180445319E+03  0.00000000000E+00 0.  1.
         24    2    1    2    0    0 -0.77992972239E+02 -0.37066052995E+03 -0.40680426181E+03  0.56262427070E+03  0.87087486881E+02 0.  0.
        254    2    1    2    0    0  0.77992972239E+02  0.37066052995E+03  0.62440434042E+03  0.11585847143E+04  0.89942516514E+03 0.  0.
         23    2    4    4    0    0  0.10921462202E+03 -0.28088553153E+03  0.16093083674E+03  0.35353793391E+03  0.90916560747E+02 0.  0.
         23    2    4    4    0    0 -0.31221649785E+02  0.65154606148E+03  0.46347350368E+03  0.80504678038E+03  0.88349127583E+02 0.  0.
          2    1    3    3  502    0 -0.35133499316E+02 -0.12651234093E+03 -0.84974785518E+02  0.15639836750E+03  0.00000000000E+00 0. -1.
         -1    1    3    3    0  502 -0.42859472923E+02 -0.24414818901E+03 -0.32182947630E+03  0.40622590320E+03  0.00000000000E+00 0.  1.
         13    1    5    5    0    0  0.85215225427E+02 -0.26720642028E+03  0.12211753555E+03  0.30589801924E+03  0.00000000000E+00 0.  1.
        -13    1    5    5    0    0  0.23999396596E+02 -0.13679111243E+02  0.38813301181E+02  0.47639914672E+02  0.00000000000E+00 0. -1.
          4    1    6    6  503    0 -0.34214367222E+02  0.60934910381E+03  0.45655754424E+03  0.76218222522E+03  0.00000000000E+00 0.  1.
         -4    1    6    6    0  503  0.29927174376E+01  0.42196957665E+02  0.69159594375E+01  0.42864555157E+02  0.00000000000E+00 0. -1.
<mgrwt>
<rscale>  0 0.17073988E+04</rscale>
<asrwt>0</asrwt>
<pdfrwt beam="1">  1        2 0.14913916E+00 0.17073988E+04</pdfrwt>
<pdfrwt beam="2">  1       -1 0.11566222E+00 0.17073988E+04</pdfrwt>
<totfact> 0.19371503E+01</totfact>
</mgrwt>
</event>
<event>
12    7  0.1729738E-007  0.1538316E+04  0.7818608E-02  0.8859365E-01
         -1   -1    0    0    0  501 -0.00000000000E+00  0.00000000000E+00  0.24362170725E+04  0.24362170725E+04  0.00000000000E+00 0.  1.
          2   -1    0    0  501    0  0.00000000000E+00 -0.00000000000E+00 -0.24283727160E+03  0.24283727160E+03  0.00000000000E+00 0. -1.
         24    2    1    2    0    0 -0.31736289756E+03  0.33298063967E+03  0.10513190403E+04  0.11502851031E+04  0.79301821062E+02 0.  0.
        254    2    1    2    0    0  0.31736289756E+03 -0.33298063967E+03  0.11420607607E+04  0.15287692411E+04  0.90622143880E+03 0.  0.
         23    2    4    4    0    0  0.57370805386E+03 -0.11243177893E+03  0.41998439730E+03  0.72595432079E+03  0.94026304357E+02 0.  0.
         23    2    4    4    0    0 -0.25634515630E+03 -0.22054886074E+03  0.72207636339E+03  0.80281492027E+03  0.93610269250E+02 0.  0.
          4    1    3    3  502    0 -0.40592916072E+02  0.12005545233E+02  0.11377573448E+03  0.12139536938E+03  0.00000000000E+00 0. -1.
         -3    1    3    3    0  502 -0.27676998149E+03  0.32097509444E+03  0.93754330578E+03  0.10288897337E+04  0.00000000000E+00 0.  1.
         13    1    5    5    0    0  0.52895597342E+03 -0.86930364314E+02  0.35461767171E+03  0.64273245067E+03  0.00000000000E+00 0.  1.
        -13    1    5    5    0    0  0.44752080447E+02 -0.25501414612E+02  0.65366725586E+02  0.83221870115E+02  0.00000000000E+00 0. -1.
          4    1    6    6  503    0 -0.67882272686E+02 -0.13304897339E+02  0.17542063407E+03  0.18856675767E+03  0.00000000000E+00 0. -1.
         -4    1    6    6    0  503 -0.18846288361E+03 -0.20724396340E+03  0.54665572931E+03  0.61424816260E+03  0.00000000000E+00 0.  1.
<mgrwt>
<rscale>  0 0.15383164E+04</rscale>
<asrwt>0</asrwt>
<pdfrwt beam="1">  1        2 0.37359582E-01 0.15383164E+04</pdfrwt>
<pdfrwt beam="2">  1       -1 0.37480261E+00 0.15383164E+04</pdfrwt>
<totfact> 0.16370262E+00</totfact>
</mgrwt>
</event>
<event>
12    7  0.1729738E-007  0.1501400E+04  0.7818608E-02  0.8883523E-01
         -1   -1    0    0    0  501 -0.00000000000E+00  0.00000000000E+00  0.16528361955E+03  0.16528361955E+03  0.00000000000E+00 0.  1.
          2   -1    0    0  501    0  0.00000000000E+00 -0.00000000000E+00 -0.34095959972E+04  0.34095959972E+04  0.00000000000E+00 0. -1.
         24    2    1    2    0    0 -0.16991966191E+03 -0.12782252025E+03 -0.20504990257E+04  0.20630803187E+04  0.80887939679E+02 0.  0.
        254    2    1    2    0    0  0.16991966191E+03  0.12782252025E+03 -0.11938133519E+04  0.15117992981E+04  0.90284855326E+03 0.  0.
         23    2    4    4    0    0  0.34828093681E+03 -0.36076845214E+02 -0.84399064903E+02  0.37243339753E+03  0.94774910868E+02 0.  0.
         23    2    4    4    0    0 -0.17836127490E+03  0.16389936547E+03 -0.11094142870E+04  0.11393659005E+04  0.93160338149E+02 0.  0.
          2    1    3    3  502    0 -0.13879570201E+03 -0.11445395853E+03 -0.19142035952E+04  0.19226386450E+04  0.00000000000E+00 0. -1.
         -1    1    3    3    0  502 -0.31123959909E+02 -0.13368561723E+02 -0.13629543046E+03  0.14044167361E+03  0.00000000000E+00 0.  1.
         13    1    5    5    0    0  0.14899273090E+03 -0.57289152247E+02 -0.60036884444E+02  0.17054415358E+03  0.00000000000E+00 0. -1.
        -13    1    5    5    0    0  0.19928820591E+03  0.21212307033E+02 -0.24362180459E+02  0.20188924395E+03  0.00000000000E+00 0.  1.
          2    1    6    6  503    0 -0.48049564306E+02  0.63466661831E+02 -0.20129201872E+03  0.21646074609E+03  0.00000000000E+00 0. -1.
         -2    1    6    6    0  503 -0.13031171059E+03  0.10043270364E+03 -0.90812226832E+03  0.92290515444E+03  0.00000000000E+00 0.  1.
<mgrwt>
<rscale>  0 0.15013998E+04</rscale>
<asrwt>0</asrwt>
<pdfrwt beam="1">  1        2 0.52455317E+00 0.15013998E+04</pdfrwt>
<pdfrwt beam="2">  1       -1 0.25428252E-01 0.15013998E+04</pdfrwt>
<totfact> 0.14234754E+01</totfact>
</mgrwt>
</event>
<event>
12    7  0.1729738E-007  0.2039140E+04  0.7818608E-02  0.8588537E-01
          2   -1    0    0  501    0  0.00000000000E+00  0.00000000000E+00  0.12016023906E+04  0.12016023906E+04  0.00000000000E+00 0. -1.
         -1   -1    0    0    0  501 -0.00000000000E+00 -0.00000000000E+00 -0.86511353646E+03  0.86511353646E+03  0.00000000000E+00 0.  1.
         24    2    1    2    0    0 -0.10597340204E+03 -0.78391824838E+03  0.39423568062E+03  0.88743007896E+03  0.79700634150E+02 0.  0.
        254    2    1    2    0    0  0.10597340204E+03  0.78391824838E+03 -0.57746826501E+02  0.11792858481E+04  0.87270970743E+03 0.  0.
         23    2    4    4    0    0  0.45839198164E+03  0.36486982668E+03  0.10159832798E+03  0.60274699840E+03  0.98633283310E+02 0.  0.
         23    2    4    4    0    0 -0.35241857959E+03  0.41904842170E+03 -0.15934515448E+03  0.57653884969E+03  0.84886582967E+02 0.  0.
          4    1    3    3  502    0 -0.67736091714E+02 -0.66899040833E+03  0.31377035570E+03  0.74201629407E+03  0.00000000000E+00 0. -1.
         -3    1    3    3    0  502 -0.38237310328E+02 -0.11492784006E+03  0.80465324923E+02  0.14541378489E+03  0.00000000000E+00 0.  1.
         13    1    5    5    0    0  0.36266014293E+03  0.28147202844E+03  0.11989426490E+03  0.47447182932E+03  0.00000000000E+00 0. -1.
        -13    1    5    5    0    0  0.95731838707E+02  0.83397798240E+02 -0.18295936917E+02  0.12827516907E+03  0.00000000000E+00 0.  1.
          4    1    6    6  503    0 -0.28109181864E+03  0.32757007801E+03 -0.16055005139E+03  0.46053347925E+03  0.00000000000E+00 0. -1.
         -4    1    6    6    0  503 -0.71326760957E+02  0.91478343694E+02  0.12048969028E+01  0.11600537044E+03  0.00000000000E+00 0.  1.
<mgrwt>
<rscale>  0 0.20391395E+04</rscale>
<asrwt>0</asrwt>
<pdfrwt beam="1">  1        2 0.18486191E+00 0.20391395E+04</pdfrwt>
<pdfrwt beam="2">  1       -1 0.13309439E+00 0.20391395E+04</pdfrwt>
<totfact> 0.95337826E+00</totfact>
</mgrwt>
</event>
<event>
12    7  0.1729738E-007  0.2653744E+04  0.7818608E-02  0.8350171E-01
          2   -1    0    0  501    0  0.00000000000E+00  0.00000000000E+00  0.25409673626E+04  0.25409673626E+04  0.00000000000E+00 0. -1.
         -1   -1    0    0    0  501 -0.00000000000E+00 -0.00000000000E+00 -0.69288162713E+03  0.69288162713E+03  0.00000000000E+00 0.  1.
         24    2    1    2    0    0 -0.11398683317E+02 -0.10968099649E+04  0.13357701080E+04  0.17303301506E+04  0.81477723623E+02 0.  0.
        254    2    1    2    0    0  0.11398683317E+02  0.10968099649E+04  0.51231562749E+03  0.15035188392E+04  0.89161626759E+03 0.  0.
         23    2    4    4    0    0 -0.25339389875E+03  0.53232642732E+03 -0.12249960536E+03  0.60885730128E+03  0.90117516929E+02 0.  0.
         23    2    4    4    0    0  0.26479258207E+03  0.56448353756E+03  0.63481523285E+03  0.89466153792E+03  0.93124174577E+02 0.  0.
          4    1    3    3  502    0  0.43478320474E+01 -0.68728418521E+01  0.20610242642E+02  0.22156752930E+02  0.00000000000E+00 0. -1.
         -3    1    3    3    0  502 -0.15746515364E+02 -0.10899371230E+04  0.13151598654E+04  0.17081733976E+04  0.00000000000E+00 0.  1.
         13    1    5    5    0    0 -0.21618967024E+03  0.44328559343E+03 -0.67522052411E+02  0.49779445399E+03  0.00000000000E+00 0.  1.
        -13    1    5    5    0    0 -0.37204228507E+02  0.89040833884E+02 -0.54977552952E+02  0.11106284728E+03  0.00000000000E+00 0. -1.
          4    1    6    6  503    0  0.27034740415E+02  0.44186520103E+02  0.94586066864E+02  0.10784178130E+03  0.00000000000E+00 0. -1.
         -4    1    6    6    0  503  0.23775784165E+03  0.52029701745E+03  0.54022916599E+03  0.78681975663E+03  0.00000000000E+00 0.  1.
<mgrwt>
<rscale>  0 0.26537442E+04</rscale>
<asrwt>0</asrwt>
<pdfrwt beam="1">  1        2 0.39091805E+00 0.26537442E+04</pdfrwt>
<pdfrwt beam="2">  1       -1 0.10659717E+00 0.26537442E+04</pdfrwt>
<totfact> 0.27110746E+00</totfact>
</mgrwt>
</event>
<event>
12    7  0.1729738E-007  0.1682998E+04  0.7818608E-02  0.8771121E-01
         -1   -1    0    0    0  501 -0.00000000000E+00  0.00000000000E+00  0.42977161446E+03  0.42977161446E+03  0.00000000000E+00 0.  1.
          2   -1    0    0  501    0  0.00000000000E+00 -0.00000000000E+00 -0.16476673133E+04  0.16476673133E+04  0.00000000000E+00 0. -1.
         24    2    1    2    0    0 -0.44320511499E+03  0.19660478289E+03 -0.85224806221E+03  0.98423669436E+03  0.85503779916E+02 0.  0.
        254    2    1    2    0    0  0.44320511499E+03 -0.19660478289E+03 -0.36564763666E+03  0.10932022334E+04  0.90901524429E+03 0.  0.
         23    2    4    4    0    0  0.66727870728E+03 -0.31220771047E+03 -0.17550838620E+03  0.76270425698E+03  0.90443696934E+02 0.  0.
         23    2    4    4    0    0 -0.22407359229E+03  0.11560292758E+03 -0.19013925046E+03  0.33049797644E+03  0.97483158738E+02 0.  0.
          4    1    3    3  502    0 -0.34957997052E+03  0.11933577032E+03 -0.67386329931E+03  0.76846530697E+03  0.00000000000E+00 0. -1.
         -1    1    3    3    0  502 -0.93625144474E+02  0.77269012567E+02 -0.17838476290E+03  0.21577138739E+03  0.00000000000E+00 0.  1.
         13    1    5    5    0    0  0.57627565858E+03 -0.27142865407E+03 -0.18282052658E+03  0.66271448895E+03  0.00000000000E+00 0. -1.
        -13    1    5    5    0    0  0.91003048703E+02 -0.40779056399E+02  0.73121403750E+01  0.99989768031E+02  0.00000000000E+00 0.  1.
          2    1    6    6  503    0 -0.14054504746E+03  0.89763197632E+02 -0.67556783380E+02  0.17992848856E+03  0.00000000000E+00 0. -1.
         -2    1    6    6    0  503 -0.83528544833E+02  0.25839729949E+02 -0.12258246708E+03  0.15056948788E+03  0.00000000000E+00 0.  1.
<mgrwt>
<rscale>  0 0.16829981E+04</rscale>
<asrwt>0</asrwt>
<pdfrwt beam="1">  1        2 0.25348728E+00 0.16829981E+04</pdfrwt>
<pdfrwt beam="2">  1       -1 0.66118709E-01 0.16829981E+04</pdfrwt>
<totfact> 0.26391519E+01</totfact>
</mgrwt>
</event>
<event>
12    7  0.1729738E-007  0.2117852E+04  0.7818608E-02  0.8553420E-01
         -1   -1    0    0    0  501 -0.00000000000E+00  0.00000000000E+00  0.82455093718E+03  0.82455093718E+03  0.00000000000E+00 0.  1.
          2   -1    0    0  501    0  0.00000000000E+00 -0.00000000000E+00 -0.13599207742E+04  0.13599207742E+04  0.00000000000E+00 0. -1.
         24    2    1    2    0    0  0.66839590820E+03  0.50954901977E+03 -0.12847300354E+02  0.84522835364E+03  0.88615027076E+02 0.  0.
        254    2    1    2    0    0 -0.66839590820E+03 -0.50954901977E+03 -0.52252253662E+03  0.13392433577E+04  0.90230243057E+03 0.  0.
         23    2    4    4    0    0 -0.58414984838E+03 -0.61633375641E+03 -0.69558314897E+03  0.11014095689E+04  0.90381284438E+02 0.  0.
         23    2    4    4    0    0 -0.84246059822E+02  0.10678473664E+03  0.17306061235E+03  0.23783378884E+03  0.90080835888E+02 0.  0.
          2    1    3    3  502    0  0.37531276763E+03  0.25607883892E+03 -0.44084338436E+02  0.45648600656E+03  0.00000000000E+00 0. -1.
         -1    1    3    3    0  502  0.29308314058E+03  0.25347018085E+03  0.31237038082E+02  0.38874234708E+03  0.00000000000E+00 0.  1.
         13    1    5    5    0    0 -0.26864862318E+03 -0.22016787684E+03 -0.29421490738E+03  0.45520148116E+03  0.00000000000E+00 0.  1.
        -13    1    5    5    0    0 -0.31550122521E+03 -0.39616587957E+03 -0.40136824159E+03  0.64620808770E+03  0.00000000000E+00 0. -1.
          2    1    6    6  503    0 -0.77161638486E+02  0.34984665403E+02  0.60389143571E+02  0.10404178934E+03  0.00000000000E+00 0. -1.
         -2    1    6    6    0  503 -0.70844213359E+01  0.71800071239E+02  0.11267146878E+03  0.13379199951E+03  0.00000000000E+00 0.  1.
<mgrwt>
<rscale>  0 0.21178517E+04</rscale>
<asrwt>0</asrwt>
<pdfrwt beam="1">  1        2 0.20921858E+00 0.21178517E+04</pdfrwt>
<pdfrwt beam="2">  1       -1 0.12685399E+00 0.21178517E+04</pdfrwt>
<totfact> 0.86324508E+00</totfact>
</mgrwt>
</event>
<event>
12    7  0.1729738E-007  0.2180600E+04  0.7818608E-02  0.8526547E-01
         -1   -1    0    0    0  501 -0.00000000000E+00  0.00000000000E+00  0.80688002990E+03  0.80688002990E+03  0.00000000000E+00 0.  1.
          2   -1    0    0  501    0  0.00000000000E+00 -0.00000000000E+00 -0.14732718909E+04  0.14732718909E+04  0.00000000000E+00 0. -1.
         24    2    1    2    0    0  0.16336328762E+03  0.87442591974E+03 -0.10015300917E+03  0.89821197039E+03  0.73796108631E+02 0.  0.
        254    2    1    2    0    0 -0.16336328762E+03 -0.87442591974E+03 -0.56623885184E+03  0.13819399504E+04  0.89320957024E+03 0.  0.
         23    2    4    4    0    0  0.22784326952E+02 -0.67005910614E+03 -0.77108710491E+03  0.10259278331E+04  0.91947072823E+02 0.  0.
         23    2    4    4    0    0 -0.18614761457E+03 -0.20436681361E+03  0.20484825306E+03  0.35601211727E+03  0.91460876588E+02 0.  0.
          4    1    3    3  502    0  0.19233860890E+02  0.19963915949E+03  0.26944968742E+01  0.20058164353E+03  0.00000000000E+00 0. -1.
         -3    1    3    3    0  502  0.14412942673E+03  0.67478676025E+03 -0.10284750604E+03  0.69763032687E+03  0.00000000000E+00 0.  1.
         13    1    5    5    0    0 -0.29759083536E+02 -0.13516518019E+03 -0.17924359762E+03  0.22645859727E+03  0.00000000000E+00 0. -1.
        -13    1    5    5    0    0  0.52543410488E+02 -0.53489392595E+03 -0.59184350729E+03  0.79946923588E+03  0.00000000000E+00 0.  1.
          4    1    6    6  503    0 -0.61142485262E+01 -0.43319365546E+02  0.81484416890E+01  0.44501107496E+02  0.00000000000E+00 0. -1.
         -4    1    6    6    0  503 -0.18003336605E+03 -0.16104744806E+03  0.19669981137E+03  0.31151100978E+03  0.00000000000E+00 0.  1.
<mgrwt>
<rscale>  0 0.21805996E+04</rscale>
<asrwt>0</asrwt>
<pdfrwt beam="1">  1        2 0.22665721E+00 0.21805996E+04</pdfrwt>
<pdfrwt beam="2">  1       -1 0.12413539E+00 0.21805996E+04</pdfrwt>
<totfact> 0.78062418E+00</totfact>
</mgrwt>
</event>
<event>
12    7  0.1729738E-007  0.1905611E+04  0.7818608E-02  0.8652069E-01
         -3   -1    0    0    0  501 -0.00000000000E+00  0.00000000000E+00  0.42164587467E+03  0.42164587467E+03  0.00000000000E+00 0.  1.
          2   -1    0    0  501    0  0.00000000000E+00 -0.00000000000E+00 -0.21530818638E+04  0.21530818638E+04  0.00000000000E+00 0. -1.
         24    2    1    2    0    0 -0.35003650838E+02 -0.54237138147E+02  0.31772566281E+03  0.33416844901E+03  0.80944627859E+02 0.  0.
        254    2    1    2    0    0  0.35003650838E+02  0.54237138147E+02 -0.20491616520E+04  0.22405592895E+04  0.90381166795E+03 0.  0.
         23    2    4    4    0    0 -0.55608480354E+02  0.38089771529E+03 -0.17006843417E+04  0.17461112223E+04  0.91661322255E+02 0.  0.
         23    2    4    4    0    0  0.90612131192E+02 -0.32666057714E+03 -0.34847731027E+03  0.49444806718E+03  0.90137474950E+02 0.  0.
          4    1    3    3  502    0 -0.19067433927E+02 -0.22366021149E+02  0.23063316041E+02  0.37359369446E+02  0.00000000000E+00 0. -1.
         -3    1    3    3    0  502 -0.15936216911E+02 -0.31871116998E+02  0.29466234677E+03  0.29680907956E+03  0.00000000000E+00 0.  1.
         13    1    5    5    0    0 -0.73081170297E+02  0.20056613799E+03 -0.98308902514E+03  0.10059978452E+04  0.00000000000E+00 0. -1.
        -13    1    5    5    0    0  0.17472689944E+02  0.18033157730E+03 -0.71759531656E+03  0.74011337713E+03  0.00000000000E+00 0.  1.
          4    1    6    6  503    0  0.10273601909E+03 -0.26859919244E+03 -0.31422444130E+03  0.42595447563E+03  0.00000000000E+00 0. -1.
         -4    1    6    6    0  503 -0.12123887901E+02 -0.58061384699E+02 -0.34252868970E+02  0.68493591552E+02  0.00000000000E+00 0.  1.
<mgrwt>
<rscale>  0 0.19056108E+04</rscale>
<asrwt>0</asrwt>
<pdfrwt beam="1">  1        2 0.33124336E+00 0.19056108E+04</pdfrwt>
<pdfrwt beam="2">  1       -3 0.64868597E-01 0.19056108E+04</pdfrwt>
<totfact> 0.75756749E+00</totfact>
</mgrwt>
</event>
<event>
12    7  0.1729738E-007  0.2197056E+04  0.7818608E-02  0.8519655E-01
          2   -1    0    0  501    0  0.00000000000E+00  0.00000000000E+00  0.21747293432E+04  0.21747293432E+04  0.00000000000E+00 0. -1.
         -1   -1    0    0    0  501 -0.00000000000E+00 -0.00000000000E+00 -0.55490289037E+03  0.55490289037E+03  0.00000000000E+00 0.  1.
         24    2    1    2    0    0 -0.44368215579E+03 -0.20964306192E+03  0.16205854861E+04  0.16958370062E+04  0.93604300471E+02 0.  0.
        254    2    1    2    0    0  0.44368215579E+03  0.20964306192E+03 -0.75903329227E+00  0.10337952274E+04  0.90990544958E+03 0.  0.
         23    2    4    4    0    0  0.23699512419E+02 -0.52414884794E+02  0.38396827090E+03  0.39897468281E+03  0.91870438242E+02 0.  0.
         23    2    4    4    0    0  0.41998264337E+03  0.26205794672E+03 -0.38472730420E+03  0.63482054454E+03  0.99610426211E+02 0.  0.
          2    1    3    3  502    0 -0.36152139793E+03 -0.20842410368E+03  0.13661555971E+04  0.14284675158E+04  0.00000000000E+00 0. -1.
         -1    1    3    3    0  502 -0.82160757860E+02 -0.12189582476E+01  0.25442988902E+03  0.26736949044E+03  0.00000000000E+00 0.  1.
         13    1    5    5    0    0  0.62038560359E+01 -0.69524912577E+01  0.31159729894E+03  0.31173659020E+03  0.00000000000E+00 0. -1.
        -13    1    5    5    0    0  0.17495656383E+02 -0.45462393536E+02  0.72370971970E+02  0.87238092610E+02  0.00000000000E+00 0.  1.
          4    1    6    6  503    0  0.39251106733E+03  0.20789749059E+03 -0.33526200141E+03  0.55649520587E+03  0.00000000000E+00 0. -1.
         -4    1    6    6    0  503  0.27471576042E+02  0.54160456130E+02 -0.49465302784E+02  0.78325338671E+02  0.00000000000E+00 0.  1.
<mgrwt>
<rscale>  0 0.21970558E+04</rscale>
<asrwt>0</asrwt>
<pdfrwt beam="1">  1        2 0.33457374E+00 0.21970558E+04</pdfrwt>
<pdfrwt beam="2">  1       -1 0.85369676E-01 0.21970558E+04</pdfrwt>
<totfact> 0.75289173E+00</totfact>
</mgrwt>
</event>
<event>
12    7  0.1729738E-007  0.1815416E+04  0.7818608E-02  0.8698144E-01
          2   -1    0    0  501    0  0.00000000000E+00  0.00000000000E+00  0.11190267559E+04  0.11190267559E+04  0.00000000000E+00 0. -1.
         -1   -1    0    0    0  501 -0.00000000000E+00 -0.00000000000E+00 -0.73629486606E+03  0.73629486606E+03  0.00000000000E+00 0.  1.
         24    2    1    2    0    0  0.42529672649E+03 -0.48463047877E+03  0.36915126815E+03  0.74747543503E+03  0.81871000301E+02 0.  0.
        254    2    1    2    0    0 -0.42529672649E+03  0.48463047877E+03  0.13580621672E+02  0.11078461869E+04  0.90077451897E+03 0.  0.
         23    2    4    4    0    0 -0.54722497990E+03  0.59508964232E+03  0.20514649575E+03  0.83918696809E+03  0.92535515711E+02 0.  0.
         23    2    4    4    0    0  0.12192825341E+03 -0.11045916355E+03 -0.19156587408E+03  0.26865921881E+03  0.91720041148E+02 0.  0.
          2    1    3    3  502    0  0.38191001025E+03 -0.43937164705E+03  0.35904364437E+03  0.68397005689E+03  0.00000000000E+00 0. -1.
         -1    1    3    3    0  502  0.43386716233E+02 -0.45258831721E+02  0.10107623773E+02  0.63505378139E+02  0.00000000000E+00 0.  1.
         13    1    5    5    0    0 -0.97805823642E+02  0.10072944740E+03  0.72585975438E+02  0.15805418230E+03  0.00000000000E+00 0. -1.
        -13    1    5    5    0    0 -0.44941915626E+03  0.49436019492E+03  0.13256052032E+03  0.68113278579E+03  0.00000000000E+00 0.  1.
          2    1    6    6  503    0  0.17559945659E+02  0.40686540509E+01  0.46730735048E+01  0.18621043293E+02  0.00000000000E+00 0. -1.
         -2    1    6    6    0  503  0.10436830775E+03 -0.11452781760E+03 -0.19623894759E+03  0.25003817552E+03  0.00000000000E+00 0.  1.
<mgrwt>
<rscale>  0 0.18154158E+04</rscale>
<asrwt>0</asrwt>
<pdfrwt beam="1">  1        2 0.17215796E+00 0.18154158E+04</pdfrwt>
<pdfrwt beam="2">  1       -1 0.11327613E+00 0.18154158E+04</pdfrwt>
<totfact> 0.16232205E+01</totfact>
</mgrwt>
</event>
<event>
12    7  0.1729738E-007  0.2644173E+04  0.7818608E-02  0.8353350E-01
         -1   -1    0    0    0  501 -0.00000000000E+00  0.00000000000E+00  0.10556718234E+04  0.10556718234E+04  0.00000000000E+00 0.  1.
          2   -1    0    0  501    0  0.00000000000E+00 -0.00000000000E+00 -0.16557350422E+04  0.16557350422E+04  0.00000000000E+00 0. -1.
         24    2    1    2    0    0 -0.51532733545E+03 -0.14325051180E+03  0.79617020005E+03  0.96249172586E+03  0.80127168332E+02 0.  0.
        254    2    1    2    0    0  0.51532733545E+03  0.14325051180E+03 -0.13962334188E+04  0.17489151397E+04  0.90727803578E+03 0.  0.
         23    2    4    4    0    0  0.38528520771E+03 -0.10169255642E+03 -0.13981440249E+04  0.14567265580E+04  0.91975448038E+02 0.  0.
         23    2    4    4    0    0  0.13004212774E+03  0.24494306822E+03  0.19106060910E+01  0.29218858170E+03  0.91991603973E+02 0.  0.
          2    1    3    3  502    0 -0.68044500745E+02 -0.22125687114E+01  0.14308310103E+03  0.15845416795E+03  0.00000000000E+00 0. -1.
         -1    1    3    3    0  502 -0.44728283471E+03 -0.14103794309E+03  0.65308709902E+03  0.80403755790E+03  0.00000000000E+00 0.  1.
         13    1    5    5    0    0  0.22384137580E+03 -0.67611159091E+02 -0.97258790329E+03  0.10003016845E+04  0.00000000000E+00 0.  1.
        -13    1    5    5    0    0  0.16144383191E+03 -0.34081397328E+02 -0.42555612164E+03  0.45642487352E+03  0.00000000000E+00 0. -1.
          3    1    6    6  503    0 -0.11867409681E+02  0.19442218591E+02  0.11627193159E+02  0.25573949579E+02  0.00000000000E+00 0. -1.
         -3    1    6    6    0  503  0.14190953742E+03  0.22550084963E+03 -0.97165870684E+01  0.26661463212E+03  0.00000000000E+00 0.  1.
<mgrwt>
<rscale>  0 0.26441731E+04</rscale>
<asrwt>0</asrwt>
<pdfrwt beam="1">  1        2 0.25472847E+00 0.26441731E+04</pdfrwt>
<pdfrwt beam="2">  1       -1 0.16241105E+00 0.26441731E+04</pdfrwt>
<totfact> 0.29189144E+00</totfact>
</mgrwt>
</event>
<event>
12    7  0.1729738E-007  0.2124982E+04  0.7818608E-02  0.8550318E-01
         -1   -1    0    0    0  501 -0.00000000000E+00  0.00000000000E+00  0.47221142349E+03  0.47221142349E+03  0.00000000000E+00 0.  1.
          2   -1    0    0  501    0  0.00000000000E+00 -0.00000000000E+00 -0.23906389163E+04  0.23906389163E+04  0.00000000000E+00 0. -1.
         24    2    1    2    0    0 -0.26508273799E+03  0.81986550965E+03 -0.61323025566E+03  0.10605972295E+04  0.79792386265E+02 0.  0.
        254    2    1    2    0    0  0.26508273799E+03 -0.81986550965E+03 -0.13051972372E+04  0.18022531103E+04  0.89561606384E+03 0.  0.
         23    2    4    4    0    0  0.48002421454E+03 -0.84959630998E+03 -0.88446885717E+03  0.13201270788E+04  0.90626752842E+02 0.  0.
         23    2    4    4    0    0 -0.21494147656E+03  0.29730800338E+02 -0.42072838001E+03  0.48212603154E+03  0.91374951200E+02 0.  0.
          4    1    3    3  502    0 -0.15250068238E+03  0.55275507381E+03 -0.44146017763E+03  0.72365856465E+03  0.00000000000E+00 0. -1.
         -3    1    3    3    0  502 -0.11258205560E+03  0.26711043583E+03 -0.17177007803E+03  0.33693866487E+03  0.00000000000E+00 0.  1.
         13    1    5    5    0    0  0.39925656670E+03 -0.76490290725E+03 -0.77097695413E+03  0.11571031619E+04  0.00000000000E+00 0.  1.
        -13    1    5    5    0    0  0.80767647848E+02 -0.84693402731E+02 -0.11349190304E+03  0.16302391684E+03  0.00000000000E+00 0. -1.
          3    1    6    6  503    0  0.16155983672E+01  0.13732411313E+02 -0.85800493834E+01  0.16272877003E+02  0.00000000000E+00 0. -1.
         -3    1    6    6    0  503 -0.21655707492E+03  0.15998389025E+02 -0.41214833063E+03  0.46585315453E+03  0.00000000000E+00 0.  1.
<mgrwt>
<rscale>  0 0.21249819E+04</rscale>
<asrwt>0</asrwt>
<pdfrwt beam="1">  1        2 0.36779060E+00 0.21249819E+04</pdfrwt>
<pdfrwt beam="2">  1       -1 0.72647912E-01 0.21249819E+04</pdfrwt>
<totfact> 0.80508723E+00</totfact>
</mgrwt>
</event>
<event>
12    7  0.1729738E-007  0.2666220E+04  0.7818608E-02  0.8346049E-01
          2   -1    0    0  501    0  0.00000000000E+00  0.00000000000E+00  0.22464398266E+04  0.22464398266E+04  0.00000000000E+00 0. -1.
         -1   -1    0    0    0  501 -0.00000000000E+00 -0.00000000000E+00 -0.79111045521E+03  0.79111045521E+03  0.00000000000E+00 0.  1.
         24    2    1    2    0    0  0.33353775746E+03 -0.74724964819E+03 -0.32334000838E+03  0.88330408609E+03  0.77768085530E+02 0.  0.
        254    2    1    2    0    0 -0.33353775746E+03  0.74724964819E+03  0.17786693798E+04  0.21542461957E+04  0.89860026531E+03 0.  0.
         23    2    4    4    0    0  0.29470315612E+03  0.23509105168E+03  0.44458098020E+03  0.59050236101E+03  0.94461831412E+02 0.  0.
         23    2    4    4    0    0 -0.62824091358E+03  0.51215859650E+03  0.13340883996E+04  0.15637438347E+04  0.92248843948E+02 0.  0.
          4    1    3    3  502    0  0.24940286011E+02 -0.63745500891E+02 -0.51198877439E+01  0.68641969674E+02  0.00000000000E+00 0. -1.
         -3    1    3    3    0  502  0.30859747145E+03 -0.68350414729E+03 -0.31822012063E+03  0.81466211642E+03  0.00000000000E+00 0.  1.
         13    1    5    5    0    0  0.28187509777E+03  0.23030103934E+03  0.38686482556E+03  0.53118408553E+03  0.00000000000E+00 0. -1.
        -13    1    5    5    0    0  0.12828058348E+02  0.47900123385E+01  0.57716154640E+02  0.59318275477E+02  0.00000000000E+00 0.  1.
          1    1    6    6  503    0 -0.94074919859E+02  0.10061731762E+03  0.28651614760E+03  0.31790790803E+03  0.00000000000E+00 0. -1.
         -1    1    6    6    0  503 -0.53416599372E+03  0.41154127888E+03  0.10475722520E+04  0.12458359267E+04  0.00000000000E+00 0.  1.
<mgrwt>
<rscale>  0 0.26662198E+04</rscale>
<asrwt>0</asrwt>
<pdfrwt beam="1">  1        2 0.34560612E+00 0.26662198E+04</pdfrwt>
<pdfrwt beam="2">  1       -1 0.12170930E+00 0.26662198E+04</pdfrwt>
<totfact> 0.29079358E+00</totfact>
</mgrwt>
</event>
<event>
12    7  0.1729738E-007  0.1536581E+04  0.7818608E-02  0.8860485E-01
         -1   -1    0    0    0  501 -0.00000000000E+00  0.00000000000E+00  0.15710375150E+03  0.15710375150E+03  0.00000000000E+00 0.  1.
          2   -1    0    0  501    0  0.00000000000E+00 -0.00000000000E+00 -0.37572006688E+04  0.37572006688E+04  0.00000000000E+00 0. -1.
         24    2    1    2    0    0 -0.15491511774E+03  0.36554356643E+03 -0.42133282583E+03  0.58433118631E+03  0.79377531543E+02 0.  0.
        254    2    1    2    0    0  0.15491511774E+03 -0.36554356643E+03 -0.31787640914E+04  0.33299732340E+04  0.90915334087E+03 0.  0.
         23    2    4    4    0    0  0.22504484240E+03  0.19498710481E+03 -0.19481347911E+04  0.19728866641E+04  0.91583146111E+02 0.  0.
         23    2    4    4    0    0 -0.70129724662E+02 -0.56053067124E+03 -0.12306293003E+04  0.13570865699E+04  0.90125866251E+02 0.  0.
          2    1    3    3  502    0 -0.10689146986E+02  0.41500372963E+02 -0.16055303422E+02  0.45763649191E+02  0.00000000000E+00 0. -1.
         -1    1    3    3    0  502 -0.14422597075E+03  0.32404319346E+03 -0.40527752241E+03  0.53856753712E+03  0.00000000000E+00 0.  1.
         13    1    5    5    0    0  0.18794663220E+03  0.19818462406E+03 -0.16532158950E+04  0.16756264134E+04  0.00000000000E+00 0. -1.
        -13    1    5    5    0    0  0.37098210203E+02 -0.31975192493E+01 -0.29491889615E+03  0.29726025068E+03  0.00000000000E+00 0.  1.
          3    1    6    6  503    0 -0.81827848187E+02 -0.51006710765E+03 -0.11567044817E+04  0.12668186567E+04  0.00000000000E+00 0. -1.
         -3    1    6    6    0  503  0.11698123525E+02 -0.50463563589E+02 -0.73924818617E+02  0.90267913190E+02  0.00000000000E+00 0.  1.
<mgrwt>
<rscale>  0 0.15365810E+04</rscale>
<asrwt>0</asrwt>
<pdfrwt beam="1">  1        2 0.57803086E+00 0.15365810E+04</pdfrwt>
<pdfrwt beam="2">  1       -1 0.24169808E-01 0.15365810E+04</pdfrwt>
<totfact> 0.87695025E+00</totfact>
</mgrwt>
</event>
<event>
12    7  0.1729738E-007  0.1236745E+04  0.7818608E-02  0.9081288E-01
         -1   -1    0    0    0  501 -0.00000000000E+00  0.00000000000E+00  0.20134728452E+03  0.20134728452E+03  0.00000000000E+00 0.  1.
          2   -1    0    0  501    0  0.00000000000E+00 -0.00000000000E+00 -0.18991299521E+04  0.18991299521E+04  0.00000000000E+00 0. -1.
         24    2    1    2    0    0  0.24354297335E+03 -0.10909143396E+01 -0.15096362970E+03  0.29686777242E+03  0.77627874177E+02 0.  0.
        254    2    1    2    0    0 -0.24354297335E+03  0.10909143396E+01 -0.15468190379E+04  0.18036094642E+04  0.89501038732E+03 0.  0.
         23    2    4    4    0    0  0.29235763234E+03 -0.16451417671E+03 -0.72696269568E+03  0.80608445939E+03  0.93592175049E+02 0.  0.
         23    2    4    4    0    0 -0.53590060569E+03  0.16560509105E+03 -0.81985634218E+03  0.99752500478E+03  0.90979162467E+02 0.  0.
          4    1    3    3  502    0  0.11631016395E+03 -0.38747738624E+02 -0.80092876338E+02  0.14643875964E+03  0.00000000000E+00 0. -1.
         -3    1    3    3    0  502  0.12723280941E+03  0.37656824284E+02 -0.70870753357E+02  0.15042901278E+03  0.00000000000E+00 0.  1.
         13    1    5    5    0    0 -0.54143845767E+01  0.17912019198E+01 -0.48833011297E+01  0.75080353346E+01  0.00000000000E+00 0. -1.
        -13    1    5    5    0    0  0.29777201692E+03 -0.16630537863E+03 -0.72207939455E+03  0.79857642405E+03  0.00000000000E+00 0.  1.
          1    1    6    6  503    0 -0.21428194445E+03  0.10727148890E+03 -0.30868657931E+03  0.39078296828E+03  0.00000000000E+00 0. -1.
         -1    1    6    6    0  503 -0.32161866124E+03  0.58333602143E+02 -0.51116976286E+03  0.60674203651E+03  0.00000000000E+00 0.  1.
<mgrwt>
<rscale>  0 0.12367452E+04</rscale>
<asrwt>0</asrwt>
<pdfrwt beam="1">  1        2 0.29217384E+00 0.12367452E+04</pdfrwt>
<pdfrwt beam="2">  1       -1 0.30976505E-01 0.12367452E+04</pdfrwt>
<totfact> 0.82260973E+01</totfact>
</mgrwt>
</event>
<event>
12    7  0.1729738E-007  0.1174191E+04  0.7818608E-02  0.9135752E-01
         -1   -1    0    0    0  501 -0.00000000000E+00  0.00000000000E+00  0.83371562639E+02  0.83371562639E+02  0.00000000000E+00 0.  1.
          2   -1    0    0  501    0  0.00000000000E+00 -0.00000000000E+00 -0.41342749663E+04  0.41342749663E+04  0.00000000000E+00 0. -1.
         24    2    1    2    0    0  0.92836833424E+02  0.63343340240E+02 -0.10428671125E+03  0.17262253686E+03  0.79320651130E+02 0.  0.
        254    2    1    2    0    0 -0.92836833424E+02 -0.63343340240E+02 -0.39466166924E+04  0.40450239921E+04  0.87966170956E+03 0.  0.
         23    2    4    4    0    0  0.30472643066E+03 -0.23153108058E+03 -0.25536489738E+04  0.25837813558E+04  0.91313604427E+02 0.  0.
         23    2    4    4    0    0 -0.39756326408E+03  0.16818774034E+03 -0.13929677186E+04  0.14612426363E+04  0.92343446180E+02 0.  0.
          2    1    3    3  502    0  0.13556380827E+02 -0.11357833368E+02 -0.45557087270E+02  0.48869459179E+02  0.00000000000E+00 0. -1.
         -1    1    3    3    0  502  0.79280452597E+02  0.74701173608E+02 -0.58729623975E+02  0.12375307768E+03  0.00000000000E+00 0.  1.
         13    1    5    5    0    0  0.29607757937E+03 -0.22885926775E+03 -0.25399020101E+04  0.25673217014E+04  0.00000000000E+00 0.  1.
        -13    1    5    5    0    0  0.86488512895E+01 -0.26718128296E+01 -0.13746963646E+02  0.16459654368E+02  0.00000000000E+00 0. -1.
          2    1    6    6  503    0 -0.49291919277E+02  0.22245193881E+02 -0.30118848361E+03  0.30600497482E+03  0.00000000000E+00 0. -1.
         -2    1    6    6    0  503 -0.34827134480E+03  0.14594254646E+03 -0.10917792350E+04  0.11552376615E+04  0.00000000000E+00 0.  1.
<mgrwt>
<rscale>  0 0.11741907E+04</rscale>
<asrwt>0</asrwt>
<pdfrwt beam="1">  1        2 0.63604219E+00 0.11741907E+04</pdfrwt>
<pdfrwt beam="2">  1       -1 0.12826397E-01 0.11741907E+04</pdfrwt>
<totfact> 0.13241476E+01</totfact>
</mgrwt>
</event>
<event>
12    7  0.1729738E-007  0.1724001E+04  0.7818608E-02  0.8747793E-01
         -1   -1    0    0    0  501 -0.00000000000E+00  0.00000000000E+00  0.55126533211E+03  0.55126533211E+03  0.00000000000E+00 0.  1.
          2   -1    0    0  501    0  0.00000000000E+00 -0.00000000000E+00 -0.13478899721E+04  0.13478899721E+04  0.00000000000E+00 0. -1.
         24    2    1    2    0    0  0.30314564453E+03 -0.12169937807E+03  0.29459789377E+03  0.44695116908E+03  0.79179594028E+02 0.  0.
        254    2    1    2    0    0 -0.30314564453E+03  0.12169937807E+03 -0.10912225337E+04  0.14522041351E+04  0.90078977097E+03 0.  0.
         23    2    4    4    0    0  0.28578294154E+03 -0.10924999589E+02 -0.58894020925E+03  0.66138919800E+03  0.93775561096E+02 0.  0.
         23    2    4    4    0    0 -0.58892858607E+03  0.13262437765E+03 -0.50228232448E+03  0.79081493712E+03  0.93137673559E+02 0.  0.
          4    1    3    3  502    0  0.95158980402E+02 -0.72679220561E+01  0.57397947052E+02  0.11136686477E+03  0.00000000000E+00 0. -1.
         -3    1    3    3    0  502  0.20798666413E+03 -0.11443145601E+03  0.23719994672E+03  0.33558430431E+03  0.00000000000E+00 0.  1.
         13    1    5    5    0    0  0.19792215960E+03 -0.17195352344E+02 -0.30412530801E+03  0.36326445515E+03  0.00000000000E+00 0.  1.
        -13    1    5    5    0    0  0.87860781941E+02  0.62703527541E+01 -0.28481490124E+03  0.29812474285E+03  0.00000000000E+00 0. -1.
          3    1    6    6  503    0 -0.24765626630E+03  0.23875717208E+02 -0.16292936383E+03  0.29740486497E+03  0.00000000000E+00 0. -1.
         -3    1    6    6    0  503 -0.34127231978E+03  0.10874866045E+03 -0.33935296065E+03  0.49341007215E+03  0.00000000000E+00 0.  1.
<mgrwt>
<rscale>  0 0.17240012E+04</rscale>
<asrwt>0</asrwt>
<pdfrwt beam="1">  1        2 0.20736769E+00 0.17240012E+04</pdfrwt>
<pdfrwt beam="2">  1       -1 0.84810052E-01 0.17240012E+04</pdfrwt>
<totfact> 0.23094732E+01</totfact>
</mgrwt>
</event>
<event>
12    7  0.1729738E-007  0.2058745E+04  0.7818608E-02  0.8579637E-01
          2   -1    0    0  501    0  0.00000000000E+00  0.00000000000E+00  0.27849681451E+04  0.27849681451E+04  0.00000000000E+00 0. -1.
         -1   -1    0    0    0  501 -0.00000000000E+00 -0.00000000000E+00 -0.38047395767E+03  0.38047395767E+03  0.00000000000E+00 0.  1.
         24    2    1    2    0    0 -0.75998463476E+03  0.37792024446E+03  0.11100538809E+04  0.13996610050E+04  0.80193231508E+02 0.  0.
        254    2    1    2    0    0  0.75998463476E+03 -0.37792024446E+03  0.12944403066E+04  0.17657810978E+04  0.84970984555E+03 0.  0.
         23    2    4    4    0    0  0.95547665096E+02 -0.50042078547E+03  0.60573132423E+03  0.79666205329E+03  0.90607235733E+02 0.  0.
         23    2    4    4    0    0  0.66443696966E+03  0.12250054101E+03  0.68870898237E+03  0.96911904447E+03  0.91590342040E+02 0.  0.
          4    1    3    3  502    0 -0.74895025464E+03  0.36297106149E+03  0.10705516718E+04  0.13560071377E+04  0.00000000000E+00 0. -1.
         -3    1    3    3    0  502 -0.11034380114E+02  0.14949182973E+02  0.39502209070E+02  0.43653867382E+02  0.00000000000E+00 0.  1.
         13    1    5    5    0    0  0.10757779500E+03 -0.35812803732E+03  0.41919145077E+03  0.56173850276E+03  0.00000000000E+00 0.  1.
        -13    1    5    5    0    0 -0.12030129902E+02 -0.14229274816E+03  0.18653987346E+03  0.23492355053E+03  0.00000000000E+00 0. -1.
          3    1    6    6  503    0  0.21970208630E+02 -0.48093482949E+01  0.65197185299E+01  0.23416375210E+02  0.00000000000E+00 0. -1.
         -3    1    6    6    0  503  0.64246676103E+03  0.12730988930E+03  0.68218926384E+03  0.94570266926E+03  0.00000000000E+00 0.  1.
<mgrwt>
<rscale>  0 0.20587451E+04</rscale>
<asrwt>0</asrwt>
<pdfrwt beam="1">  1        2 0.42845663E+00 0.20587451E+04</pdfrwt>
<pdfrwt beam="2">  1       -1 0.58534457E-01 0.20587451E+04</pdfrwt>
<totfact> 0.73586383E+00</totfact>
</mgrwt>
</event>
<event>
12    7  0.1729738E-007  0.2747320E+04  0.7818608E-02  0.8319813E-01
          2   -1    0    0  501    0  0.00000000000E+00  0.00000000000E+00  0.31466102669E+04  0.31466102669E+04  0.00000000000E+00 0. -1.
         -1   -1    0    0    0  501 -0.00000000000E+00 -0.00000000000E+00 -0.59967444717E+03  0.59967444717E+03  0.00000000000E+00 0.  1.
         24    2    1    2    0    0  0.26190996930E+03 -0.22955559289E+03 -0.46383368954E+03  0.58556039608E+03  0.80291242688E+02 0.  0.
        254    2    1    2    0    0 -0.26190996930E+03  0.22955559289E+03  0.30107695092E+04  0.31607243180E+04  0.89674554595E+03 0.  0.
         23    2    4    4    0    0 -0.35495921056E+03 -0.80630420953E+02  0.48886247501E+03  0.61649141554E+03  0.92616629285E+02 0.  0.
         23    2    4    4    0    0  0.93049241263E+02  0.31018601385E+03  0.25219070342E+04  0.25442329024E+04  0.90732838611E+02 0.  0.
          4    1    3    3  502    0  0.75320527571E+02 -0.11130924257E+03 -0.14532544921E+03  0.19794548629E+03  0.00000000000E+00 0. -1.
         -3    1    3    3    0  502  0.18658944173E+03 -0.11824635033E+03 -0.31850824033E+03  0.38761490978E+03  0.00000000000E+00 0.  1.
         13    1    5    5    0    0 -0.25015442254E+03 -0.91462534206E+02  0.38807172777E+03  0.47068279783E+03  0.00000000000E+00 0. -1.
        -13    1    5    5    0    0 -0.10480478802E+03  0.10832113252E+02  0.10079074724E+03  0.14580861771E+03  0.00000000000E+00 0.  1.
          1    1    6    6  503    0  0.12637469295E+02  0.56741872191E+02  0.24252619359E+03  0.24939587059E+03  0.00000000000E+00 0. -1.
         -1    1    6    6    0  503  0.80411771968E+02  0.25344414166E+03  0.22793808406E+04  0.22948370318E+04  0.00000000000E+00 0.  1.
<mgrwt>
<rscale>  0 0.27473200E+04</rscale>
<asrwt>0</asrwt>
<pdfrwt beam="1">  1        2 0.48409388E+00 0.27473200E+04</pdfrwt>
<pdfrwt beam="2">  1       -1 0.92257609E-01 0.27473200E+04</pdfrwt>
<totfact> 0.15946544E+00</totfact>
</mgrwt>
</event>
<event>
12    7  0.1729738E-007  0.1211046E+04  0.7818608E-02  0.9103243E-01
         -1   -1    0    0    0  501 -0.00000000000E+00  0.00000000000E+00  0.10076079999E+04  0.10076079999E+04  0.00000000000E+00 0.  1.
          2   -1    0    0  501    0  0.00000000000E+00 -0.00000000000E+00 -0.36388962933E+03  0.36388962933E+03  0.00000000000E+00 0. -1.
         24    2    1    2    0    0  0.40027877599E+02 -0.29693268496E+03  0.21905037844E+03  0.37933942708E+03  0.78384196461E+02 0.  0.
        254    2    1    2    0    0 -0.40027877599E+02  0.29693268496E+03  0.42466799212E+03  0.99215820214E+03  0.84514125693E+03 0.  0.
         23    2    4    4    0    0  0.14318484494E+03  0.54138685058E+03  0.34119930039E+03  0.66221953958E+03  0.92282903132E+02 0.  0.
         23    2    4    4    0    0 -0.18321272254E+03 -0.24445416562E+03  0.83468691734E+02  0.32993866256E+03  0.92562183233E+02 0.  0.
          4    1    3    3  502    0  0.47872495487E+02 -0.14687562350E+03  0.77188587779E+02  0.17269135093E+03  0.00000000000E+00 0. -1.
         -3    1    3    3    0  502 -0.78446178878E+01 -0.15005706146E+03  0.14186179067E+03  0.20664807614E+03  0.00000000000E+00 0.  1.
         13    1    5    5    0    0 -0.12699943923E+02  0.50665048373E+02  0.39148539262E+02  0.65275139438E+02  0.00000000000E+00 0.  1.
        -13    1    5    5    0    0  0.15588478886E+03  0.49072180221E+03  0.30205076113E+03  0.59694440014E+03  0.00000000000E+00 0. -1.
          4    1    6    6  503    0 -0.16586714898E+03 -0.24851868576E+03  0.88149640257E+02  0.31151855059E+03  0.00000000000E+00 0. -1.
         -4    1    6    6    0  503 -0.17345573560E+02  0.40645201417E+01 -0.46809485224E+01  0.18420111975E+02  0.00000000000E+00 0.  1.
<mgrwt>
<rscale>  0 0.12110460E+04</rscale>
<asrwt>0</asrwt>
<pdfrwt beam="1">  1        2 0.55983020E-01 0.12110460E+04</pdfrwt>
<pdfrwt beam="2">  1       -1 0.15501661E+00 0.12110460E+04</pdfrwt>
<totfact> 0.31862006E+01</totfact>
</mgrwt>
</event>
<event>
12    7  0.1729738E-007  0.1882398E+04  0.7818608E-02  0.8663668E-01
          2   -1    0    0  501    0  0.00000000000E+00  0.00000000000E+00  0.91028987747E+03  0.91028987747E+03  0.00000000000E+00 0. -1.
         -1   -1    0    0    0  501 -0.00000000000E+00 -0.00000000000E+00 -0.97315766512E+03  0.97315766512E+03  0.00000000000E+00 0.  1.
         24    2    1    2    0    0 -0.17520697104E+03  0.57488377077E+03 -0.41687957690E+03  0.73579227967E+03  0.80080363298E+02 0.  0.
        254    2    1    2    0    0  0.17520697104E+03 -0.57488377077E+03  0.35401178925E+03  0.11476552629E+04  0.91137227464E+03 0.  0.
         23    2    4    4    0    0  0.34970047819E+03 -0.13215131060E+03  0.51010903625E+03  0.63883606310E+03  0.90254602710E+02 0.  0.
         23    2    4    4    0    0 -0.17449350715E+03 -0.44273246017E+03 -0.15609724700E+03  0.50881919982E+03  0.89836586429E+02 0.  0.
          2    1    3    3  502    0 -0.17720400988E+03  0.50710397403E+03 -0.35410033915E+03  0.64338382929E+03  0.00000000000E+00 0. -1.
         -1    1    3    3    0  502  0.19970388419E+01  0.67779796741E+02 -0.62779237747E+02  0.92408450385E+02  0.00000000000E+00 0.  1.
         13    1    5    5    0    0  0.31965337961E+03 -0.14333091860E+03  0.48407619457E+03  0.59753811382E+03  0.00000000000E+00 0. -1.
        -13    1    5    5    0    0  0.30047098581E+02  0.11179608003E+02  0.26032841679E+02  0.41297949272E+02  0.00000000000E+00 0.  1.
          1    1    6    6  503    0 -0.10673338113E+03 -0.36207356429E+03 -0.13811620393E+03  0.40195194537E+03  0.00000000000E+00 0. -1.
         -1    1    6    6    0  503 -0.67760126019E+02 -0.80658895887E+02 -0.17981043067E+02  0.10686725445E+03  0.00000000000E+00 0.  1.
<mgrwt>
<rscale>  0 0.18823980E+04</rscale>
<asrwt>0</asrwt>
<pdfrwt beam="1">  1        2 0.14004460E+00 0.18823980E+04</pdfrwt>
<pdfrwt beam="2">  1       -1 0.14971656E+00 0.18823980E+04</pdfrwt>
<totfact> 0.10830229E+01</totfact>
</mgrwt>
</event>
<event>
12    7  0.1729738E-007  0.1380866E+04  0.7818608E-02  0.8967786E-01
          2   -1    0    0  501    0  0.00000000000E+00  0.00000000000E+00  0.10572488797E+04  0.10572488797E+04  0.00000000000E+00 0. -1.
         -1   -1    0    0    0  501 -0.00000000000E+00 -0.00000000000E+00 -0.45088495088E+03  0.45088495088E+03  0.00000000000E+00 0.  1.
         24    2    1    2    0    0  0.36738927903E+03  0.74191520382E+01  0.32808975773E+03  0.49943307046E+03  0.82222725416E+02 0.  0.
        254    2    1    2    0    0 -0.36738927903E+03 -0.74191520382E+01  0.27827417106E+03  0.10087007601E+04  0.89722393134E+03 0.  0.
         23    2    4    4    0    0 -0.40373643817E+03 -0.39134752959E+03  0.21034684179E+03  0.60644237437E+03  0.85851960666E+02 0.  0.
         23    2    4    4    0    0  0.36347159141E+02  0.38392837755E+03  0.67927329268E+02  0.40225838573E+03  0.92062868522E+02 0.  0.
          4    1    3    3  502    0  0.26673618433E+03  0.16421442338E+02  0.28151934683E+03  0.38816362328E+03  0.00000000000E+00 0. -1.
         -3    1    3    3    0  502  0.10065309470E+03 -0.90022903002E+01  0.46570410905E+02  0.11126944718E+03  0.00000000000E+00 0.  1.
         13    1    5    5    0    0 -0.50656246777E+02 -0.94576795736E+02  0.32450099415E+02  0.11208851226E+03  0.00000000000E+00 0.  1.
        -13    1    5    5    0    0 -0.35308019140E+03 -0.29677073386E+03  0.17789674237E+03  0.49435386210E+03  0.00000000000E+00 0. -1.
          4    1    6    6  503    0  0.23993117581E+02  0.20783912631E+03 -0.96495494277E+01  0.20944184377E+03  0.00000000000E+00 0. -1.
         -4    1    6    6    0  503  0.12354041560E+02  0.17608925124E+03  0.77576878696E+02  0.19281654196E+03  0.00000000000E+00 0.  1.
<mgrwt>
<rscale>  0 0.13808658E+04</rscale>
<asrwt>0</asrwt>
<pdfrwt beam="1">  1        2 0.16265367E+00 0.13808658E+04</pdfrwt>
<pdfrwt beam="2">  1       -1 0.69366916E-01 0.13808658E+04</pdfrwt>
<totfact> 0.54141690E+01</totfact>
</mgrwt>
</event>
<event>
12    7  0.1729738E-007  0.1626858E+04  0.7818608E-02  0.8804216E-01
         -3   -1    0    0    0  501 -0.00000000000E+00  0.00000000000E+00  0.23931884553E+03  0.23931884553E+03  0.00000000000E+00 0.  1.
          2   -1    0    0  501    0  0.00000000000E+00 -0.00000000000E+00 -0.27647927211E+04  0.27647927211E+04  0.00000000000E+00 0. -1.
         24    2    1    2    0    0  0.45449770662E+02  0.54663795092E+03 -0.78818108481E+03  0.96354293600E+03  0.79415590561E+02 0.  0.
        254    2    1    2    0    0 -0.45449770662E+02 -0.54663795092E+03 -0.17372927908E+04  0.20405686307E+04  0.91916014081E+03 0.  0.
         23    2    4    4    0    0 -0.46876582788E+03 -0.31500709340E+03 -0.10464684361E+04  0.11926095449E+04  0.90832089388E+02 0.  0.
         23    2    4    4    0    0  0.42331605722E+03 -0.23163085752E+03 -0.69082435464E+03  0.84795908575E+03  0.94588496597E+02 0.  0.
          2    1    3    3  502    0  0.42891881291E+02  0.13770056104E+03 -0.17991768348E+03  0.23058952886E+03  0.00000000000E+00 0. -1.
         -1    1    3    3    0  502  0.25578893718E+01  0.40893738988E+03 -0.60826340133E+03  0.73295340714E+03  0.00000000000E+00 0.  1.
         13    1    5    5    0    0 -0.38567197830E+03 -0.26417462849E+03 -0.78582636238E+03  0.91435998435E+03  0.00000000000E+00 0. -1.
        -13    1    5    5    0    0 -0.83093849586E+02 -0.50832464916E+02 -0.26064207377E+03  0.27824956055E+03  0.00000000000E+00 0.  1.
          4    1    6    6  503    0  0.27501639270E+03 -0.19976447386E+03 -0.48665781456E+03  0.59361240700E+03  0.00000000000E+00 0. -1.
         -4    1    6    6    0  503  0.14829966452E+03 -0.31866383660E+02 -0.20416654008E+03  0.25434667875E+03  0.00000000000E+00 0.  1.
<mgrwt>
<rscale>  0 0.16268583E+04</rscale>
<asrwt>0</asrwt>
<pdfrwt beam="1">  1        2 0.42535272E+00 0.16268583E+04</pdfrwt>
<pdfrwt beam="2">  1       -3 0.36818284E-01 0.16268583E+04</pdfrwt>
<totfact> 0.11044079E+01</totfact>
</mgrwt>
</event>
<event>
12    7  0.1729738E-007  0.1528127E+04  0.7818608E-02  0.8865961E-01
          2   -1    0    0  501    0  0.00000000000E+00  0.00000000000E+00  0.14269028881E+04  0.14269028881E+04  0.00000000000E+00 0. -1.
         -1   -1    0    0    0  501 -0.00000000000E+00 -0.00000000000E+00 -0.40913300610E+03  0.40913300610E+03  0.00000000000E+00 0.  1.
         24    2    1    2    0    0 -0.23982999909E+02  0.35603769003E+03  0.74511193313E+03  0.82928559155E+03  0.72005405625E+02 0.  0.
        254    2    1    2    0    0  0.23982999909E+02 -0.35603769003E+03  0.27265794886E+03  0.10067503026E+04  0.90103595588E+03 0.  0.
         23    2    4    4    0    0  0.41177615133E+03 -0.25423799525E+03  0.32807565494E+03  0.59147128113E+03  0.89487898666E+02 0.  0.
         23    2    4    4    0    0 -0.38779315142E+03 -0.10179969478E+03 -0.55417706085E+02  0.41527902151E+03  0.92945346370E+02 0.  0.
          4    1    3    3  502    0 -0.22073171413E+01  0.33026582285E+03  0.67876384881E+03  0.75485147442E+03  0.00000000000E+00 0. -1.
         -3    1    3    3    0  502 -0.21775682768E+02  0.25771867187E+02  0.66348084329E+02  0.74434117126E+02  0.00000000000E+00 0.  1.
         13    1    5    5    0    0  0.13567619806E+03 -0.40457008889E+02  0.11505005694E+03  0.18243167458E+03  0.00000000000E+00 0.  1.
        -13    1    5    5    0    0  0.27609995327E+03 -0.21378098636E+03  0.21302559800E+03  0.40903960655E+03  0.00000000000E+00 0. -1.
          3    1    6    6  503    0 -0.24933745358E+03 -0.23513432750E+02 -0.54087786553E+02  0.25621775101E+03  0.00000000000E+00 0. -1.
         -3    1    6    6    0  503 -0.13845569784E+03 -0.78286262034E+02 -0.13299195317E+01  0.15906127050E+03  0.00000000000E+00 0.  1.
<mgrwt>
<rscale>  0 0.15281270E+04</rscale>
<asrwt>0</asrwt>
<pdfrwt beam="1">  1        2 0.21952352E+00 0.15281270E+04</pdfrwt>
<pdfrwt beam="2">  1       -1 0.62943540E-01 0.15281270E+04</pdfrwt>
<totfact> 0.39287832E+01</totfact>
</mgrwt>
</event>
<event>
12    7  0.1729738E-007  0.1212240E+04  0.7818608E-02  0.9102210E-01
         -1   -1    0    0    0  501 -0.00000000000E+00  0.00000000000E+00  0.27528384060E+03  0.27528384060E+03  0.00000000000E+00 0.  1.
          2   -1    0    0  501    0  0.00000000000E+00 -0.00000000000E+00 -0.13345545744E+04  0.13345545744E+04  0.00000000000E+00 0. -1.
         24    2    1    2    0    0  0.39376528127E+02 -0.17702138058E+03 -0.47685738607E+03  0.51647687740E+03  0.80425854647E+02 0.  0.
        254    2    1    2    0    0 -0.39376528127E+02  0.17702138058E+03 -0.58241334772E+03  0.10933615376E+04  0.90738473875E+03 0.  0.
         23    2    4    4    0    0  0.16412005456E+03 -0.29177103689E+03 -0.46390512708E+02  0.34727582883E+03  0.79891747624E+02 0.  0.
         23    2    4    4    0    0 -0.20349658269E+03  0.46879241747E+03 -0.53602283501E+03  0.74608570876E+03  0.90256386568E+02 0.  0.
          2    1    3    3  502    0 -0.23075904469E+02 -0.53005736353E+02 -0.17282257214E+03  0.18223541613E+03  0.00000000000E+00 0. -1.
         -1    1    3    3    0  502  0.62452432596E+02 -0.12401564422E+03 -0.30403481393E+03  0.33424146127E+03  0.00000000000E+00 0.  1.
         13    1    5    5    0    0  0.24628159988E+02 -0.48091098838E+01 -0.35879733118E+01  0.25348517802E+02  0.00000000000E+00 0.  1.
        -13    1    5    5    0    0  0.13949189458E+03 -0.28696192701E+03 -0.42802539396E+02  0.32192731102E+03  0.00000000000E+00 0. -1.
          4    1    6    6  503    0 -0.20579148539E+03  0.40041178134E+03 -0.45583350981E+03  0.64067458101E+03  0.00000000000E+00 0. -1.
         -4    1    6    6    0  503  0.22949026953E+01  0.68380636127E+02 -0.80189325204E+02  0.10541112774E+03  0.00000000000E+00 0.  1.
<mgrwt>
<rscale>  0 0.12122398E+04</rscale>
<asrwt>0</asrwt>
<pdfrwt beam="1">  1        2 0.20531608E+00 0.12122398E+04</pdfrwt>
<pdfrwt beam="2">  1       -1 0.42351361E-01 0.12122398E+04</pdfrwt>
<totfact> 0.97189873E+01</totfact>
</mgrwt>
</event>
<event>
12    7  0.1729738E-007  0.4656651E+04  0.7818608E-02  0.7883771E-01
         -1   -1    0    0    0  501 -0.00000000000E+00  0.00000000000E+00  0.18719517883E+04  0.18719517883E+04  0.00000000000E+00 0.  1.
          2   -1    0    0  501    0  0.00000000000E+00 -0.00000000000E+00 -0.28959615679E+04  0.28959615679E+04  0.00000000000E+00 0. -1.
         24    2    1    2    0    0 -0.75025362571E+03  0.45034862155E+03  0.16186028271E+04  0.18416717393E+04  0.78646675952E+02 0.  0.
        254    2    1    2    0    0  0.75025362571E+03 -0.45034862155E+03 -0.26426126067E+04  0.29262416170E+04  0.90210544163E+03 0.  0.
         23    2    4    4    0    0  0.42700046917E+03 -0.28501225119E+03 -0.24509786774E+04  0.25059511985E+04  0.94517450306E+02 0.  0.
         23    2    4    4    0    0  0.32325315654E+03 -0.16533637037E+03 -0.19163392935E+03  0.42029041844E+03  0.89954179341E+02 0.  0.
          2    1    3    3  502    0 -0.29274406886E+03  0.17387585205E+03  0.71157366960E+03  0.78884028107E+03  0.00000000000E+00 0. -1.
         -1    1    3    3    0  502 -0.45750955685E+03  0.27647276950E+03  0.90702915749E+03  0.10528314582E+04  0.00000000000E+00 0.  1.
         13    1    5    5    0    0  0.23959082646E+03 -0.12192320354E+03 -0.11044916394E+04  0.11367369147E+04  0.00000000000E+00 0.  1.
        -13    1    5    5    0    0  0.18740964271E+03 -0.16308904765E+03 -0.13464870379E+04  0.13692142838E+04  0.00000000000E+00 0. -1.
          4    1    6    6  503    0  0.26572450610E+03 -0.93072031806E+02 -0.13930602526E+03  0.31413068128E+03  0.00000000000E+00 0. -1.
         -4    1    6    6    0  503  0.57528650435E+02 -0.72264338561E+02 -0.52327904082E+02  0.10615973716E+03  0.00000000000E+00 0.  1.
<mgrwt>
<rscale>  0 0.46566513E+04</rscale>
<asrwt>0</asrwt>
<pdfrwt beam="1">  1        2 0.44553255E+00 0.46566513E+04</pdfrwt>
<pdfrwt beam="2">  1       -1 0.28799258E+00 0.46566513E+04</pdfrwt>
<totfact> 0.67851201E-02</totfact>
</mgrwt>
</event>
<event>
12    7  0.1729738E-007  0.2219728E+04  0.7818608E-02  0.8510261E-01
         -1   -1    0    0    0  501 -0.00000000000E+00  0.00000000000E+00  0.75243118778E+03  0.75243118778E+03  0.00000000000E+00 0.  1.
          2   -1    0    0  501    0  0.00000000000E+00 -0.00000000000E+00 -0.16370910756E+04  0.16370910756E+04  0.00000000000E+00 0. -1.
         24    2    1    2    0    0 -0.16366375786E+03  0.19744662850E+03 -0.13215318496E+04  0.13485077716E+04  0.79093513700E+02 0.  0.
        254    2    1    2    0    0  0.16366375786E+03 -0.19744662850E+03  0.43687196176E+03  0.10410144918E+04  0.90944107251E+03 0.  0.
         23    2    4    4    0    0  0.20462638591E+03  0.14469919510E+02 -0.23746752403E+03  0.32694799327E+03  0.91775971553E+02 0.  0.
         23    2    4    4    0    0 -0.40962628043E+02 -0.21191654801E+03  0.67433948580E+03  0.71406649850E+03  0.92577869688E+02 0.  0.
          2    1    3    3  502    0 -0.14325476978E+03  0.14103613373E+03 -0.86508709307E+03  0.88813782640E+03  0.00000000000E+00 0. -1.
         -1    1    3    3    0  502 -0.20408988086E+02  0.56410494772E+02 -0.45644475651E+03  0.46036994522E+03  0.00000000000E+00 0.  1.
         13    1    5    5    0    0  0.76394819542E+02  0.36131702688E+01 -0.15843072882E+03  0.17592475462E+03  0.00000000000E+00 0. -1.
        -13    1    5    5    0    0  0.12823156636E+03  0.10856749241E+02 -0.79036795211E+02  0.15102323865E+03  0.00000000000E+00 0.  1.
          2    1    6    6  503    0 -0.50022007274E+02 -0.21323521557E+03  0.66784205323E+03  0.70284028515E+03  0.00000000000E+00 0. -1.
         -2    1    6    6    0  503  0.90593792309E+01  0.13186675514E+01  0.64974325646E+01  0.11226213346E+02  0.00000000000E+00 0.  1.
<mgrwt>
<rscale>  0 0.22197283E+04</rscale>
<asrwt>0</asrwt>
<pdfrwt beam="1">  1        2 0.25186016E+00 0.22197283E+04</pdfrwt>
<pdfrwt beam="2">  1       -1 0.11575865E+00 0.22197283E+04</pdfrwt>
<totfact> 0.74654865E+00</totfact>
</mgrwt>
</event>
<event>
12    7  0.1729738E-007  0.2245593E+04  0.7818608E-02  0.8499687E-01
          2   -1    0    0  501    0  0.00000000000E+00  0.00000000000E+00  0.19011031148E+04  0.19011031148E+04  0.00000000000E+00 0. -1.
         -1   -1    0    0    0  501 -0.00000000000E+00 -0.00000000000E+00 -0.66312643570E+03  0.66312643570E+03  0.00000000000E+00 0.  1.
         24    2    1    2    0    0  0.71834739887E+02  0.22308022478E+03  0.15644547388E+04  0.15839184035E+04  0.79711120331E+02 0.  0.
        254    2    1    2    0    0 -0.71834739887E+02 -0.22308022478E+03 -0.32647805966E+03  0.98031114701E+03  0.89414596402E+03 0.  0.
         23    2    4    4    0    0 -0.17323554292E+03 -0.19917178606E+03  0.25741987172E+03  0.37993920449E+03  0.91699809518E+02 0.  0.
         23    2    4    4    0    0  0.10140080303E+03 -0.23908438722E+02 -0.58389793138E+03  0.60037194252E+03  0.93037297916E+02 0.  0.
          2    1    3    3  502    0  0.45674783332E+02  0.85390551974E+02  0.87644789862E+03  0.88178152124E+03  0.00000000000E+00 0. -1.
         -1    1    3    3    0  502  0.26159956555E+02  0.13768967281E+03  0.68800684019E+03  0.70213688229E+03  0.00000000000E+00 0.  1.
         13    1    5    5    0    0 -0.16340765476E+03 -0.18585986476E+03  0.26424709023E+03  0.36203932888E+03  0.00000000000E+00 0. -1.
        -13    1    5    5    0    0 -0.98278881551E+01 -0.13311921295E+02 -0.68272185142E+01  0.17899875608E+02  0.00000000000E+00 0.  1.
          1    1    6    6  503    0  0.42671944684E+02 -0.50048534633E+02 -0.40432921220E+03  0.40964357986E+03  0.00000000000E+00 0. -1.
         -1    1    6    6    0  503  0.58728858345E+02  0.26140095911E+02 -0.17956871918E+03  0.19072836266E+03  0.00000000000E+00 0.  1.
<mgrwt>
<rscale>  0 0.22455928E+04</rscale>
<asrwt>0</asrwt>
<pdfrwt beam="1">  1        2 0.29247740E+00 0.22455928E+04</pdfrwt>
<pdfrwt beam="2">  1       -1 0.10201945E+00 0.22455928E+04</pdfrwt>
<totfact> 0.71543521E+00</totfact>
</mgrwt>
</event>
<event>
12    7  0.1729738E-007  0.2082998E+04  0.7818608E-02  0.8568770E-01
         -1   -1    0    0    0  501 -0.00000000000E+00  0.00000000000E+00  0.78078767065E+03  0.78078767065E+03  0.00000000000E+00 0.  1.
          2   -1    0    0  501    0  0.00000000000E+00 -0.00000000000E+00 -0.13892645615E+04  0.13892645615E+04  0.00000000000E+00 0. -1.
         24    2    1    2    0    0 -0.77347253228E+03  0.27609278970E+03 -0.91509182247E+02  0.82976684944E+03  0.75180497962E+02 0.  0.
        254    2    1    2    0    0  0.77347253228E+03 -0.27609278970E+03 -0.51696770861E+03  0.13402853827E+04  0.92445784581E+03 0.  0.
         23    2    4    4    0    0  0.16950714514E+03  0.53239045717E+02  0.24095480678E+03  0.31282377866E+03  0.90732735776E+02 0.  0.
         23    2    4    4    0    0  0.60396538714E+03 -0.32933183542E+03 -0.75792251539E+03  0.10274616041E+04  0.89426851705E+02 0.  0.
          2    1    3    3  502    0 -0.18140633473E+03  0.63110573783E+02  0.10429930793E+02  0.19235380490E+03  0.00000000000E+00 0. -1.
         -1    1    3    3    0  502 -0.59206619755E+03  0.21298221592E+03 -0.10193911304E+03  0.63741304454E+03  0.00000000000E+00 0.  1.
         13    1    5    5    0    0  0.60947443282E+02 -0.24610831287E+02  0.73269603429E+02  0.98431288958E+02  0.00000000000E+00 0.  1.
        -13    1    5    5    0    0  0.10855970186E+03  0.77849877004E+02  0.16768520335E+03  0.21439248970E+03  0.00000000000E+00 0. -1.
          2    1    6    6  503    0  0.16109605356E+03 -0.49629954430E+02 -0.15786134490E+03  0.23094431160E+03  0.00000000000E+00 0.  1.
         -2    1    6    6    0  503  0.44286933358E+03 -0.27970188099E+03 -0.60006117049E+03  0.79651729246E+03  0.00000000000E+00 0. -1.
<mgrwt>
<rscale>  0 0.20829985E+04</rscale>
<asrwt>0</asrwt>
<pdfrwt beam="1">  1        2 0.21373301E+00 0.20829985E+04</pdfrwt>
<pdfrwt beam="2">  1       -1 0.12012118E+00 0.20829985E+04</pdfrwt>
<totfact> 0.95326061E+00</totfact>
</mgrwt>
</event>
<event>
12    7  0.1729738E-007  0.2944757E+04  0.7818608E-02  0.8259684E-01
         -1   -1    0    0    0  501 -0.00000000000E+00  0.00000000000E+00  0.76028259148E+03  0.76028259148E+03  0.00000000000E+00 0.  1.
          2   -1    0    0  501    0  0.00000000000E+00 -0.00000000000E+00 -0.28514372303E+04  0.28514372303E+04  0.00000000000E+00 0. -1.
         24    2    1    2    0    0  0.34892849248E+03 -0.35683042223E+03 -0.24754602612E+04  0.25265195402E+04  0.79488608266E+02 0.  0.
        254    2    1    2    0    0 -0.34892849248E+03  0.35683042223E+03  0.38430562242E+03  0.10852002816E+04  0.88367969120E+03 0.  0.
         23    2    4    4    0    0 -0.25210096074E+03  0.17339634459E+02  0.60383805352E+03  0.66028345301E+03  0.86592644665E+02 0.  0.
         23    2    4    4    0    0 -0.96827531733E+02  0.33949078777E+03 -0.21953243109E+03  0.42491682858E+03  0.87921880244E+02 0.  0.
          2    1    3    3  502    0  0.16504478284E+03 -0.15688605820E+03 -0.93788613129E+03  0.96513388236E+03  0.00000000000E+00 0. -1.
         -1    1    3    3    0  502  0.18388370964E+03 -0.19994436403E+03 -0.15375741299E+04  0.15613856578E+04  0.00000000000E+00 0.  1.
         13    1    5    5    0    0 -0.18569740538E+03  0.96306567758E+01  0.52478496085E+03  0.55675446208E+03  0.00000000000E+00 0.  1.
        -13    1    5    5    0    0 -0.66403555363E+02  0.77089776831E+01  0.79053092667E+02  0.10352899093E+03  0.00000000000E+00 0. -1.
          4    1    6    6  503    0 -0.69300552864E+02  0.97743798404E+02 -0.60315890210E+02  0.13414329415E+03  0.00000000000E+00 0. -1.
         -4    1    6    6    0  503 -0.27526978869E+02  0.24174698937E+03 -0.15921654088E+03  0.29077353443E+03  0.00000000000E+00 0.  1.
<mgrwt>
<rscale>  0 0.29447568E+04</rscale>
<asrwt>0</asrwt>
<pdfrwt beam="1">  1        2 0.43868265E+00 0.29447568E+04</pdfrwt>
<pdfrwt beam="2">  1       -1 0.11696655E+00 0.29447568E+04</pdfrwt>
<totfact> 0.13847710E+00</totfact>
</mgrwt>
</event>
<event>
12    7  0.1729738E-007  0.1293419E+04  0.7818608E-02  0.9034800E-01
         -1   -1    0    0    0  501 -0.00000000000E+00  0.00000000000E+00  0.11099948467E+03  0.11099948467E+03  0.00000000000E+00 0.  1.
          2   -1    0    0  501    0  0.00000000000E+00 -0.00000000000E+00 -0.37678862136E+04  0.37678862136E+04  0.00000000000E+00 0. -1.
         24    2    1    2    0    0 -0.29014507760E+03  0.14273798223E+03 -0.74061072317E+03  0.81210945723E+03  0.80369332608E+02 0.  0.
        254    2    1    2    0    0  0.29014507760E+03 -0.14273798223E+03 -0.29162760058E+04  0.30667762410E+04  0.89212805878E+03 0.  0.
         23    2    4    4    0    0  0.45294421317E+03 -0.30518531368E+03 -0.26332889448E+04  0.26908604611E+04  0.90679759712E+02 0.  0.
         23    2    4    4    0    0 -0.16279913557E+03  0.16244733146E+03 -0.28298706101E+03  0.37591577991E+03  0.91314308006E+02 0.  0.
          2    1    3    3  502    0 -0.59415917774E+02  0.20382732813E+02 -0.79762110492E+02  0.10152685040E+03  0.00000000000E+00 0. -1.
         -1    1    3    3    0  502 -0.23072915983E+03  0.12235524941E+03 -0.66084861268E+03  0.71058260683E+03  0.00000000000E+00 0.  1.
         13    1    5    5    0    0  0.33475011729E+03 -0.17558267358E+03 -0.17618775889E+04  0.18019710193E+04  0.00000000000E+00 0. -1.
        -13    1    5    5    0    0  0.11819409589E+03 -0.12960264011E+03 -0.87141135585E+03  0.88888944179E+03  0.00000000000E+00 0.  1.
          2    1    6    6  503    0 -0.87747717558E+02  0.12935829297E+03 -0.13419321958E+03  0.20601225711E+03  0.00000000000E+00 0.  1.
         -2    1    6    6    0  503 -0.75051418016E+02  0.33089038484E+02 -0.14879384143E+03  0.16990352280E+03  0.00000000000E+00 0. -1.
<mgrwt>
<rscale>  0 0.12934194E+04</rscale>
<asrwt>0</asrwt>
<pdfrwt beam="1">  1        2 0.57967484E+00 0.12934194E+04</pdfrwt>
<pdfrwt beam="2">  1       -1 0.17076843E-01 0.12934194E+04</pdfrwt>
<totfact> 0.15862684E+01</totfact>
</mgrwt>
</event>
<event>
12    7  0.1729738E-007  0.1298648E+04  0.7818608E-02  0.9030638E-01
         -1   -1    0    0    0  501 -0.00000000000E+00  0.00000000000E+00  0.77676698598E+03  0.77676698598E+03  0.00000000000E+00 0.  1.
          2   -1    0    0  501    0  0.00000000000E+00 -0.00000000000E+00 -0.54279065991E+03  0.54279065991E+03  0.00000000000E+00 0. -1.
         24    2    1    2    0    0  0.30054741750E+03  0.60095273633E+02 -0.60869832118E+02  0.32216160757E+03  0.78375843538E+02 0.  0.
        254    2    1    2    0    0 -0.30054741750E+03 -0.60095273633E+02  0.29484615819E+03  0.99739603832E+03  0.90217759237E+03 0.  0.
         23    2    4    4    0    0  0.14342808754E+03  0.52589408527E+02  0.46707935900E+03  0.49978501200E+03  0.91020153985E+02 0.  0.
         23    2    4    4    0    0 -0.44397550504E+03 -0.11268468216E+03 -0.17223320082E+03  0.49761102631E+03  0.90224006653E+02 0.  0.
          2    1    3    3  502    0  0.22698323210E+03  0.58765961684E+02 -0.77096863860E+02  0.24681724479E+03  0.00000000000E+00 0. -1.
         -1    1    3    3    0  502  0.73564185400E+02  0.13293119486E+01  0.16227031742E+02  0.75344362782E+02  0.00000000000E+00 0.  1.
         13    1    5    5    0    0  0.11965103042E+03  0.76574617785E+02  0.40376680384E+03  0.42802765455E+03  0.00000000000E+00 0. -1.
        -13    1    5    5    0    0  0.23777057120E+02 -0.23985209258E+02  0.63312555158E+02  0.71757357457E+02  0.00000000000E+00 0.  1.
          2    1    6    6  503    0 -0.44363877925E+03 -0.10396127263E+03 -0.17550500679E+03  0.48828815270E+03  0.00000000000E+00 0. -1.
         -2    1    6    6    0  503 -0.33672579441E+00 -0.87234095339E+01  0.32718059716E+01  0.93228736167E+01  0.00000000000E+00 0.  1.
<mgrwt>
<rscale>  0 0.12986483E+04</rscale>
<asrwt>0</asrwt>
<pdfrwt beam="1">  1        2 0.83506255E-01 0.12986483E+04</pdfrwt>
<pdfrwt beam="2">  1       -1 0.11950261E+00 0.12986483E+04</pdfrwt>
<totfact> 0.39208086E+01</totfact>
</mgrwt>
</event>
<event>
12    7  0.1729738E-007  0.1443003E+04  0.7818608E-02  0.8923266E-01
          2   -1    0    0  501    0  0.00000000000E+00  0.00000000000E+00  0.22520899588E+04  0.22520899588E+04  0.00000000000E+00 0. -1.
         -1   -1    0    0    0  501 -0.00000000000E+00 -0.00000000000E+00 -0.23114733593E+03  0.23114733593E+03  0.00000000000E+00 0.  1.
         24    2    1    2    0    0  0.28016899607E+03 -0.45441769261E+01  0.48929722516E+02  0.29542698088E+03  0.79797665301E+02 0.  0.
        254    2    1    2    0    0 -0.28016899607E+03  0.45441769261E+01  0.19720129003E+04  0.21878103138E+04  0.90507666763E+03 0.  0.
         23    2    4    4    0    0 -0.55499409187E+03 -0.19501708315E+03  0.12032371159E+04  0.13424744878E+04  0.91695629982E+02 0.  0.
         23    2    4    4    0    0  0.27482509580E+03  0.19956126007E+03  0.76877578437E+03  0.84533582598E+03  0.90680329987E+02 0.  0.
          2    1    3    3  502    0  0.13597790053E+02 -0.11972165652E+02  0.20317230034E+02  0.27221728105E+02  0.00000000000E+00 0. -1.
         -1    1    3    3    0  502  0.26657120601E+03  0.74279887264E+01  0.28612492482E+02  0.26820525278E+03  0.00000000000E+00 0.  1.
         13    1    5    5    0    0 -0.14630963650E+03 -0.10051244216E+02  0.30802726917E+03  0.34115734756E+03  0.00000000000E+00 0.  1.
        -13    1    5    5    0    0 -0.40868445536E+03 -0.18496583893E+03  0.89520984678E+03  0.10013171403E+04  0.00000000000E+00 0. -1.
          3    1    6    6  503    0  0.54177957468E+02  0.52484982903E+02  0.27140109227E+03  0.28168861779E+03  0.00000000000E+00 0. -1.
         -3    1    6    6    0  503  0.22064713833E+03  0.14707627717E+03  0.49737469210E+03  0.56364720819E+03  0.00000000000E+00 0.  1.
<mgrwt>
<rscale>  0 0.14430032E+04</rscale>
<asrwt>0</asrwt>
<pdfrwt beam="1">  1        2 0.34647536E+00 0.14430032E+04</pdfrwt>
<pdfrwt beam="2">  1       -1 0.35561130E-01 0.14430032E+04</pdfrwt>
<totfact> 0.40283879E+01</totfact>
</mgrwt>
</event>
<event>
12    7  0.1729738E-007  0.1264965E+04  0.7818608E-02  0.9057819E-01
          2   -1    0    0  501    0  0.00000000000E+00  0.00000000000E+00  0.15664352957E+04  0.15664352957E+04  0.00000000000E+00 0. -1.
         -1   -1    0    0    0  501 -0.00000000000E+00 -0.00000000000E+00 -0.25537864530E+03  0.25537864530E+03  0.00000000000E+00 0.  1.
         24    2    1    2    0    0 -0.19125277847E+03  0.18289417537E+03  0.60262343209E+03  0.66290821313E+03  0.79147921483E+02 0.  0.
        254    2    1    2    0    0  0.19125277847E+03 -0.18289417537E+03  0.70843321830E+03  0.11589057279E+04  0.87815542851E+03 0.  0.
         23    2    4    4    0    0  0.37375093042E+03 -0.30237371605E+03  0.91321253849E+02  0.49800265562E+03  0.92452428012E+02 0.  0.
         23    2    4    4    0    0 -0.18249815195E+03  0.11947954068E+03  0.61711196445E+03  0.66090307225E+03  0.91568324915E+02 0.  0.
          2    1    3    3  502    0 -0.13152158284E+03  0.13461294772E+03  0.33237379398E+03  0.38195668782E+03  0.00000000000E+00 0. -1.
         -1    1    3    3    0  502 -0.59731195624E+02  0.48281227654E+02  0.27024963811E+03  0.28095152531E+03  0.00000000000E+00 0.  1.
         13    1    5    5    0    0  0.27738114306E+03 -0.25749201977E+03  0.99637098641E+02  0.39136937820E+03  0.00000000000E+00 0. -1.
        -13    1    5    5    0    0  0.96369787360E+02 -0.44881696290E+02 -0.83158447912E+01  0.10663327741E+03  0.00000000000E+00 0.  1.
          1    1    6    6  503    0 -0.14513394608E+03  0.11012168681E+03  0.38882922832E+03  0.42939354560E+03  0.00000000000E+00 0. -1.
         -1    1    6    6    0  503 -0.37364205868E+02  0.93578538688E+01  0.22828273614E+03  0.23150952665E+03  0.00000000000E+00 0.  1.
<mgrwt>
<rscale>  0 0.12649650E+04</rscale>
<asrwt>0</asrwt>
<pdfrwt beam="1">  1        2 0.24099004E+00 0.12649650E+04</pdfrwt>
<pdfrwt beam="2">  1       -1 0.39289023E-01 0.12649650E+04</pdfrwt>
<totfact> 0.82030820E+01</totfact>
</mgrwt>
</event>
<event>
12    7  0.1729738E-007  0.1707195E+04  0.7818608E-02  0.8757272E-01
          2   -1    0    0  501    0  0.00000000000E+00  0.00000000000E+00  0.43985241004E+04  0.43985241004E+04  0.00000000000E+00 0. -1.
         -1   -1    0    0    0  501 -0.00000000000E+00 -0.00000000000E+00 -0.16565295680E+03  0.16565295680E+03  0.00000000000E+00 0.  1.
         24    2    1    2    0    0  0.39848590970E+03 -0.24547303038E+03  0.48457783667E+03  0.67823316805E+03  0.78335953295E+02 0.  0.
        254    2    1    2    0    0 -0.39848590970E+03  0.24547303038E+03  0.37482933070E+04  0.38859438892E+04  0.91203572625E+03 0.  0.
         23    2    4    4    0    0 -0.41495202238E+03 -0.23042894692E+03  0.25215322457E+04  0.25674195768E+04  0.90750957793E+02 0.  0.
         23    2    4    4    0    0  0.16466112678E+02  0.47590197730E+03  0.12267610612E+04  0.13185243124E+04  0.82521732051E+02 0.  0.
          2    1    3    3  502    0  0.16248110899E+03 -0.14212038617E+03  0.24321115428E+03  0.32519222086E+03  0.00000000000E+00 0. -1.
         -1    1    3    3    0  502  0.23600480071E+03 -0.10335264422E+03  0.24136668239E+03  0.35304094719E+03  0.00000000000E+00 0.  1.
         13    1    5    5    0    0 -0.12231919307E+03 -0.97430905188E+02  0.10151398379E+04  0.10271142375E+04  0.00000000000E+00 0.  1.
        -13    1    5    5    0    0 -0.29263282930E+03 -0.13299804173E+03  0.15063924078E+04  0.15403053393E+04  0.00000000000E+00 0. -1.
          4    1    6    6  503    0  0.41827598242E+02  0.17010290110E+03  0.49256179574E+03  0.52278261980E+03  0.00000000000E+00 0. -1.
         -4    1    6    6    0  503 -0.25361485563E+02  0.30579907621E+03  0.73419926549E+03  0.79574169264E+03  0.00000000000E+00 0.  1.
<mgrwt>
<rscale>  0 0.17071948E+04</rscale>
<asrwt>0</asrwt>
<pdfrwt beam="1">  1        2 0.67669593E+00 0.17071948E+04</pdfrwt>
<pdfrwt beam="2">  1       -1 0.25485074E-01 0.17071948E+04</pdfrwt>
<totfact> 0.23143218E+00</totfact>
</mgrwt>
</event>
<event>
12    7  0.1729738E-007  0.1340735E+04  0.7818608E-02  0.8997872E-01
         -1   -1    0    0    0  501 -0.00000000000E+00  0.00000000000E+00  0.52606979215E+03  0.52606979215E+03  0.00000000000E+00 0.  1.
          2   -1    0    0  501    0  0.00000000000E+00 -0.00000000000E+00 -0.85424461887E+03  0.85424461887E+03  0.00000000000E+00 0. -1.
         24    2    1    2    0    0  0.22892946097E+03 -0.27273171251E+03 -0.54674540277E+02  0.36544317440E+03  0.61385040979E+02 0.  0.
        254    2    1    2    0    0 -0.22892946097E+03  0.27273171251E+03 -0.27350028644E+03  0.10148712366E+04  0.91014830392E+03 0.  0.
         23    2    4    4    0    0  0.31878233462E+03  0.25126144866E+03 -0.17009141254E+03  0.44990617476E+03  0.93434388870E+02 0.  0.
         23    2    4    4    0    0 -0.54771179559E+03  0.21470263849E+02 -0.10340887390E+03  0.56496506186E+03  0.89682454606E+02 0.  0.
          2    1    3    3  502    0  0.28806033966E+01 -0.10740524046E+02  0.81088080608E+01  0.13762612429E+02  0.00000000000E+00 0. -1.
         -1    1    3    3    0  502  0.22604885757E+03 -0.26199118846E+03 -0.62783348338E+02  0.35168056197E+03  0.00000000000E+00 0.  1.
         13    1    5    5    0    0  0.57672136787E+02  0.50905261068E+02  0.50399283179E+01  0.77089699983E+02  0.00000000000E+00 0. -1.
        -13    1    5    5    0    0  0.26111019783E+03  0.20035618759E+03 -0.17513134085E+03  0.37281647478E+03  0.00000000000E+00 0.  1.
          3    1    6    6  503    0 -0.34548362076E+02  0.22170567115E+02 -0.17653180424E+02  0.44685099837E+02  0.00000000000E+00 0. -1.
         -3    1    6    6    0  503 -0.51316343351E+03 -0.70030326572E+00 -0.85755693479E+02  0.52027996202E+03  0.00000000000E+00 0.  1.
<mgrwt>
<rscale>  0 0.13407346E+04</rscale>
<asrwt>0</asrwt>
<pdfrwt beam="1">  1        2 0.13142225E+00 0.13407346E+04</pdfrwt>
<pdfrwt beam="2">  1       -1 0.80933815E-01 0.13407346E+04</pdfrwt>
<totfact> 0.53536760E+01</totfact>
</mgrwt>
</event>
<event>
12    7  0.1729738E-007  0.1224663E+04  0.7818608E-02  0.9091539E-01
          2   -1    0    0  501    0  0.00000000000E+00  0.00000000000E+00  0.77447868521E+03  0.77447868521E+03  0.00000000000E+00 0. -1.
         -1   -1    0    0    0  501 -0.00000000000E+00 -0.00000000000E+00 -0.48413171989E+03  0.48413171989E+03  0.00000000000E+00 0.  1.
         24    2    1    2    0    0  0.20556511433E+03  0.17175113747E+03 -0.11440037287E+02  0.27976913974E+03  0.79902613528E+02 0.  0.
        254    2    1    2    0    0 -0.20556511433E+03 -0.17175113747E+03  0.30178700260E+03  0.97884126536E+03  0.89179558105E+03 0.  0.
         23    2    4    4    0    0  0.23323515775E+03 -0.35914767946E+03  0.20240808718E+03  0.48278407527E+03  0.93411643323E+02 0.  0.
         23    2    4    4    0    0 -0.43880027208E+03  0.18739654199E+03  0.99378915421E+02  0.49605719009E+03  0.92376535356E+02 0.  0.
          4    1    3    3  502    0  0.11183384380E+02 -0.88033574550E+01 -0.32983347291E+00  0.14236431392E+02  0.00000000000E+00 0. -1.
         -3    1    3    3    0  502  0.19438172995E+03  0.18055449493E+03 -0.11110203814E+02  0.26553270835E+03  0.00000000000E+00 0.  1.
         13    1    5    5    0    0  0.28428803918E+01 -0.36675938840E+02  0.40378586443E+02  0.54622675712E+02  0.00000000000E+00 0.  1.
        -13    1    5    5    0    0  0.23039227736E+03 -0.32247174062E+03  0.16202950074E+03  0.42816139956E+03  0.00000000000E+00 0. -1.
          2    1    6    6  503    0 -0.21938487011E+03  0.14366222049E+03  0.56438185430E+02  0.26824209887E+03  0.00000000000E+00 0. -1.
         -2    1    6    6    0  503 -0.21941540196E+03  0.43734321501E+02  0.42940729990E+02  0.22781509122E+03  0.00000000000E+00 0.  1.
<mgrwt>
<rscale>  0 0.12246627E+04</rscale>
<asrwt>0</asrwt>
<pdfrwt beam="1">  1        2 0.11915057E+00 0.12246627E+04</pdfrwt>
<pdfrwt beam="2">  1       -1 0.74481803E-01 0.12246627E+04</pdfrwt>
<totfact> 0.73399675E+01</totfact>
</mgrwt>
</event>
<event>
12    7  0.1729738E-007  0.1604073E+04  0.7818608E-02  0.8818050E-01
          2   -1    0    0  501    0  0.00000000000E+00  0.00000000000E+00  0.23224954269E+04  0.23224954269E+04  0.00000000000E+00 0. -1.
         -3   -1    0    0    0  501 -0.00000000000E+00 -0.00000000000E+00 -0.27697028481E+03  0.27697028481E+03  0.00000000000E+00 0.  1.
         24    2    1    2    0    0 -0.39080690254E+03 -0.34060693492E+03  0.81914277720E+03  0.97268681516E+03  0.79885115985E+02 0.  0.
        254    2    1    2    0    0  0.39080690254E+03  0.34060693492E+03  0.12263823649E+04  0.16267788965E+04  0.93469393608E+03 0.  0.
         23    2    4    4    0    0  0.93122617336E+00  0.35532826206E+02 -0.13918623691E+03  0.17143480432E+03  0.93560860756E+02 0.  0.
         23    2    4    4    0    0  0.38987567637E+03  0.30507410872E+03  0.13655686018E+04  0.14553440922E+04  0.90418835008E+02 0.  0.
          2    1    3    3  502    0 -0.27040412169E+03 -0.18907112492E+03  0.48647434276E+03  0.58781252579E+03  0.00000000000E+00 0. -1.
         -1    1    3    3    0  502 -0.12040278085E+03 -0.15153581000E+03  0.33266843443E+03  0.38487428937E+03  0.00000000000E+00 0.  1.
         13    1    5    5    0    0  0.14049582926E+02  0.24925249264E+01 -0.13487196775E+03  0.13562467012E+03  0.00000000000E+00 0. -1.
        -13    1    5    5    0    0 -0.13118356753E+02  0.33040301280E+02 -0.43142691590E+01  0.35810134193E+02  0.00000000000E+00 0.  1.
          1    1    6    6  503    0  0.33078372496E+03  0.29496364739E+03  0.12117381713E+04  0.12902444814E+04  0.00000000000E+00 0. -1.
         -1    1    6    6    0  503  0.59091951410E+02  0.10110461325E+02  0.15383043053E+03  0.16509961086E+03  0.00000000000E+00 0.  1.
<mgrwt>
<rscale>  0 0.16040726E+04</rscale>
<asrwt>0</asrwt>
<pdfrwt beam="1">  1        2 0.35730698E+00 0.16040726E+04</pdfrwt>
<pdfrwt beam="2">  1       -3 0.42610815E-01 0.16040726E+04</pdfrwt>
<totfact> 0.14935882E+01</totfact>
</mgrwt>
</event>
<event>
12    7  0.1729738E-007  0.1674634E+04  0.7818608E-02  0.8775965E-01
          2   -1    0    0  501    0  0.00000000000E+00  0.00000000000E+00  0.33246451272E+04  0.33246451272E+04  0.00000000000E+00 0. -1.
         -1   -1    0    0    0  501 -0.00000000000E+00 -0.00000000000E+00 -0.21087959075E+03  0.21087959075E+03  0.00000000000E+00 0.  1.
         24    2    1    2    0    0  0.27009406102E+03  0.27994419857E+03  0.20447394435E+04  0.20829305591E+04  0.79503245660E+02 0.  0.
        254    2    1    2    0    0 -0.27009406102E+03 -0.27994419857E+03  0.10690260930E+04  0.14525941589E+04  0.90326820318E+03 0.  0.
         23    2    4    4    0    0 -0.46757990647E+03 -0.44406607603E+03  0.49986078996E+03  0.82110583327E+03  0.92348964686E+02 0.  0.
         23    2    4    4    0    0  0.19748584545E+03  0.16412187746E+03  0.56916530300E+03  0.63148832561E+03  0.94295882352E+02 0.  0.
          4    1    3    3  502    0  0.25693816854E+03  0.23574258958E+03  0.17259242498E+04  0.17607970659E+04  0.00000000000E+00 0. -1.
         -3    1    3    3    0  502  0.13155892482E+02  0.44201608986E+02  0.31881519368E+03  0.32213349323E+03  0.00000000000E+00 0.  1.
         13    1    5    5    0    0 -0.59411374278E+02 -0.54575250663E+02  0.27326942591E+02  0.85175883734E+02  0.00000000000E+00 0. -1.
        -13    1    5    5    0    0 -0.40816853219E+03 -0.38949082536E+03  0.47253384737E+03  0.73592994954E+03  0.00000000000E+00 0.  1.
          4    1    6    6  503    0  0.91924185983E+02  0.62879217475E+02  0.35564032381E+03  0.37267129199E+03  0.00000000000E+00 0. -1.
         -4    1    6    6    0  503  0.10556165947E+03  0.10124265999E+03  0.21352497919E+03  0.25881703361E+03  0.00000000000E+00 0.  1.
<mgrwt>
<rscale>  0 0.16746341E+04</rscale>
<asrwt>0</asrwt>
<pdfrwt beam="1">  1        2 0.51148383E+00 0.16746341E+04</pdfrwt>
<pdfrwt beam="2">  1       -1 0.32443016E-01 0.16746341E+04</pdfrwt>
<totfact> 0.10429840E+01</totfact>
</mgrwt>
</event>
<event>
12    7  0.1729738E-007  0.2438950E+04  0.7818608E-02  0.8425064E-01
         -1   -1    0    0    0  501 -0.00000000000E+00  0.00000000000E+00  0.61424531866E+03  0.61424531866E+03  0.00000000000E+00 0.  1.
          2   -1    0    0  501    0  0.00000000000E+00 -0.00000000000E+00 -0.24210504127E+04  0.24210504127E+04  0.00000000000E+00 0. -1.
         24    2    1    2    0    0  0.92779351288E+03 -0.98360655530E+02 -0.18165535662E+03  0.95427973995E+03  0.84708514323E+02 0.  0.
        254    2    1    2    0    0 -0.92779351288E+03  0.98360655530E+02 -0.16251497374E+04  0.20810159914E+04  0.90500843439E+03 0.  0.
         23    2    4    4    0    0 -0.53476360758E+03 -0.22221144663E+03 -0.14015149693E+04  0.15192015538E+04  0.91537472424E+02 0.  0.
         23    2    4    4    0    0 -0.39302990530E+03  0.32057210216E+03 -0.22363476807E+03  0.56181443757E+03  0.91564041152E+02 0.  0.
          4    1    3    3  502    0  0.27005408035E+03  0.29321511293E+01 -0.75031474548E+02  0.28029899393E+03  0.00000000000E+00 0. -1.
         -3    1    3    3    0  502  0.65773943253E+03 -0.10129280666E+03 -0.10662388207E+03  0.67398074602E+03  0.00000000000E+00 0.  1.
         13    1    5    5    0    0 -0.14538138151E+03 -0.86255887712E+02 -0.32393012609E+03  0.36538548253E+03  0.00000000000E+00 0.  1.
        -13    1    5    5    0    0 -0.38938222607E+03 -0.13595555892E+03 -0.10775848432E+04  0.11538160713E+04  0.00000000000E+00 0. -1.
          4    1    6    6  503    0 -0.20707543650E+03  0.18940232459E+03 -0.76649664165E+02  0.29091003416E+03  0.00000000000E+00 0. -1.
         -4    1    6    6    0  503 -0.18595446880E+03  0.13116977756E+03 -0.14698510391E+03  0.27090440341E+03  0.00000000000E+00 0.  1.
<mgrwt>
<rscale>  0 0.24389497E+04</rscale>
<asrwt>0</asrwt>
<pdfrwt beam="1">  1        2 0.37246929E+00 0.24389497E+04</pdfrwt>
<pdfrwt beam="2">  1       -1 0.94499281E-01 0.24389497E+04</pdfrwt>
<totfact> 0.42710580E+00</totfact>
</mgrwt>
</event>
<event>
12    7  0.1729738E-007  0.2481688E+04  0.7818608E-02  0.8409538E-01
         -1   -1    0    0    0  501 -0.00000000000E+00  0.00000000000E+00  0.42309426878E+03  0.42309426878E+03  0.00000000000E+00 0.  1.
          2   -1    0    0  501    0  0.00000000000E+00 -0.00000000000E+00 -0.36391275318E+04  0.36391275318E+04  0.00000000000E+00 0. -1.
         24    2    1    2    0    0 -0.21668111913E+03 -0.10268495030E+04 -0.17906468728E+04  0.20770540934E+04  0.79792697841E+02 0.  0.
        254    2    1    2    0    0  0.21668111913E+03  0.10268495030E+04 -0.14253863902E+04  0.19851677072E+04  0.89877352816E+03 0.  0.
         23    2    4    4    0    0 -0.30305182820E+03  0.57033966049E+03 -0.90097699001E+03  0.11123314291E+04  0.91618408411E+02 0.  0.
         23    2    4    4    0    0  0.51973294733E+03  0.45650984253E+03 -0.52440940022E+03  0.87283627806E+03  0.91183202390E+02 0.  0.
          2    1    3    3  502    0 -0.17313624644E+03 -0.72210410403E+03 -0.12049699245E+04  0.14154020687E+04  0.00000000000E+00 0. -1.
         -1    1    3    3    0  502 -0.43544872689E+02 -0.30474539899E+03 -0.58567694827E+03  0.66165202477E+03  0.00000000000E+00 0.  1.
         13    1    5    5    0    0 -0.60591649195E+02  0.18601243732E+03 -0.22982820971E+03  0.30181613735E+03  0.00000000000E+00 0. -1.
        -13    1    5    5    0    0 -0.24246017900E+03  0.38432722317E+03 -0.67114878031E+03  0.81051529176E+03  0.00000000000E+00 0.  1.
          4    1    6    6  503    0  0.24631189199E+03  0.20414674422E+03 -0.18705651261E+03  0.37058815445E+03  0.00000000000E+00 0. -1.
         -4    1    6    6    0  503  0.27342105534E+03  0.25236309832E+03 -0.33735288761E+03  0.50224812361E+03  0.00000000000E+00 0.  1.
<mgrwt>
<rscale>  0 0.24816881E+04</rscale>
<asrwt>0</asrwt>
<pdfrwt beam="1">  1        2 0.55986579E+00 0.24816881E+04</pdfrwt>
<pdfrwt beam="2">  1       -1 0.65091424E-01 0.24816881E+04</pdfrwt>
<totfact> 0.15754282E+00</totfact>
</mgrwt>
</event>
<event>
12    7  0.1729738E-007  0.1258001E+04  0.7818608E-02  0.9063550E-01
          2   -1    0    0  501    0  0.00000000000E+00  0.00000000000E+00  0.31161631638E+04  0.31161631638E+04  0.00000000000E+00 0. -1.
         -1   -1    0    0    0  501 -0.00000000000E+00 -0.00000000000E+00 -0.12696431891E+03  0.12696431891E+03  0.00000000000E+00 0.  1.
         24    2    1    2    0    0  0.12364783151E+03 -0.28214815534E+03  0.10434112800E+04  0.10910355000E+04  0.82188778568E+02 0.  0.
        254    2    1    2    0    0 -0.12364783151E+03  0.28214815534E+03  0.19457875649E+04  0.21520919827E+04  0.86632227630E+03 0.  0.
         23    2    4    4    0    0 -0.12585201350E+03  0.24273062333E+03  0.10203726756E+03  0.30569679419E+03  0.91005720718E+02 0.  0.
         23    2    4    4    0    0  0.22041819939E+01  0.39417532014E+02  0.18437502974E+04  0.18463951885E+04  0.90561762871E+02 0.  0.
          2    1    3    3  502    0  0.11583721796E+03 -0.24152108461E+03  0.97464470157E+03  0.10107833545E+04  0.00000000000E+00 0. -1.
         -1    1    3    3    0  502  0.78106135522E+01 -0.40627070726E+02  0.68766578430E+02  0.80252145571E+02  0.00000000000E+00 0.  1.
         13    1    5    5    0    0 -0.10719400347E+03  0.23570522264E+03  0.11347895541E+03  0.28271006293E+03  0.00000000000E+00 0. -1.
        -13    1    5    5    0    0 -0.18658010032E+02  0.70254006811E+01 -0.11441687848E+02  0.22986731257E+02  0.00000000000E+00 0.  1.
          2    1    6    6  503    0 -0.36650631427E+02 -0.37808539097E+01  0.48213088382E+03  0.48353671296E+03  0.00000000000E+00 0. -1.
         -2    1    6    6    0  503  0.38854813420E+02  0.43198385923E+02  0.13616194136E+04  0.13628584756E+04  0.00000000000E+00 0.  1.
<mgrwt>
<rscale>  0 0.12580008E+04</rscale>
<asrwt>0</asrwt>
<pdfrwt beam="1">  1        2 0.47940966E+00 0.12580008E+04</pdfrwt>
<pdfrwt beam="2">  1       -1 0.19532975E-01 0.12580008E+04</pdfrwt>
<totfact> 0.35524093E+01</totfact>
</mgrwt>
</event>
<event>
12    7  0.2334729E-007  0.1397624E+04  0.7818608E-02  0.8955541E-01
          2   -1    0    0  501    0  0.00000000000E+00  0.00000000000E+00  0.43853910503E+03  0.43853910503E+03  0.00000000000E+00 0. -1.
         -1   -1    0    0    0  501 -0.00000000000E+00 -0.00000000000E+00 -0.11135560341E+04  0.11135560341E+04  0.00000000000E+00 0.  1.
         24    2    1    2    0    0 -0.25669672501E+03 -0.10253202428E+02 -0.53763627010E+03  0.60229965625E+03  0.87828128794E+02 0.  0.
        254    2    1    2    0    0  0.25669672501E+03  0.10253202428E+02 -0.13738065896E+03  0.94979548287E+03  0.90401309561E+03 0.  0.
         23    2    4    4    0    0  0.58485446814E+03 -0.22409299496E+01 -0.31268233213E+02  0.59287228136E+03  0.91978632984E+02 0.  0.
         23    2    4    4    0    0 -0.32815774313E+03  0.12494132377E+02 -0.10611242575E+03  0.35692320151E+03  0.91053375292E+02 0.  0.
          4    1    3    3  502    0 -0.35088074006E+02  0.86534965992E+01 -0.16002714356E+03  0.16405713217E+03  0.00000000000E+00 0. -1.
         -3    1    3    3    0  502 -0.22160865100E+03 -0.18906699027E+02 -0.37760912654E+03  0.43824252408E+03  0.00000000000E+00 0.  1.
         13    1    5    5    0    0  0.31805271589E+02 -0.10370459551E+02  0.17251028985E+02  0.37639337577E+02  0.00000000000E+00 0. -1.
        -13    1    5    5    0    0  0.55304919656E+03  0.81295296019E+01 -0.48519262198E+02  0.55523294379E+03  0.00000000000E+00 0.  1.
          2    1    6    6  503    0 -0.18830132720E+02  0.14377085290E+02 -0.30250203928E+02  0.38423291340E+02  0.00000000000E+00 0. -1.
         -2    1    6    6    0  503 -0.30932761041E+03 -0.18829529128E+01 -0.75862221819E+02  0.31849991017E+03  0.00000000000E+00 0.  1.
<mgrwt>
<rscale>  0 0.13976235E+04</rscale>
<asrwt>0</asrwt>
<pdfrwt beam="1">  1        2 0.67467555E-01 0.13976235E+04</pdfrwt>
<pdfrwt beam="2">  1       -1 0.17131631E+00 0.13976235E+04</pdfrwt>
<totfact> 0.19193576E+01</totfact>
</mgrwt>
</event>
<event>
12    7  0.1729738E-007  0.1594601E+04  0.7818608E-02  0.8823871E-01
          2   -1    0    0  501    0  0.00000000000E+00  0.00000000000E+00  0.13314781607E+04  0.13314781607E+04  0.00000000000E+00 0. -1.
         -1   -1    0    0    0  501 -0.00000000000E+00 -0.00000000000E+00 -0.47743063601E+03  0.47743063601E+03  0.00000000000E+00 0.  1.
         24    2    1    2    0    0 -0.15559610110E+03  0.29890370028E+02  0.86022407612E+03  0.87830794264E+03  0.79597739061E+02 0.  0.
        254    2    1    2    0    0  0.15559610110E+03 -0.29890370028E+02 -0.61765514746E+01  0.93060085404E+03  0.91699303097E+03 0.  0.
         23    2    4    4    0    0 -0.33448765996E+03  0.94687814756E+02 -0.16149430583E+03  0.39398500786E+03  0.91082373016E+02 0.  0.
         23    2    4    4    0    0  0.49008376106E+03 -0.12457818478E+03  0.15531775435E+03  0.53661584618E+03  0.90172859373E+02 0.  0.
          4    1    3    3  502    0 -0.37187967975E+02  0.14799056134E+02  0.42915767734E+03  0.43102003323E+03  0.00000000000E+00 0. -1.
         -3    1    3    3    0  502 -0.11840813313E+03  0.15091313894E+02  0.43106639879E+03  0.44728790941E+03  0.00000000000E+00 0.  1.
         13    1    5    5    0    0 -0.18804286222E+02 -0.10311068435E+02  0.49124688031E+01  0.22001174112E+02  0.00000000000E+00 0. -1.
        -13    1    5    5    0    0 -0.31568337374E+03  0.10499888319E+03 -0.16640677463E+03  0.37198383375E+03  0.00000000000E+00 0.  1.
          3    1    6    6  503    0  0.19015444000E+03 -0.44720814962E+02  0.14775179198E+02  0.19590040394E+03  0.00000000000E+00 0. -1.
         -3    1    6    6    0  503  0.29992932106E+03 -0.79857369821E+02  0.14054257515E+03  0.34071544224E+03  0.00000000000E+00 0.  1.
<mgrwt>
<rscale>  0 0.15946015E+04</rscale>
<asrwt>0</asrwt>
<pdfrwt beam="1">  1        2 0.20484279E+00 0.15946015E+04</pdfrwt>
<pdfrwt beam="2">  1       -1 0.73450868E-01 0.15946015E+04</pdfrwt>
<totfact> 0.32368419E+01</totfact>
</mgrwt>
</event>
<event>
12    7  0.1729738E-007  0.1591977E+04  0.7818608E-02  0.8825492E-01
          2   -1    0    0  501    0  0.00000000000E+00  0.00000000000E+00  0.12067866768E+04  0.12067866768E+04  0.00000000000E+00 0. -1.
         -1   -1    0    0    0  501 -0.00000000000E+00 -0.00000000000E+00 -0.52502855273E+03  0.52502855273E+03  0.00000000000E+00 0.  1.
         24    2    1    2    0    0  0.28336146486E+03 -0.44769265829E+03  0.17446725725E+03  0.56354131195E+03  0.80109614676E+02 0.  0.
        254    2    1    2    0    0 -0.28336146486E+03  0.44769265829E+03  0.50729086681E+03  0.11682739176E+04  0.90928405181E+03 0.  0.
         23    2    4    4    0    0 -0.49472213893E+02 -0.79157546111E+02  0.56744043416E+03  0.58179572770E+03  0.88228144035E+02 0.  0.
         23    2    4    4    0    0 -0.23388925096E+03  0.52685020441E+03 -0.60149567349E+02  0.58647818987E+03  0.89796309189E+02 0.  0.
          2    1    3    3  502    0  0.18236430290E+03 -0.30082420272E+03  0.15438464933E+03  0.38416996221E+03  0.00000000000E+00 0. -1.
         -1    1    3    3    0  502  0.10099716196E+03 -0.14686845557E+03  0.20082607913E+02  0.17937134973E+03  0.00000000000E+00 0.  1.
         13    1    5    5    0    0 -0.13331295189E+02 -0.77377751830E+02  0.49082035096E+03  0.49706101922E+03  0.00000000000E+00 0. -1.
        -13    1    5    5    0    0 -0.36140918704E+02 -0.17797942814E+01  0.76620083202E+02  0.84734708487E+02  0.00000000000E+00 0.  1.
          3    1    6    6  503    0 -0.15709960018E+03  0.26691226265E+03 -0.59805453018E+02  0.31543483089E+03  0.00000000000E+00 0. -1.
         -3    1    6    6    0  503 -0.76789650784E+02  0.25993794176E+03 -0.34411433191E+00  0.27104335898E+03  0.00000000000E+00 0.  1.
<mgrwt>
<rscale>  0 0.15919767E+04</rscale>
<asrwt>0</asrwt>
<pdfrwt beam="1">  1        2 0.18565949E+00 0.15919767E+04</pdfrwt>
<pdfrwt beam="2">  1       -1 0.80773624E-01 0.15919767E+04</pdfrwt>
<totfact> 0.31377070E+01</totfact>
</mgrwt>
</event>
<event>
12    7  0.1729738E-007  0.2039255E+04  0.7818608E-02  0.8588484E-01
          4   -1    0    0  501    0  0.00000000000E+00  0.00000000000E+00  0.11187990735E+04  0.11187990735E+04  0.00000000000E+00 0. -1.
         -3   -1    0    0    0  501 -0.00000000000E+00 -0.00000000000E+00 -0.92924698658E+03  0.92924698658E+03  0.00000000000E+00 0.  1.
         24    2    1    2    0    0 -0.42163429395E+03 -0.70351785255E+03  0.17729396796E+02  0.82427454904E+03  0.80008461990E+02 0.  0.
        254    2    1    2    0    0  0.42163429395E+03  0.70351785255E+03  0.17182269010E+03  0.12237715110E+04  0.89184125696E+03 0.  0.
         23    2    4    4    0    0 -0.93369927289E+01  0.41388384112E+03 -0.29731745110E+03  0.51798338497E+03  0.92315258748E+02 0.  0.
         23    2    4    4    0    0  0.43097128668E+03  0.28963401143E+03  0.46914014120E+03  0.70578812604E+03  0.91762172179E+02 0.  0.
          4    1    3    3  502    0 -0.69092567034E+02 -0.17920780048E+03 -0.36567441831E+01  0.19210046942E+03  0.00000000000E+00 0. -1.
         -3    1    3    3    0  502 -0.35254172692E+03 -0.52431005207E+03  0.21386140979E+02  0.63217407963E+03  0.00000000000E+00 0.  1.
         13    1    5    5    0    0 -0.17515502748E+02  0.44308653244E+02 -0.74544797129E+01  0.48224670622E+02  0.00000000000E+00 0.  1.
        -13    1    5    5    0    0  0.81785100191E+01  0.36957518788E+03 -0.28986297139E+03  0.46975871435E+03  0.00000000000E+00 0. -1.
          3    1    6    6  503    0  0.11283441366E+03  0.11396399131E+03  0.18236657823E+03  0.24285173476E+03  0.00000000000E+00 0. -1.
         -3    1    6    6    0  503  0.31813687303E+03  0.17567002012E+03  0.28677356298E+03  0.46293639128E+03  0.00000000000E+00 0.  1.
<mgrwt>
<rscale>  0 0.20392554E+04</rscale>
<asrwt>0</asrwt>
<pdfrwt beam="1">  1        4 0.17212293E+00 0.20392554E+04</pdfrwt>
<pdfrwt beam="2">  1       -3 0.14296107E+00 0.20392554E+04</pdfrwt>
<totfact> 0.15772260E-01</totfact>
</mgrwt>
</event>
<event>
12    7  0.1729738E-007  0.1106963E+04  0.7818608E-02  0.9198432E-01
          2   -1    0    0  501    0  0.00000000000E+00  0.00000000000E+00  0.29242690661E+04  0.29242690661E+04  0.00000000000E+00 0. -1.
         -1   -1    0    0    0  501 -0.00000000000E+00 -0.00000000000E+00 -0.10475832494E+03  0.10475832494E+03  0.00000000000E+00 0.  1.
         24    2    1    2    0    0 -0.13691351821E+03 -0.26738948770E+02  0.63745458947E+03  0.65744540960E+03  0.80161275677E+02 0.  0.
        254    2    1    2    0    0  0.13691351821E+03  0.26738948770E+02  0.21820561517E+04  0.23715819815E+04  0.91846162834E+03 0.  0.
         23    2    4    4    0    0  0.44772562501E+03  0.25386932908E+03  0.10586699127E+04  0.11809118284E+04  0.94142927715E+02 0.  0.
         23    2    4    4    0    0 -0.31081210680E+03 -0.22713038031E+03  0.11233862390E+04  0.11906701531E+04  0.86639459964E+02 0.  0.
          2    1    3    3  502    0 -0.44675027941E+02  0.58735595165E+00  0.37976795369E+03  0.38238710983E+03  0.00000000000E+00 0. -1.
         -1    1    3    3    0  502 -0.92238490269E+02 -0.27326304721E+02  0.25768663577E+03  0.27505829977E+03  0.00000000000E+00 0.  1.
         13    1    5    5    0    0  0.28624850374E+03  0.19958901689E+03  0.64091867513E+03  0.72976073455E+03  0.00000000000E+00 0. -1.
        -13    1    5    5    0    0  0.16147712127E+03  0.54280312190E+02  0.41775123756E+03  0.45115109383E+03  0.00000000000E+00 0.  1.
          1    1    6    6  503    0 -0.59220245993E+02 -0.79124178099E+02  0.36197332746E+03  0.37522308417E+03  0.00000000000E+00 0. -1.
         -1    1    6    6    0  503 -0.25159186081E+03 -0.14800620221E+03  0.76141291157E+03  0.81544706892E+03  0.00000000000E+00 0.  1.
<mgrwt>
<rscale>  0 0.11069626E+04</rscale>
<asrwt>0</asrwt>
<pdfrwt beam="1">  1        2 0.44988749E+00 0.11069626E+04</pdfrwt>
<pdfrwt beam="2">  1       -1 0.16116668E-01 0.11069626E+04</pdfrwt>
<totfact> 0.65278834E+01</totfact>
</mgrwt>
</event>
<event>
12    7  0.1729738E-007  0.1993163E+04  0.7818608E-02  0.8609824E-01
          2   -1    0    0  501    0  0.00000000000E+00  0.00000000000E+00  0.53288468122E+03  0.53288468122E+03  0.00000000000E+00 0. -1.
         -1   -1    0    0    0  501 -0.00000000000E+00 -0.00000000000E+00 -0.18637708428E+04  0.18637708428E+04  0.00000000000E+00 0.  1.
         24    2    1    2    0    0 -0.18836798025E+03 -0.15773367762E+03 -0.14365217648E+04  0.14594293802E+04  0.77310582039E+02 0.  0.
        254    2    1    2    0    0  0.18836798025E+03  0.15773367762E+03  0.10563560317E+03  0.93722614385E+03  0.89826029357E+03 0.  0.
         23    2    4    4    0    0 -0.35643207140E+02 -0.30122984149E+03  0.24459108732E+03  0.40038897402E+03  0.92068859532E+02 0.  0.
         23    2    4    4    0    0  0.22401118739E+03  0.45896351911E+03 -0.13895548416E+03  0.53683716983E+03  0.89760773039E+02 0.  0.
          4    1    3    3  502    0 -0.22099034826E+02 -0.35443924998E+02 -0.12570848743E+03  0.13246608235E+03  0.00000000000E+00 0. -1.
         -3    1    3    3    0  502 -0.16626894543E+03 -0.12228975262E+03 -0.13108132773E+04  0.13269632978E+04  0.00000000000E+00 0.  1.
         13    1    5    5    0    0 -0.52748620359E+02 -0.10032487529E+03  0.11011036843E+03  0.15802465246E+03  0.00000000000E+00 0. -1.
        -13    1    5    5    0    0  0.17105413218E+02 -0.20090496621E+03  0.13448071890E+03  0.24236432156E+03  0.00000000000E+00 0.  1.
          2    1    6    6  503    0  0.15997602750E+03  0.23757286205E+03 -0.98297622147E+02  0.30281284100E+03  0.00000000000E+00 0. -1.
         -2    1    6    6    0  503  0.64035159892E+02  0.22139065707E+03 -0.40657862011E+02  0.23402432882E+03  0.00000000000E+00 0.  1.
<mgrwt>
<rscale>  0 0.19931632E+04</rscale>
<asrwt>0</asrwt>
<pdfrwt beam="1">  1        2 0.81982259E-01 0.19931632E+04</pdfrwt>
<pdfrwt beam="2">  1       -1 0.28673398E+00 0.19931632E+04</pdfrwt>
<totfact> 0.24438972E+00</totfact>
</mgrwt>
</event>
<event>
12    7  0.1729738E-007  0.2217362E+04  0.7818608E-02  0.8511236E-01
         -1   -1    0    0    0  501 -0.00000000000E+00  0.00000000000E+00  0.16688888091E+04  0.16688888091E+04  0.00000000000E+00 0.  1.
          2   -1    0    0  501    0  0.00000000000E+00 -0.00000000000E+00 -0.73652208644E+03  0.73652208644E+03  0.00000000000E+00 0. -1.
         24    2    1    2    0    0 -0.34124543181E+03  0.21998829374E+03 -0.51133139544E+03  0.65784710196E+03  0.80372380125E+02 0.  0.
        254    2    1    2    0    0  0.34124543181E+03 -0.21998829374E+03  0.14436981181E+04  0.17475637936E+04  0.89714639962E+03 0.  0.
         23    2    4    4    0    0  0.60024517011E+03 -0.71619754353E+02  0.63981523957E+03  0.88495759428E+03  0.91448069635E+02 0.  0.
         23    2    4    4    0    0 -0.25899973830E+03 -0.14836853939E+03  0.80388287855E+03  0.86260619932E+03  0.93635916036E+02 0.  0.
          4    1    3    3  502    0 -0.27671071906E+03  0.16644734683E+03 -0.35120626054E+03  0.47709472723E+03  0.00000000000E+00 0. -1.
         -3    1    3    3    0  502 -0.64534712755E+02  0.53540946908E+02 -0.16012513489E+03  0.18075237473E+03  0.00000000000E+00 0.  1.
         13    1    5    5    0    0  0.89799705981E+02 -0.38415411468E+02  0.13164139824E+03  0.16391823804E+03  0.00000000000E+00 0.  1.
        -13    1    5    5    0    0  0.51044546413E+03 -0.33204342885E+02  0.50817384133E+03  0.72103935624E+03  0.00000000000E+00 0. -1.
          1    1    6    6  503    0 -0.18375935207E+03 -0.82226934607E+02  0.63604036769E+03  0.66714025330E+03  0.00000000000E+00 0. -1.
         -1    1    6    6    0  503 -0.75240386224E+02 -0.66141604780E+02  0.16784251086E+03  0.19546594602E+03  0.00000000000E+00 0.  1.
<mgrwt>
<rscale>  0 0.22173619E+04</rscale>
<asrwt>0</asrwt>
<pdfrwt beam="1">  1        2 0.11331109E+00 0.22173619E+04</pdfrwt>
<pdfrwt beam="2">  1       -1 0.25675212E+00 0.22173619E+04</pdfrwt>
<totfact> 0.25188320E+00</totfact>
</mgrwt>
</event>
<event>
12    7  0.1729738E-007  0.2926104E+04  0.7818608E-02  0.8265153E-01
          2   -1    0    0  501    0  0.00000000000E+00  0.00000000000E+00  0.96087171882E+03  0.96087171882E+03  0.00000000000E+00 0. -1.
         -1   -1    0    0    0  501 -0.00000000000E+00 -0.00000000000E+00 -0.22276865186E+04  0.22276865186E+04  0.00000000000E+00 0.  1.
         24    2    1    2    0    0 -0.91615315155E+03 -0.23043858384E+03  0.43743381219E+03  0.10433322658E+04  0.68958964551E+02 0.  0.
        254    2    1    2    0    0  0.91615315155E+03  0.23043858384E+03 -0.17042486120E+04  0.21452259716E+04  0.89726952467E+03 0.  0.
         23    2    4    4    0    0  0.50504204660E+03  0.22369372816E+03 -0.16221018561E+04  0.17159858707E+04  0.91031444813E+02 0.  0.
         23    2    4    4    0    0  0.41111110495E+03  0.67448556752E+01 -0.82146755861E+02  0.42924010094E+03  0.91875682669E+02 0.  0.
          4    1    3    3  502    0 -0.76457060599E+03 -0.16614658016E+03  0.35466546374E+03  0.85904626698E+03  0.00000000000E+00 0. -1.
         -3    1    3    3    0  502 -0.15158254556E+03 -0.64292003674E+02  0.82768348454E+02  0.18428599882E+03  0.00000000000E+00 0.  1.
         13    1    5    5    0    0  0.39630343263E+03  0.14235370660E+03 -0.11468614871E+04  0.12217251160E+04  0.00000000000E+00 0.  1.
        -13    1    5    5    0    0  0.10873861397E+03  0.81340021568E+02 -0.47524036901E+03  0.49426075468E+03  0.00000000000E+00 0. -1.
          2    1    6    6  503    0  0.23674339015E+03 -0.25446276344E+01 -0.92813685097E+02  0.25429960293E+03  0.00000000000E+00 0. -1.
         -2    1    6    6    0  503  0.17436771480E+03  0.92894833096E+01  0.10666929235E+02  0.17494049801E+03  0.00000000000E+00 0.  1.
<mgrwt>
<rscale>  0 0.29261039E+04</rscale>
<asrwt>0</asrwt>
<pdfrwt beam="1">  1        2 0.14782642E+00 0.29261039E+04</pdfrwt>
<pdfrwt beam="2">  1       -1 0.34272100E+00 0.29261039E+04</pdfrwt>
<totfact> 0.45502435E-01</totfact>
</mgrwt>
</event>
<event>
12    7  0.1729738E-007  0.1413410E+04  0.7818608E-02  0.8944169E-01
         -1   -1    0    0    0  501 -0.00000000000E+00  0.00000000000E+00  0.29242589440E+03  0.29242589440E+03  0.00000000000E+00 0.  1.
          2   -1    0    0  501    0  0.00000000000E+00 -0.00000000000E+00 -0.17078917319E+04  0.17078917319E+04  0.00000000000E+00 0. -1.
         24    2    1    2    0    0 -0.50507418116E+02 -0.29208308967E+03 -0.83397398185E+03  0.88846529970E+03  0.77423871057E+02 0.  0.
        254    2    1    2    0    0  0.50507418116E+02  0.29208308967E+03 -0.58149185567E+03  0.11118523266E+04  0.90012181812E+03 0.  0.
         23    2    4    4    0    0 -0.15764541535E+03  0.15423835746E+02  0.18892924361E+03  0.26239973474E+03  0.89829783532E+02 0.  0.
         23    2    4    4    0    0  0.20815283347E+03  0.27665925392E+03 -0.77042109928E+03  0.84945259189E+03  0.90294467109E+02 0.  0.
          2    1    3    3  502    0 -0.45059066476E+02 -0.29510114982E+03 -0.82636644558E+03  0.87863331969E+03  0.00000000000E+00 0. -1.
         -1    1    3    3    0  502 -0.54483516396E+01  0.30180601541E+01 -0.76075362735E+01  0.98319800058E+01  0.00000000000E+00 0.  1.
         13    1    5    5    0    0  0.43307018929E+01  0.65088975930E+01 -0.52184350482E+01  0.93996165408E+01  0.00000000000E+00 0.  1.
        -13    1    5    5    0    0 -0.16197611724E+03  0.89149381531E+01  0.19414767866E+03  0.25300011820E+03  0.00000000000E+00 0. -1.
          2    1    6    6  503    0  0.16999165731E+03  0.18554620335E+03 -0.46882617379E+03  0.53209260319E+03  0.00000000000E+00 0. -1.
         -2    1    6    6    0  503  0.38161176160E+02  0.91113050571E+02 -0.30159492549E+03  0.31735998870E+03  0.00000000000E+00 0.  1.
<mgrwt>
<rscale>  0 0.14134097E+04</rscale>
<asrwt>0</asrwt>
<pdfrwt beam="1">  1        2 0.26275258E+00 0.14134097E+04</pdfrwt>
<pdfrwt beam="2">  1       -1 0.44988598E-01 0.14134097E+04</pdfrwt>
<totfact> 0.52692579E+01</totfact>
</mgrwt>
</event>
<event>
12    7  0.1729738E-007  0.1835879E+04  0.7818608E-02  0.8687449E-01
         -1   -1    0    0    0  501 -0.00000000000E+00  0.00000000000E+00  0.45094212498E+03  0.45094212498E+03  0.00000000000E+00 0.  1.
          2   -1    0    0  501    0  0.00000000000E+00 -0.00000000000E+00 -0.18685616761E+04  0.18685616761E+04  0.00000000000E+00 0. -1.
         24    2    1    2    0    0 -0.30983824848E+03  0.42984481342E+03 -0.11137537479E+04  0.12358197558E+04  0.77696550298E+02 0.  0.
        254    2    1    2    0    0  0.30983824848E+03 -0.42984481342E+03 -0.30386580325E+03  0.10836840454E+04  0.89513707326E+03 0.  0.
         23    2    4    4    0    0  0.20228739231E+03 -0.26426423831E+03 -0.61427762075E+03  0.70468272688E+03  0.92113915715E+02 0.  0.
         23    2    4    4    0    0  0.10755085617E+03 -0.16558057511E+03  0.31041181750E+03  0.37900131848E+03  0.91117448641E+02 0.  0.
          4    1    3    3  502    0 -0.23517435501E+03  0.29750231714E+03 -0.86253162286E+03  0.94221834327E+03  0.00000000000E+00 0. -1.
         -3    1    3    3    0  502 -0.74663893467E+02  0.13234249628E+03 -0.25122212505E+03  0.29360141251E+03  0.00000000000E+00 0.  1.
         13    1    5    5    0    0  0.25213159845E+02 -0.10205792121E+03 -0.18163455663E+03  0.20986337192E+03  0.00000000000E+00 0.  1.
        -13    1    5    5    0    0  0.17707423246E+03 -0.16220631710E+03 -0.43264306411E+03  0.49481935495E+03  0.00000000000E+00 0. -1.
          3    1    6    6  503    0  0.12230178038E+03 -0.13124185093E+03  0.26765578310E+03  0.32221385312E+03  0.00000000000E+00 0. -1.
         -3    1    6    6    0  503 -0.14750924209E+02 -0.34338724183E+02  0.42756034405E+02  0.56787465356E+02  0.00000000000E+00 0.  1.
<mgrwt>
<rscale>  0 0.18358793E+04</rscale>
<asrwt>0</asrwt>
<pdfrwt beam="1">  1        2 0.28747103E+00 0.18358793E+04</pdfrwt>
<pdfrwt beam="2">  1       -1 0.69375711E-01 0.18358793E+04</pdfrwt>
<totfact> 0.17809300E+01</totfact>
</mgrwt>
</event>
<event>
12    7  0.1729738E-007  0.1772147E+04  0.7818608E-02  0.8721253E-01
          2   -1    0    0  501    0  0.00000000000E+00  0.00000000000E+00  0.16531798278E+04  0.16531798278E+04  0.00000000000E+00 0. -1.
         -1   -1    0    0    0  501 -0.00000000000E+00 -0.00000000000E+00 -0.47491868657E+03  0.47491868657E+03  0.00000000000E+00 0.  1.
         24    2    1    2    0    0  0.42375065993E+03  0.38292117822E+03  0.54921626595E+02  0.57916036926E+03  0.78848574711E+02 0.  0.
        254    2    1    2    0    0 -0.42375065993E+03 -0.38292117822E+03  0.11233395147E+04  0.15489381452E+04  0.90062448433E+03 0.  0.
         23    2    4    4    0    0 -0.44834545874E+03 -0.10718859861E+03  0.94799265696E+02  0.47975947989E+03  0.93162287018E+02 0.  0.
         23    2    4    4    0    0  0.24594798808E+02 -0.27573257961E+03  0.10285402490E+04  0.10691786653E+04  0.92814949837E+02 0.  0.
          4    1    3    3  502    0  0.97636285660E+01  0.26966523708E+02  0.13263553769E+02  0.31598159792E+02  0.00000000000E+00 0. -1.
         -3    1    3    3    0  502  0.41398703136E+03  0.35595465451E+03  0.41658072826E+02  0.54756220947E+03  0.00000000000E+00 0.  1.
         13    1    5    5    0    0 -0.40893008068E+03 -0.11990275358E+03  0.71081430703E+02  0.43203362253E+03  0.00000000000E+00 0.  1.
        -13    1    5    5    0    0 -0.39415378054E+02  0.12714154973E+02  0.23717834993E+02  0.47725857358E+02  0.00000000000E+00 0. -1.
          1    1    6    6  503    0 -0.75004860220E+01 -0.11924379905E+02  0.12096737457E+02  0.18568230497E+02  0.00000000000E+00 0. -1.
         -1    1    6    6    0  503  0.32095284830E+02 -0.26380819971E+03  0.10164435115E+04  0.10506104348E+04  0.00000000000E+00 0.  1.
<mgrwt>
<rscale>  0 0.17721467E+04</rscale>
<asrwt>0</asrwt>
<pdfrwt beam="1">  1        2 0.25433536E+00 0.17721467E+04</pdfrwt>
<pdfrwt beam="2">  1       -1 0.73064414E-01 0.17721467E+04</pdfrwt>
<totfact> 0.21194404E+01</totfact>
</mgrwt>
</event>
<event>
12    7  0.1729738E-007  0.2533621E+04  0.7818608E-02  0.8391105E-01
          2   -1    0    0  501    0  0.00000000000E+00  0.00000000000E+00  0.96042820460E+03  0.96042820460E+03  0.00000000000E+00 0. -1.
         -1   -1    0    0    0  501 -0.00000000000E+00 -0.00000000000E+00 -0.16709299628E+04  0.16709299628E+04  0.00000000000E+00 0.  1.
         24    2    1    2    0    0 -0.58692642895E+03  0.53545522254E+03  0.48854670442E+03  0.93628481362E+03  0.82197575802E+02 0.  0.
        254    2    1    2    0    0  0.58692642895E+03 -0.53545522254E+03 -0.11990484626E+04  0.16950733538E+04  0.89686204662E+03 0.  0.
         23    2    4    4    0    0  0.73091526195E+02 -0.22654930023E+03  0.90767799733E+02  0.26979066413E+03  0.88776417742E+02 0.  0.
         23    2    4    4    0    0  0.51383490275E+03 -0.30890592231E+03 -0.12898162623E+04  0.14252826896E+04  0.91408854556E+02 0.  0.
          2    1    3    3  502    0 -0.34028510198E+03  0.31669600452E+03  0.23822562264E+03  0.52234256690E+03  0.00000000000E+00 0. -1.
         -1    1    3    3    0  502 -0.24664132697E+03  0.21875921801E+03  0.25032108178E+03  0.41394224672E+03  0.00000000000E+00 0.  1.
         13    1    5    5    0    0  0.56244365613E+02 -0.60868344618E+02  0.54977077617E+02  0.99452818477E+02  0.00000000000E+00 0. -1.
        -13    1    5    5    0    0  0.16847160582E+02 -0.16568095561E+03  0.35790722116E+02  0.17033784565E+03  0.00000000000E+00 0.  1.
          1    1    6    6  503    0  0.22260433044E+03 -0.18026729942E+03 -0.55856156076E+03  0.62772605834E+03  0.00000000000E+00 0. -1.
         -1    1    6    6    0  503  0.29123057231E+03 -0.12863862289E+03 -0.73125470157E+03  0.79755663129E+03  0.00000000000E+00 0.  1.
<mgrwt>
<rscale>  0 0.25336205E+04</rscale>
<asrwt>0</asrwt>
<pdfrwt beam="1">  1        2 0.14775819E+00 0.25336205E+04</pdfrwt>
<pdfrwt beam="2">  1       -1 0.25706615E+00 0.25336205E+04</pdfrwt>
<totfact> 0.16990740E+00</totfact>
</mgrwt>
</event>
<event>
12    7  0.1729738E-007  0.1106019E+04  0.7818608E-02  0.9199345E-01
          2   -1    0    0  501    0  0.00000000000E+00  0.00000000000E+00  0.11971390857E+04  0.11971390857E+04  0.00000000000E+00 0. -1.
         -1   -1    0    0    0  501 -0.00000000000E+00 -0.00000000000E+00 -0.25545879645E+03  0.25545879645E+03  0.00000000000E+00 0.  1.
         24    2    1    2    0    0 -0.14825330226E+03  0.92271324097E+02  0.69350759290E+02  0.20042042250E+03  0.69755136437E+02 0.  0.
        254    2    1    2    0    0  0.14825330226E+03 -0.92271324097E+02  0.87232952995E+03  0.12521774597E+04  0.88119041231E+03 0.  0.
         23    2    4    4    0    0  0.36395222124E+03 -0.92903199460E+02  0.40948664229E+02  0.38850257118E+03  0.90361667176E+02 0.  0.
         23    2    4    4    0    0 -0.21569891898E+03  0.63187536327E+00  0.83138086572E+03  0.86367488847E+03  0.90629720150E+02 0.  0.
          2    1    3    3  502    0 -0.15532804690E+03  0.90205254289E+02  0.62024825359E+02  0.19002860052E+03  0.00000000000E+00 0. -1.
         -1    1    3    3    0  502  0.70747446370E+01  0.20660698072E+01  0.73259339307E+01  0.10391821981E+02  0.00000000000E+00 0.  1.
         13    1    5    5    0    0  0.11420593486E+02  0.89934822814E+00  0.20067968050E+02  0.23107620484E+02  0.00000000000E+00 0.  1.
        -13    1    5    5    0    0  0.35253162775E+03 -0.93802547688E+02  0.20880696179E+02  0.36539495069E+03  0.00000000000E+00 0. -1.
          2    1    6    6  503    0 -0.14875331564E+03 -0.42028209163E+02  0.54612265591E+03  0.56757719702E+03  0.00000000000E+00 0. -1.
         -2    1    6    6    0  503 -0.66945603339E+02  0.42660084527E+02  0.28525820981E+03  0.29609769145E+03  0.00000000000E+00 0.  1.
<mgrwt>
<rscale>  0 0.11060194E+04</rscale>
<asrwt>0</asrwt>
<pdfrwt beam="1">  1        2 0.18417524E+00 0.11060194E+04</pdfrwt>
<pdfrwt beam="2">  1       -1 0.39301354E-01 0.11060194E+04</pdfrwt>
<totfact> 0.13522041E+02</totfact>
</mgrwt>
</event>
<event>
12    7  0.1729738E-007  0.1441172E+04  0.7818608E-02  0.8924543E-01
          2   -1    0    0  501    0  0.00000000000E+00  0.00000000000E+00  0.10912930605E+04  0.10912930605E+04  0.00000000000E+00 0. -1.
         -1   -1    0    0    0  501 -0.00000000000E+00 -0.00000000000E+00 -0.47580664066E+03  0.47580664066E+03  0.00000000000E+00 0.  1.
         24    2    1    2    0    0  0.17597711107E+03 -0.77899072434E+02  0.61367718780E+03  0.64814838336E+03  0.80376781010E+02 0.  0.
        254    2    1    2    0    0 -0.17597711107E+03  0.77899072434E+02  0.18092320209E+01  0.91895131778E+03  0.89857222415E+03 0.  0.
         23    2    4    4    0    0 -0.37094934901E+03 -0.21677585799E+03  0.22094981660E+03  0.49241457576E+03  0.95174055407E+02 0.  0.
         23    2    4    4    0    0  0.19497223794E+03  0.29467493042E+03 -0.21914058458E+03  0.42653674202E+03  0.95202459518E+02 0.  0.
          4    1    3    3  502    0  0.15503540307E+03 -0.33974223270E+02  0.49710820287E+03  0.52183023045E+03  0.00000000000E+00 0. -1.
         -3    1    3    3    0  502  0.20941708004E+02 -0.43924849164E+02  0.11656898493E+03  0.12631815291E+03  0.00000000000E+00 0.  1.
         13    1    5    5    0    0 -0.13339620396E+03 -0.11895102644E+03  0.12531955790E+03  0.21828624674E+03  0.00000000000E+00 0. -1.
        -13    1    5    5    0    0 -0.23755314505E+03 -0.97824831545E+02  0.95630258695E+02  0.27412832902E+03  0.00000000000E+00 0.  1.
          2    1    6    6  503    0  0.10584029964E+01  0.50373284860E+02 -0.11035971519E+02  0.51578878544E+02  0.00000000000E+00 0. -1.
         -2    1    6    6    0  503  0.19391383495E+03  0.24430164556E+03 -0.20810461306E+03  0.37495786348E+03  0.00000000000E+00 0.  1.
<mgrwt>
<rscale>  0 0.14411724E+04</rscale>
<asrwt>0</asrwt>
<pdfrwt beam="1">  1        2 0.16789124E+00 0.14411724E+04</pdfrwt>
<pdfrwt beam="2">  1       -1 0.73201022E-01 0.14411724E+04</pdfrwt>
<totfact> 0.45927848E+01</totfact>
</mgrwt>
</event>
<event>
12    7  0.1729738E-007  0.4683078E+04  0.7818608E-02  0.7879346E-01
          2   -1    0    0  501    0  0.00000000000E+00  0.00000000000E+00  0.34613224962E+04  0.34613224962E+04  0.00000000000E+00 0. -1.
         -1   -1    0    0    0  501 -0.00000000000E+00 -0.00000000000E+00 -0.15840205647E+04  0.15840205647E+04  0.00000000000E+00 0.  1.
         24    2    1    2    0    0  0.17616094938E+04 -0.12320885030E+04  0.18082758952E+03  0.21589351759E+04  0.83620503628E+02 0.  0.
        254    2    1    2    0    0 -0.17616094938E+04  0.12320885030E+04  0.16964743419E+04  0.28864078850E+04  0.91214867091E+03 0.  0.
         23    2    4    4    0    0 -0.71472700775E+03  0.83871498959E+03  0.12750065956E+04  0.16876520725E+04  0.90830443621E+02 0.  0.
         23    2    4    4    0    0 -0.10468824861E+04  0.39337351340E+03  0.42146774635E+03  0.11987558126E+04  0.93138478805E+02 0.  0.
          2    1    3    3  502    0  0.32356263821E+03 -0.18771058169E+03  0.29660082695E+02  0.37524360598E+03  0.00000000000E+00 0. -1.
         -1    1    3    3    0  502  0.14380468556E+04 -0.10443779213E+04  0.15116750683E+03  0.17836915699E+04  0.00000000000E+00 0.  1.
         13    1    5    5    0    0 -0.73459752273E+02  0.11853108971E+03  0.19587375188E+03  0.24044226148E+03  0.00000000000E+00 0. -1.
        -13    1    5    5    0    0 -0.64126725548E+03  0.72018389989E+03  0.10791328437E+04  0.14472098110E+04  0.00000000000E+00 0.  1.
          4    1    6    6  503    0 -0.69634427767E+02  0.11434034108E+02  0.80992100402E+01  0.71030189847E+02  0.00000000000E+00 0.  1.
         -4    1    6    6    0  503 -0.97724805830E+03  0.38193947929E+03  0.41336853631E+03  0.11277256227E+04  0.00000000000E+00 0. -1.
<mgrwt>
<rscale>  0 0.46830785E+04</rscale>
<asrwt>0</asrwt>
<pdfrwt beam="1">  1        2 0.53251115E+00 0.46830785E+04</pdfrwt>
<pdfrwt beam="2">  1       -1 0.24369547E+00 0.46830785E+04</pdfrwt>
<totfact> 0.56119599E-02</totfact>
</mgrwt>
</event>
<event>
12    7  0.1729738E-007  0.1178322E+04  0.7818608E-02  0.9132045E-01
         -1   -1    0    0    0  501 -0.00000000000E+00  0.00000000000E+00  0.17018154874E+03  0.17018154874E+03  0.00000000000E+00 0.  1.
          2   -1    0    0  501    0  0.00000000000E+00 -0.00000000000E+00 -0.20396502502E+04  0.20396502502E+04  0.00000000000E+00 0. -1.
         24    2    1    2    0    0 -0.17332135305E+03  0.10018916892E+03 -0.16644658403E+03  0.27219854087E+03  0.79431853340E+02 0.  0.
        254    2    1    2    0    0  0.17332135305E+03 -0.10018916892E+03 -0.17030221174E+04  0.19376332580E+04  0.90225281897E+03 0.  0.
         23    2    4    4    0    0 -0.11485057086E+03 -0.18470926926E+03 -0.33370298011E+02  0.23833002165E+03  0.91539361215E+02 0.  0.
         23    2    4    4    0    0  0.28817192390E+03  0.84520100345E+02 -0.16696518194E+04  0.16993032364E+04  0.98527083314E+02 0.  0.
          4    1    3    3  502    0 -0.11835268888E+03  0.68124976305E+02 -0.15664276829E+03  0.20781079909E+03  0.00000000000E+00 0. -1.
         -3    1    3    3    0  502 -0.54968664166E+02  0.32064192613E+02 -0.98038157433E+01  0.64387741778E+02  0.00000000000E+00 0.  1.
         13    1    5    5    0    0 -0.31930344104E+02 -0.85518004679E+02  0.27632818662E+02  0.95375304278E+02  0.00000000000E+00 0. -1.
        -13    1    5    5    0    0 -0.82920226754E+02 -0.99191264585E+02 -0.61003116673E+02  0.14295471737E+03  0.00000000000E+00 0.  1.
          3    1    6    6  503    0  0.51507765991E+02  0.34214271159E+02 -0.18487886154E+03  0.19494578670E+03  0.00000000000E+00 0. -1.
         -3    1    6    6    0  503  0.23666415791E+03  0.50305829187E+02 -0.14847729578E+04  0.15043574497E+04  0.00000000000E+00 0.  1.
<mgrwt>
<rscale>  0 0.11783223E+04</rscale>
<asrwt>0</asrwt>
<pdfrwt beam="1">  1        2 0.31379234E+00 0.11783223E+04</pdfrwt>
<pdfrwt beam="2">  1       -1 0.26181777E-01 0.11783223E+04</pdfrwt>
<totfact> 0.92625343E+01</totfact>
</mgrwt>
</event>
<event>
12    7  0.1729738E-007  0.1619740E+04  0.7818608E-02  0.8808512E-01
          2   -1    0    0  501    0  0.00000000000E+00  0.00000000000E+00  0.68719270246E+03  0.68719270246E+03  0.00000000000E+00 0. -1.
         -1   -1    0    0    0  501 -0.00000000000E+00 -0.00000000000E+00 -0.95444798581E+03  0.95444798581E+03  0.00000000000E+00 0.  1.
         24    2    1    2    0    0  0.53222881765E+03 -0.13861167520E+03  0.11835171800E+02  0.55544187799E+03  0.76778237157E+02 0.  0.
        254    2    1    2    0    0 -0.53222881765E+03  0.13861167520E+03 -0.27909045514E+03  0.10861988103E+04  0.89412284529E+03 0.  0.
         23    2    4    4    0    0 -0.21376391025E+03 -0.28831532534E+03 -0.38683754018E+03  0.53531496116E+03  0.89989382706E+02 0.  0.
         23    2    4    4    0    0 -0.31846490739E+03  0.42692700054E+03  0.10774708503E+03  0.55088384911E+03  0.90426875700E+02 0.  0.
          4    1    3    3  502    0  0.14595437040E+03 -0.60138188469E+02 -0.23912117813E+02  0.15965922876E+03  0.00000000000E+00 0. -1.
         -3    1    3    3    0  502  0.38627444725E+03 -0.78473486728E+02  0.35747289613E+02  0.39578264923E+03  0.00000000000E+00 0.  1.
         13    1    5    5    0    0 -0.12714246012E+03 -0.19947414868E+03 -0.19361502284E+03  0.30568270842E+03  0.00000000000E+00 0. -1.
        -13    1    5    5    0    0 -0.86621450132E+02 -0.88841176662E+02 -0.19322251734E+03  0.22963225274E+03  0.00000000000E+00 0.  1.
          3    1    6    6  503    0 -0.26288003315E+02  0.26851439060E+02 -0.15059655433E+02  0.40482738539E+02  0.00000000000E+00 0. -1.
         -3    1    6    6    0  503 -0.29217690408E+03  0.40007556148E+03  0.12280674047E+03  0.51040111057E+03  0.00000000000E+00 0.  1.
<mgrwt>
<rscale>  0 0.16197403E+04</rscale>
<asrwt>0</asrwt>
<pdfrwt beam="1">  1        2 0.10572195E+00 0.16197403E+04</pdfrwt>
<pdfrwt beam="2">  1       -1 0.14683815E+00 0.16197403E+04</pdfrwt>
<totfact> 0.16946837E+01</totfact>
</mgrwt>
</event>
<event>
12    7  0.1729738E-007  0.2469042E+04  0.7818608E-02  0.8414098E-01
         -1   -1    0    0    0  501 -0.00000000000E+00  0.00000000000E+00  0.51143139630E+03  0.51143139630E+03  0.00000000000E+00 0.  1.
          2   -1    0    0  501    0  0.00000000000E+00 -0.00000000000E+00 -0.29799533113E+04  0.29799533113E+04  0.00000000000E+00 0. -1.
         24    2    1    2    0    0 -0.75463482567E+03 -0.17478847684E+03 -0.21072341506E+04  0.22460184152E+04  0.64329031459E+02 0.  0.
        254    2    1    2    0    0  0.75463482567E+03  0.17478847684E+03 -0.36128776436E+03  0.12453662923E+04  0.90575030869E+03 0.  0.
         23    2    4    4    0    0  0.33961315502E+03  0.51046015131E+03 -0.54432488169E+02  0.62259866502E+03  0.93592418349E+02 0.  0.
         23    2    4    4    0    0  0.41502167065E+03 -0.33567167447E+03 -0.30685527619E+03  0.62276762733E+03  0.93599663301E+02 0.  0.
          2    1    3    3  502    0 -0.50885087036E+03 -0.10534529379E+03 -0.13307786766E+04  0.14286352667E+04  0.00000000000E+00 0. -1.
         -1    1    3    3    0  502 -0.24578395531E+03 -0.69443183049E+02 -0.77645547404E+03  0.81738314854E+03  0.00000000000E+00 0.  1.
         13    1    5    5    0    0  0.32329243086E+03  0.42950674417E+03 -0.49887928561E+02  0.53989151184E+03  0.00000000000E+00 0. -1.
        -13    1    5    5    0    0  0.16320724163E+02  0.80953407143E+02 -0.45445596082E+01  0.82707153181E+02  0.00000000000E+00 0.  1.
          2    1    6    6  503    0  0.41369417305E+03 -0.33052616184E+03 -0.31262909802E+03  0.61492061715E+03  0.00000000000E+00 0. -1.
         -2    1    6    6    0  503  0.13274975980E+01 -0.51455126351E+01  0.57738218274E+01  0.78470101723E+01  0.00000000000E+00 0.  1.
<mgrwt>
<rscale>  0 0.24690417E+04</rscale>
<asrwt>0</asrwt>
<pdfrwt beam="1">  1        2 0.45845435E+00 0.24690417E+04</pdfrwt>
<pdfrwt beam="2">  1       -1 0.78681754E-01 0.24690417E+04</pdfrwt>
<totfact> 0.29459568E+00</totfact>
</mgrwt>
</event>
<event>
12    7  0.1729738E-007  0.1608911E+04  0.7818608E-02  0.8815092E-01
         -1   -1    0    0    0  501 -0.00000000000E+00  0.00000000000E+00  0.65695955674E+03  0.65695955674E+03  0.00000000000E+00 0.  1.
          2   -1    0    0  501    0  0.00000000000E+00 -0.00000000000E+00 -0.98506594905E+03  0.98506594905E+03  0.00000000000E+00 0. -1.
         24    2    1    2    0    0 -0.41049725944E+03  0.28227904781E+03  0.12457126911E+03  0.51940139727E+03  0.77912448024E+02 0.  0.
        254    2    1    2    0    0  0.41049725944E+03 -0.28227904781E+03 -0.45267766142E+03  0.11226241085E+04  0.89843105635E+03 0.  0.
         23    2    4    4    0    0  0.58727787268E+02 -0.46051180150E+03 -0.53028812038E+03  0.71070062364E+03  0.91486684841E+02 0.  0.
         23    2    4    4    0    0  0.35176947217E+03  0.17823275369E+03  0.77610458958E+02  0.41192348487E+03  0.90271246847E+02 0.  0.
          2    1    3    3  502    0 -0.15833716831E+03  0.11463382467E+03  0.10282867433E+02  0.19574807787E+03  0.00000000000E+00 0. -1.
         -1    1    3    3    0  502 -0.25216009113E+03  0.16764522314E+03  0.11428840168E+03  0.32365331940E+03  0.00000000000E+00 0.  1.
         13    1    5    5    0    0  0.19146407449E+02 -0.37024561629E+03 -0.37932941874E+03  0.53041418648E+03  0.00000000000E+00 0. -1.
        -13    1    5    5    0    0  0.39581379819E+02 -0.90266185208E+02 -0.15095870164E+03  0.18028643715E+03  0.00000000000E+00 0.  1.
          4    1    6    6  503    0  0.29201982793E+03  0.12244969874E+03  0.31868181954E+02  0.31825318482E+03  0.00000000000E+00 0. -1.
         -4    1    6    6    0  503  0.59749644248E+02  0.55783054947E+02  0.45742277004E+02  0.93670300056E+02  0.00000000000E+00 0.  1.
<mgrwt>
<rscale>  0 0.16089108E+04</rscale>
<asrwt>0</asrwt>
<pdfrwt beam="1">  1        2 0.15154861E+00 0.16089108E+04</pdfrwt>
<pdfrwt beam="2">  1       -1 0.10107070E+00 0.16089108E+04</pdfrwt>
<totfact> 0.26195684E+01</totfact>
</mgrwt>
</event>
<event>
12    7  0.1729738E-007  0.1322872E+04  0.7818608E-02  0.9011621E-01
         -1   -1    0    0    0  501 -0.00000000000E+00  0.00000000000E+00  0.37269025241E+03  0.37269025241E+03  0.00000000000E+00 0.  1.
          2   -1    0    0  501    0  0.00000000000E+00 -0.00000000000E+00 -0.11738907862E+04  0.11738907862E+04  0.00000000000E+00 0. -1.
         24    2    1    2    0    0  0.13221300965E+03 -0.30928603269E+03 -0.27610829258E+03  0.44273644438E+03  0.81496257634E+02 0.  0.
        254    2    1    2    0    0 -0.13221300965E+03  0.30928603269E+03 -0.52509224125E+03  0.11038445943E+04  0.91083088253E+03 0.  0.
         23    2    4    4    0    0  0.15068344488E+03  0.21914652082E+03 -0.69522906605E+03  0.74996542231E+03  0.91509465264E+02 0.  0.
         23    2    4    4    0    0 -0.28289645453E+03  0.90139511877E+02  0.17013682480E+03  0.35387917197E+03  0.90157604329E+02 0.  0.
          2    1    3    3  502    0  0.76652811701E+02 -0.95460547502E+02 -0.12572113407E+03  0.17548268639E+03  0.00000000000E+00 0. -1.
         -1    1    3    3    0  502  0.55560197944E+02 -0.21382548519E+03 -0.15038715852E+03  0.26725375799E+03  0.00000000000E+00 0.  1.
         13    1    5    5    0    0  0.15432416152E+03  0.16631945884E+03 -0.59103126041E+03  0.63308455991E+03  0.00000000000E+00 0.  1.
        -13    1    5    5    0    0 -0.36407166383E+01  0.52827061976E+02 -0.10419780564E+03  0.11688086240E+03  0.00000000000E+00 0. -1.
          4    1    6    6  503    0 -0.24927329763E+03  0.43928745264E+02  0.14080556235E+03  0.28964308720E+03  0.00000000000E+00 0.  1.
         -4    1    6    6    0  503 -0.33623156898E+02  0.46210766613E+02  0.29331262444E+02  0.64236084775E+02  0.00000000000E+00 0. -1.
<mgrwt>
<rscale>  0 0.13228721E+04</rscale>
<asrwt>0</asrwt>
<pdfrwt beam="1">  1        2 0.18059858E+00 0.13228721E+04</pdfrwt>
<pdfrwt beam="2">  1       -1 0.57336963E-01 0.13228721E+04</pdfrwt>
<totfact> 0.67494299E+01</totfact>
</mgrwt>
</event>
<event>
12    7  0.1729738E-007  0.3001365E+04  0.7818608E-02  0.8243341E-01
         -1   -1    0    0    0  501 -0.00000000000E+00  0.00000000000E+00  0.11599606880E+04  0.11599606880E+04  0.00000000000E+00 0.  1.
          2   -1    0    0  501    0  0.00000000000E+00 -0.00000000000E+00 -0.19414861203E+04  0.19414861203E+04  0.00000000000E+00 0. -1.
         24    2    1    2    0    0 -0.12447865897E+04  0.53728473668E+03 -0.23136930921E+03  0.13777897192E+04  0.81266297367E+02 0.  0.
        254    2    1    2    0    0  0.12447865897E+04 -0.53728473668E+03 -0.55015612302E+03  0.17236570891E+04  0.91112757556E+03 0.  0.
         23    2    4    4    0    0  0.11877373402E+04 -0.35120767121E+03 -0.12622442321E+03  0.12483670983E+04  0.91765949389E+02 0.  0.
         23    2    4    4    0    0  0.57049249436E+02 -0.18607706548E+03 -0.42393169981E+03  0.47528999076E+03  0.91121885684E+02 0.  0.
          2    1    3    3  502    0 -0.37035724873E+02  0.25825796573E+02 -0.19591041307E+02  0.49218142844E+02  0.00000000000E+00 0. -1.
         -1    1    3    3    0  502 -0.12077508648E+04  0.51145894011E+03 -0.21177826791E+03  0.13285715764E+04  0.00000000000E+00 0.  1.
         13    1    5    5    0    0  0.15383217920E+03 -0.34957381972E+02  0.12809289546E+02  0.15827329468E+03  0.00000000000E+00 0. -1.
        -13    1    5    5    0    0  0.10339051610E+04 -0.31625028924E+03 -0.13903371275E+03  0.10900938036E+04  0.00000000000E+00 0.  1.
          3    1    6    6  503    0  0.39710292601E+02 -0.74673511728E+02 -0.93126964217E+02  0.12580012781E+03  0.00000000000E+00 0. -1.
         -3    1    6    6    0  503  0.17338956835E+02 -0.11140355375E+03 -0.33080473559E+03  0.34948986295E+03  0.00000000000E+00 0.  1.
<mgrwt>
<rscale>  0 0.30013647E+04</rscale>
<asrwt>0</asrwt>
<pdfrwt beam="1">  1        2 0.29869017E+00 0.30013647E+04</pdfrwt>
<pdfrwt beam="2">  1       -1 0.17845549E+00 0.30013647E+04</pdfrwt>
<totfact> 0.14971654E+00</totfact>
</mgrwt>
</event>
<event>
12    7  0.1729738E-007  0.2485962E+04  0.7818608E-02  0.8408004E-01
         -1   -1    0    0    0  501 -0.00000000000E+00  0.00000000000E+00  0.62513512530E+03  0.62513512530E+03  0.00000000000E+00 0.  1.
          2   -1    0    0  501    0  0.00000000000E+00 -0.00000000000E+00 -0.24714676506E+04  0.24714676506E+04  0.00000000000E+00 0. -1.
         24    2    1    2    0    0 -0.13222781897E+03  0.91238269836E+03 -0.96664244590E+02  0.93037795458E+03  0.79578752178E+02 0.  0.
        254    2    1    2    0    0  0.13222781897E+03 -0.91238269836E+03 -0.17496682807E+04  0.21662248213E+04  0.88389167865E+03 0.  0.
         23    2    4    4    0    0  0.30547413456E+03 -0.71193096852E+03 -0.17173603670E+04  0.18862216644E+04  0.91353086243E+02 0.  0.
         23    2    4    4    0    0 -0.17324631559E+03 -0.20045172984E+03 -0.32307913706E+02  0.28000315689E+03  0.84633236489E+02 0.  0.
          4    1    3    3  502    0 -0.62598168923E+02  0.28856590342E+03 -0.62095106945E+02  0.30173599996E+03  0.00000000000E+00 0. -1.
         -3    1    3    3    0  502 -0.69629650048E+02  0.62381679495E+03 -0.34569137645E+02  0.62864195461E+03  0.00000000000E+00 0.  1.
         13    1    5    5    0    0  0.22473264806E+03 -0.41079030984E+03 -0.10408972110E+04  0.11413677959E+04  0.00000000000E+00 0.  1.
        -13    1    5    5    0    0  0.80741486505E+02 -0.30114065868E+03 -0.67646315605E+03  0.74485386852E+03  0.00000000000E+00 0. -1.
          3    1    6    6  503    0 -0.16553824356E+03 -0.18370189732E+03 -0.52355757630E+02  0.25276554852E+03  0.00000000000E+00 0.  1.
         -3    1    6    6    0  503 -0.77080720301E+01 -0.16749832519E+02  0.20047843924E+02  0.27237608372E+02  0.00000000000E+00 0. -1.
<mgrwt>
<rscale>  0 0.24859616E+04</rscale>
<asrwt>0</asrwt>
<pdfrwt beam="1">  1        2 0.38022579E+00 0.24859616E+04</pdfrwt>
<pdfrwt beam="2">  1       -1 0.96174635E-01 0.24859616E+04</pdfrwt>
<totfact> 0.38243438E+00</totfact>
</mgrwt>
</event>
<event>
12    7  0.1729738E-007  0.1584841E+04  0.7818608E-02  0.8829915E-01
         -1   -1    0    0    0  501 -0.00000000000E+00  0.00000000000E+00  0.10516234979E+04  0.10516234979E+04  0.00000000000E+00 0.  1.
          2   -1    0    0  501    0  0.00000000000E+00 -0.00000000000E+00 -0.59710579296E+03  0.59710579296E+03  0.00000000000E+00 0. -1.
         24    2    1    2    0    0  0.32648406637E+03  0.33258149278E+02  0.58333650054E+03  0.67402550250E+03  0.79567299005E+02 0.  0.
        254    2    1    2    0    0 -0.32648406637E+03 -0.33258149278E+02 -0.12881879555E+03  0.97470378840E+03  0.90871075868E+03 0.  0.
         23    2    4    4    0    0  0.19202407392E+03 -0.11742810120E+03 -0.32555990048E+03  0.40626853042E+03  0.91663875613E+02 0.  0.
         23    2    4    4    0    0 -0.51850814029E+03  0.84169951925E+02  0.19674110493E+03  0.56843525798E+03  0.92066865885E+02 0.  0.
          2    1    3    3  502    0  0.12538971165E+03  0.33633133156E+02  0.29694863664E+03  0.32408680973E+03  0.00000000000E+00 0. -1.
         -1    1    3    3    0  502  0.20109435472E+03 -0.37498387811E+00  0.28638786389E+03  0.34993869277E+03  0.00000000000E+00 0.  1.
         13    1    5    5    0    0  0.73167469725E+02 -0.60069546070E+01 -0.60436383700E+02  0.95090055233E+02  0.00000000000E+00 0. -1.
        -13    1    5    5    0    0  0.11885660419E+03 -0.11142114660E+03 -0.26512351678E+03  0.31117847519E+03  0.00000000000E+00 0.  1.
          1    1    6    6  503    0 -0.14514939650E+03  0.98405696440E+01  0.13982487684E+02  0.14615298176E+03  0.00000000000E+00 0. -1.
         -1    1    6    6    0  503 -0.37335874379E+03  0.74329382281E+02  0.18275861724E+03  0.42228227622E+03  0.00000000000E+00 0.  1.
<mgrwt>
<rscale>  0 0.15848413E+04</rscale>
<asrwt>0</asrwt>
<pdfrwt beam="1">  1        2 0.91862430E-01 0.15848413E+04</pdfrwt>
<pdfrwt beam="2">  1       -1 0.16178823E+00 0.15848413E+04</pdfrwt>
<totfact> 0.15501683E+01</totfact>
</mgrwt>
</event>
<event>
12    7  0.1729738E-007  0.1515305E+04  0.7818608E-02  0.8874339E-01
         -1   -1    0    0    0  501 -0.00000000000E+00  0.00000000000E+00  0.10313849627E+04  0.10313849627E+04  0.00000000000E+00 0.  1.
          2   -1    0    0  501    0  0.00000000000E+00 -0.00000000000E+00 -0.55656931408E+03  0.55656931408E+03  0.00000000000E+00 0. -1.
         24    2    1    2    0    0 -0.16774778662E+03  0.37544573095E+03 -0.12842582680E+03  0.43799880564E+03  0.79062911339E+02 0.  0.
        254    2    1    2    0    0  0.16774778662E+03 -0.37544573095E+03  0.60324147545E+03  0.11499554712E+04  0.88848100215E+03 0.  0.
         23    2    4    4    0    0  0.26560909322E+03 -0.62598916690E+03  0.49727364272E+03  0.84714552912E+03  0.89240373649E+02 0.  0.
         23    2    4    4    0    0 -0.97861306607E+02  0.25054343596E+03  0.10596783273E+03  0.30280994205E+03  0.90087905949E+02 0.  0.
          2    1    3    3  502    0 -0.13912216214E+03  0.24648694303E+03 -0.60387664242E+02  0.28940880960E+03  0.00000000000E+00 0. -1.
         -1    1    3    3    0  502 -0.28625624480E+02  0.12895878791E+03 -0.68038162559E+02  0.14858999603E+03  0.00000000000E+00 0.  1.
         13    1    5    5    0    0  0.79450781249E+02 -0.14167791490E+03  0.78678084337E+02  0.18048628526E+03  0.00000000000E+00 0.  1.
        -13    1    5    5    0    0  0.18615831197E+03 -0.48431125200E+03  0.41859555838E+03  0.66665924386E+03  0.00000000000E+00 0. -1.
          1    1    6    6  503    0 -0.89922244625E+01  0.58550466417E+02 -0.12203120334E+02  0.60480851220E+02  0.00000000000E+00 0. -1.
         -1    1    6    6    0  503 -0.88869082144E+02  0.19199296954E+03  0.11817095306E+03  0.24232909083E+03  0.00000000000E+00 0.  1.
<mgrwt>
<rscale>  0 0.15153049E+04</rscale>
<asrwt>0</asrwt>
<pdfrwt beam="1">  1        2 0.85626049E-01 0.15153049E+04</pdfrwt>
<pdfrwt beam="2">  1       -1 0.15867461E+00 0.15153049E+04</pdfrwt>
<totfact> 0.17907158E+01</totfact>
</mgrwt>
</event>
<event>
12    7  0.1729738E-007  0.1847578E+04  0.7818608E-02  0.8681399E-01
         -1   -1    0    0    0  501 -0.00000000000E+00  0.00000000000E+00  0.10679387699E+04  0.10679387699E+04  0.00000000000E+00 0.  1.
          2   -1    0    0  501    0  0.00000000000E+00 -0.00000000000E+00 -0.79909644006E+03  0.79909644006E+03  0.00000000000E+00 0. -1.
         24    2    1    2    0    0 -0.13807458313E+03  0.68082301159E+03  0.10578244024E+02  0.69941786942E+03  0.80553666620E+02 0.  0.
        254    2    1    2    0    0  0.13807458313E+03 -0.68082301159E+03  0.25826408582E+03  0.11676173405E+04  0.90224461888E+03 0.  0.
         23    2    4    4    0    0 -0.34844583468E+03 -0.28311024329E+03  0.26461630038E+03  0.53084280230E+03  0.10102665375E+03 0.  0.
         23    2    4    4    0    0  0.48652041780E+03 -0.39771276830E+03 -0.63522145653E+01  0.63677453824E+03  0.10278082952E+03 0.  0.
          4    1    3    3  502    0 -0.14489710437E+03  0.63479967214E+03  0.22044081727E+02  0.65149960563E+03  0.00000000000E+00 0. -1.
         -3    1    3    3    0  502  0.68225212424E+01  0.46023339451E+02 -0.11465837703E+02  0.47918263789E+02  0.00000000000E+00 0.  1.
         13    1    5    5    0    0 -0.13183174889E+03 -0.16280311074E+03  0.91618809818E+02  0.22864485385E+03  0.00000000000E+00 0.  1.
        -13    1    5    5    0    0 -0.21661408579E+03 -0.12030713255E+03  0.17299749057E+03  0.30219794845E+03  0.00000000000E+00 0. -1.
          3    1    6    6  503    0  0.31512610912E+03 -0.31735768240E+03 -0.11947796807E+02  0.44739592429E+03  0.00000000000E+00 0. -1.
         -3    1    6    6    0  503  0.17139430869E+03 -0.80355085892E+02  0.55955822416E+01  0.18937861395E+03  0.00000000000E+00 0.  1.
<mgrwt>
<rscale>  0 0.18475779E+04</rscale>
<asrwt>0</asrwt>
<pdfrwt beam="1">  1        2 0.12293791E+00 0.18475779E+04</pdfrwt>
<pdfrwt beam="2">  1       -1 0.16429827E+00 0.18475779E+04</pdfrwt>
<totfact> 0.10045198E+01</totfact>
</mgrwt>
</event>
<event>
12    7  0.1729738E-007  0.1455565E+04  0.7818608E-02  0.8914551E-01
          2   -1    0    0  501    0  0.00000000000E+00  0.00000000000E+00  0.49242561048E+03  0.49242561048E+03  0.00000000000E+00 0. -1.
         -1   -1    0    0    0  501 -0.00000000000E+00 -0.00000000000E+00 -0.10756295328E+04  0.10756295328E+04  0.00000000000E+00 0.  1.
         24    2    1    2    0    0  0.16532951702E+03 -0.79224324801E+02  0.25231205881E+03  0.32252451644E+03  0.82160488332E+02 0.  0.
        254    2    1    2    0    0 -0.16532951702E+03  0.79224324801E+02 -0.83551598115E+03  0.12455306269E+04  0.90534482097E+03 0.  0.
         23    2    4    4    0    0 -0.42841094381E+03  0.29164798520E+03 -0.68598070472E+03  0.86453264217E+03  0.90844251727E+02 0.  0.
         23    2    4    4    0    0  0.26308142679E+03 -0.21242366040E+03 -0.14953527643E+03  0.38099798470E+03  0.91994656515E+02 0.  0.
          2    1    3    3  502    0  0.17441674261E+03 -0.71467903694E+02  0.24197560427E+03  0.30672635104E+03  0.00000000000E+00 0. -1.
         -1    1    3    3    0  502 -0.90872255919E+01 -0.77564211074E+01  0.10336454540E+02  0.15798165394E+02  0.00000000000E+00 0.  1.
         13    1    5    5    0    0 -0.12184097897E+03  0.62841546283E+02 -0.24502423946E+03  0.28076887652E+03  0.00000000000E+00 0.  1.
        -13    1    5    5    0    0 -0.30656996484E+03  0.22880643892E+03 -0.44095646526E+03  0.58376376565E+03  0.00000000000E+00 0. -1.
          3    1    6    6  503    0  0.20833234371E+03 -0.17902909405E+03 -0.15707305567E+03  0.31642649505E+03  0.00000000000E+00 0. -1.
         -3    1    6    6    0  503  0.54749083078E+02 -0.33394566352E+02  0.75377792366E+01  0.64571489649E+02  0.00000000000E+00 0.  1.
<mgrwt>
<rscale>  0 0.14555652E+04</rscale>
<asrwt>0</asrwt>
<pdfrwt beam="1">  1        2 0.75757786E-01 0.14555652E+04</pdfrwt>
<pdfrwt beam="2">  1       -1 0.16548147E+00 0.14555652E+04</pdfrwt>
<totfact> 0.18464669E+01</totfact>
</mgrwt>
</event>
<event>
12    7  0.1729738E-007  0.1896227E+04  0.7818608E-02  0.8656737E-01
          2   -1    0    0  501    0  0.00000000000E+00  0.00000000000E+00  0.17795080789E+04  0.17795080789E+04  0.00000000000E+00 0. -1.
         -1   -1    0    0    0  501 -0.00000000000E+00 -0.00000000000E+00 -0.50515017585E+03  0.50515017585E+03  0.00000000000E+00 0.  1.
         24    2    1    2    0    0  0.38645809697E+03 -0.29438644839E+03 -0.17979942950E+03  0.52406042649E+03  0.79361540144E+02 0.  0.
        254    2    1    2    0    0 -0.38645809697E+03  0.29438644839E+03  0.14541573326E+04  0.17605978283E+04  0.86551598675E+03 0.  0.
         23    2    4    4    0    0 -0.29673169545E+02 -0.26189921438E+03  0.70129393504E+03  0.75468712894E+03  0.90927354410E+02 0.  0.
         23    2    4    4    0    0 -0.35678492742E+03  0.55628566277E+03  0.75286339751E+03  0.10059106993E+04  0.91125279920E+02 0.  0.
          2    1    3    3  502    0  0.30765339114E+03 -0.25738277126E+03 -0.17268192005E+03  0.43670991004E+03  0.00000000000E+00 0. -1.
         -1    1    3    3    0  502  0.78804705832E+02 -0.37003677136E+02 -0.71175094528E+01  0.87350516447E+02  0.00000000000E+00 0.  1.
         13    1    5    5    0    0 -0.47052793910E+02 -0.25495126426E+03  0.63740097876E+03  0.68810909040E+03  0.00000000000E+00 0.  1.
        -13    1    5    5    0    0  0.17379624365E+02 -0.69479501164E+01  0.63892956282E+02  0.66578038543E+02  0.00000000000E+00 0. -1.
          4    1    6    6  503    0 -0.24529968473E+03  0.33256474776E+03  0.52080102909E+03  0.66483453482E+03  0.00000000000E+00 0. -1.
         -4    1    6    6    0  503 -0.11148524269E+03  0.22372091501E+03  0.23206236842E+03  0.34107616450E+03  0.00000000000E+00 0.  1.
<mgrwt>
<rscale>  0 0.18962266E+04</rscale>
<asrwt>0</asrwt>
<pdfrwt beam="1">  1        2 0.27377047E+00 0.18962266E+04</pdfrwt>
<pdfrwt beam="2">  1       -1 0.77715412E-01 0.18962266E+04</pdfrwt>
<totfact> 0.15678040E+01</totfact>
</mgrwt>
</event>
<event>
12    7  0.1729738E-007  0.1804748E+04  0.7818608E-02  0.8703779E-01
         -3   -1    0    0    0  501 -0.00000000000E+00  0.00000000000E+00  0.38451367556E+03  0.38451367556E+03  0.00000000000E+00 0.  1.
          2   -1    0    0  501    0  0.00000000000E+00 -0.00000000000E+00 -0.21176844694E+04  0.21176844694E+04  0.00000000000E+00 0. -1.
         24    2    1    2    0    0 -0.12231655748E+03  0.15807859304E+03 -0.15451756549E+04  0.15601136398E+04  0.80228315530E+02 0.  0.
        254    2    1    2    0    0  0.12231655748E+03 -0.15807859304E+03 -0.18799513886E+03  0.94208450514E+03  0.90123851493E+03 0.  0.
         23    2    4    4    0    0 -0.10268723897E+03 -0.22520193517E+03 -0.48535646048E+03  0.55310709244E+03  0.95372854197E+02 0.  0.
         23    2    4    4    0    0  0.22500379645E+03  0.67123342132E+02  0.29736132163E+03  0.38897741271E+03  0.88019432651E+02 0.  0.
          2    1    3    3  502    0 -0.10755627726E+03  0.16586143662E+03 -0.14596493183E+04  0.14729747117E+04  0.00000000000E+00 0. -1.
         -1    1    3    3    0  502 -0.14760280211E+02 -0.77828435835E+01 -0.85526336670E+02  0.87138928100E+02  0.00000000000E+00 0.  1.
         13    1    5    5    0    0 -0.68639617091E+02 -0.12999055280E+03 -0.18564097483E+03  0.23679424061E+03  0.00000000000E+00 0. -1.
        -13    1    5    5    0    0 -0.34047621881E+02 -0.95211382371E+02 -0.29971548565E+03  0.31631285182E+03  0.00000000000E+00 0.  1.
          1    1    6    6  503    0  0.90857528702E+02  0.50519192848E+00  0.61987806374E+02  0.10999015356E+03  0.00000000000E+00 0. -1.
         -1    1    6    6    0  503  0.13414626774E+03  0.66618150204E+02  0.23537351525E+03  0.27898725915E+03  0.00000000000E+00 0.  1.
<mgrwt>
<rscale>  0 0.18047478E+04</rscale>
<asrwt>0</asrwt>
<pdfrwt beam="1">  1        2 0.32579760E+00 0.18047478E+04</pdfrwt>
<pdfrwt beam="2">  1       -3 0.59155952E-01 0.18047478E+04</pdfrwt>
<totfact> 0.97330773E+00</totfact>
</mgrwt>
</event>
<event>
12    7  0.1729738E-007  0.2114981E+04  0.7818608E-02  0.8554673E-01
         -1   -1    0    0    0  501 -0.00000000000E+00  0.00000000000E+00  0.54990807016E+03  0.54990807016E+03  0.00000000000E+00 0.  1.
          2   -1    0    0  501    0  0.00000000000E+00 -0.00000000000E+00 -0.20335881043E+04  0.20335881043E+04  0.00000000000E+00 0. -1.
         24    2    1    2    0    0  0.48272898300E+03 -0.71709521994E+03 -0.54312875859E+03  0.10240101423E+04  0.79718866625E+02 0.  0.
        254    2    1    2    0    0 -0.48272898300E+03  0.71709521994E+03 -0.94055127558E+03  0.15594860322E+04  0.89448709161E+03 0.  0.
         23    2    4    4    0    0 -0.19050955232E+03  0.82862366388E+03 -0.43750945336E+03  0.96038604463E+03  0.89530816313E+02 0.  0.
         23    2    4    4    0    0 -0.29221943069E+03 -0.11152844395E+03 -0.50304182222E+03  0.59909998754E+03  0.89660084151E+02 0.  0.
          4    1    3    3  502    0  0.38139942834E+03 -0.52033131739E+03 -0.43134660665E+03  0.77606062834E+03  0.00000000000E+00 0. -1.
         -3    1    3    3    0  502  0.10132955466E+03 -0.19676390254E+03 -0.11178215194E+03  0.24794951398E+03  0.00000000000E+00 0.  1.
         13    1    5    5    0    0 -0.18655720597E+03  0.80140324751E+03 -0.40289644872E+03  0.91617482208E+03  0.00000000000E+00 0. -1.
        -13    1    5    5    0    0 -0.39523463428E+01  0.27220416376E+02 -0.34613004646E+02  0.44211222556E+02  0.00000000000E+00 0.  1.
          4    1    6    6  503    0 -0.27594404943E+03 -0.12607061269E+03 -0.47392382991E+03  0.56271015129E+03  0.00000000000E+00 0. -1.
         -4    1    6    6    0  503 -0.16275381258E+02  0.14542168743E+02 -0.29117992305E+02  0.36389836256E+02  0.00000000000E+00 0.  1.
<mgrwt>
<rscale>  0 0.21149813E+04</rscale>
<asrwt>0</asrwt>
<pdfrwt beam="1">  1        2 0.31285971E+00 0.21149813E+04</pdfrwt>
<pdfrwt beam="2">  1       -1 0.84601242E-01 0.21149813E+04</pdfrwt>
<totfact> 0.92735657E+00</totfact>
</mgrwt>
</event>
<event>
12    7  0.1729738E-007  0.1192802E+04  0.7818608E-02  0.9119181E-01
          2   -1    0    0  501    0  0.00000000000E+00  0.00000000000E+00  0.13683453839E+04  0.13683453839E+04  0.00000000000E+00 0. -1.
         -1   -1    0    0    0  501 -0.00000000000E+00 -0.00000000000E+00 -0.25994460169E+03  0.25994460169E+03  0.00000000000E+00 0.  1.
         24    2    1    2    0    0 -0.10022202524E+03 -0.17941488995E+03  0.32644676386E+03  0.39391689512E+03  0.79805222530E+02 0.  0.
        254    2    1    2    0    0  0.10022202524E+03  0.17941488995E+03  0.78195401837E+03  0.12343730905E+04  0.93273291066E+03 0.  0.
         23    2    4    4    0    0 -0.25686053174E+03  0.15689951647E+03 -0.55673643663E+02  0.31926942013E+03  0.90766827622E+02 0.  0.
         23    2    4    4    0    0  0.35708255698E+03  0.22515373477E+02  0.83762766203E+03  0.91510367037E+03  0.88202793502E+02 0.  0.
          2    1    3    3  502    0 -0.45592664677E+02 -0.52497003877E+02  0.17807847835E+03  0.19117157461E+03  0.00000000000E+00 0. -1.
         -1    1    3    3    0  502 -0.54629360567E+02 -0.12691788607E+03  0.14836828552E+03  0.20274532051E+03  0.00000000000E+00 0.  1.
         13    1    5    5    0    0 -0.40735639706E+02  0.66487665790E+02 -0.30184988629E+02  0.83613010847E+02  0.00000000000E+00 0. -1.
        -13    1    5    5    0    0 -0.21612489203E+03  0.90411850679E+02 -0.25488655034E+02  0.23565640928E+03  0.00000000000E+00 0.  1.
          2    1    6    6  503    0  0.57478694431E+02  0.36275255557E+02  0.13509898519E+03  0.15123303302E+03  0.00000000000E+00 0. -1.
         -2    1    6    6    0  503  0.29960386255E+03 -0.13759882080E+02  0.70252867685E+03  0.76387063735E+03  0.00000000000E+00 0.  1.
<mgrwt>
<rscale>  0 0.11928017E+04</rscale>
<asrwt>0</asrwt>
<pdfrwt beam="1">  1        2 0.21051467E+00 0.11928017E+04</pdfrwt>
<pdfrwt beam="2">  1       -1 0.39991478E-01 0.11928017E+04</pdfrwt>
<totfact> 0.10338210E+02</totfact>
</mgrwt>
</event>
<event>
12    7  0.1729738E-007  0.1763068E+04  0.7818608E-02  0.8726190E-01
         -1   -1    0    0    0  501 -0.00000000000E+00  0.00000000000E+00  0.60826972798E+03  0.60826972798E+03  0.00000000000E+00 0.  1.
          2   -1    0    0  501    0  0.00000000000E+00 -0.00000000000E+00 -0.12775614647E+04  0.12775614647E+04  0.00000000000E+00 0. -1.
         24    2    1    2    0    0 -0.47454971717E+03 -0.32903144200E+03 -0.55872151168E+03  0.80797271210E+03  0.84800070795E+02 0.  0.
        254    2    1    2    0    0  0.47454971717E+03  0.32903144200E+03 -0.11057022504E+03  0.10778584806E+04  0.90337921473E+03 0.  0.
         23    2    4    4    0    0  0.46972197037E+03  0.90688391434E+02 -0.44319931839E+03  0.65866168598E+03  0.92447103631E+02 0.  0.
         23    2    4    4    0    0  0.48277467939E+01  0.23834305056E+03  0.33262909335E+03  0.41919679459E+03  0.90846694862E+02 0.  0.
          2    1    3    3  502    0 -0.33769224461E+03 -0.21061061111E+03 -0.42982844299E+03  0.58578611454E+03  0.00000000000E+00 0. -1.
         -1    1    3    3    0  502 -0.13685747256E+03 -0.11842083088E+03 -0.12889306869E+03  0.22218659757E+03  0.00000000000E+00 0.  1.
         13    1    5    5    0    0  0.32946607782E+03  0.29961729605E+02 -0.33906523825E+03  0.47372021011E+03  0.00000000000E+00 0.  1.
        -13    1    5    5    0    0  0.14025589255E+03  0.60726661830E+02 -0.10413408014E+03  0.18494147588E+03  0.00000000000E+00 0. -1.
          3    1    6    6  503    0 -0.19351902450E+02  0.93786421302E+02  0.19907131948E+03  0.22090672056E+03  0.00000000000E+00 0. -1.
         -3    1    6    6    0  503  0.24179649244E+02  0.14455662926E+03  0.13355777387E+03  0.19829007404E+03  0.00000000000E+00 0.  1.
<mgrwt>
<rscale>  0 0.17630677E+04</rscale>
<asrwt>0</asrwt>
<pdfrwt beam="1">  1        2 0.19654792E+00 0.17630677E+04</pdfrwt>
<pdfrwt beam="2">  1       -1 0.93579959E-01 0.17630677E+04</pdfrwt>
<totfact> 0.20372613E+01</totfact>
</mgrwt>
</event>
<event>
12    7  0.1729738E-007  0.1202743E+04  0.7818608E-02  0.9110459E-01
         -1   -1    0    0    0  501 -0.00000000000E+00  0.00000000000E+00  0.10316610899E+03  0.10316610899E+03  0.00000000000E+00 0.  1.
          2   -1    0    0  501    0  0.00000000000E+00 -0.00000000000E+00 -0.35054916811E+04  0.35054916811E+04  0.00000000000E+00 0. -1.
         24    2    1    2    0    0 -0.23069566776E+03 -0.48406054714E+02 -0.39558886278E+03  0.46725587013E+03  0.79207717750E+02 0.  0.
        254    2    1    2    0    0  0.23069566776E+03  0.48406054714E+02 -0.30067367093E+04  0.31414019199E+04  0.87884967214E+03 0.  0.
         23    2    4    4    0    0  0.17118305397E+03 -0.39944508878E+03 -0.13556554207E+04  0.14265552139E+04  0.91641375966E+02 0.  0.
         23    2    4    4    0    0  0.59512613791E+02  0.44785114350E+03 -0.16510812886E+04  0.17148467060E+04  0.10255440307E+03 0.  0.
          4    1    3    3  502    0 -0.42809192629E+02 -0.36304699017E+02 -0.13098546520E+03  0.14250561476E+03  0.00000000000E+00 0. -1.
         -3    1    3    3    0  502 -0.18788647514E+03 -0.12101355697E+02 -0.26460339759E+03  0.32475025537E+03  0.00000000000E+00 0.  1.
         13    1    5    5    0    0  0.15572874186E+03 -0.26283196581E+03 -0.88610283612E+03  0.93728881326E+03  0.00000000000E+00 0. -1.
        -13    1    5    5    0    0  0.15454312117E+02 -0.13661312298E+03 -0.46955258456E+03  0.48926640064E+03  0.00000000000E+00 0.  1.
          2    1    6    6  503    0  0.75859270255E+02  0.19158501066E+03 -0.77226656973E+03  0.79928411714E+03  0.00000000000E+00 0.  1.
         -2    1    6    6    0  503 -0.16346656465E+02  0.25626613284E+03 -0.87881471889E+03  0.91556258888E+03  0.00000000000E+00 0. -1.
<mgrwt>
<rscale>  0 0.12027434E+04</rscale>
<asrwt>0</asrwt>
<pdfrwt beam="1">  1        2 0.53930639E+00 0.12027434E+04</pdfrwt>
<pdfrwt beam="2">  1       -1 0.15871710E-01 0.12027434E+04</pdfrwt>
<totfact> 0.27873067E+01</totfact>
</mgrwt>
</event>
<event>
12    7  0.1729738E-007  0.1983473E+04  0.7818608E-02  0.8614387E-01
          2   -1    0    0  501    0  0.00000000000E+00  0.00000000000E+00  0.86390043747E+03  0.86390043747E+03  0.00000000000E+00 0. -1.
         -1   -1    0    0    0  501 -0.00000000000E+00 -0.00000000000E+00 -0.11384895180E+04  0.11384895180E+04  0.00000000000E+00 0.  1.
         24    2    1    2    0    0 -0.55488383222E+03 -0.39673402050E+03  0.29133228887E+03  0.74575275336E+03  0.77322159354E+02 0.  0.
        254    2    1    2    0    0  0.55488383222E+03  0.39673402050E+03 -0.56592136937E+03  0.12566372021E+04  0.89082888989E+03 0.  0.
         23    2    4    4    0    0  0.40234500221E+02 -0.17290129906E+03 -0.42741429532E+03  0.47145314885E+03  0.89841067980E+02 0.  0.
         23    2    4    4    0    0  0.51464933200E+03  0.56963531956E+03 -0.13850707405E+03  0.78518405322E+03  0.89338992962E+02 0.  0.
          4    1    3    3  502    0 -0.47164610467E+03 -0.32849439882E+03  0.27397897105E+03  0.63672843087E+03  0.00000000000E+00 0. -1.
         -3    1    3    3    0  502 -0.83237727550E+02 -0.68239621682E+02  0.17353317827E+02  0.10902432249E+03  0.00000000000E+00 0.  1.
         13    1    5    5    0    0  0.30491484877E+02 -0.16037784846E+03 -0.42516239091E+03  0.45542710017E+03  0.00000000000E+00 0. -1.
        -13    1    5    5    0    0  0.97430153438E+01 -0.12523450598E+02 -0.22519044101E+01  0.16026048681E+02  0.00000000000E+00 0.  1.
          1    1    6    6  503    0  0.34325388850E+03  0.31473956944E+03 -0.84147310584E+02  0.47324940404E+03  0.00000000000E+00 0. -1.
         -1    1    6    6    0  503  0.17139544349E+03  0.25489575012E+03 -0.54359763466E+02  0.31193464919E+03  0.00000000000E+00 0.  1.
<mgrwt>
<rscale>  0 0.19834733E+04</rscale>
<asrwt>0</asrwt>
<pdfrwt beam="1">  1        2 0.13290776E+00 0.19834733E+04</pdfrwt>
<pdfrwt beam="2">  1       -1 0.17515223E+00 0.19834733E+04</pdfrwt>
<totfact> 0.74338144E+00</totfact>
</mgrwt>
</event>
<event>
12    7  0.1729738E-007  0.2734792E+04  0.7818608E-02  0.8323804E-01
          2   -1    0    0  501    0  0.00000000000E+00  0.00000000000E+00  0.28541336550E+04  0.28541336550E+04  0.00000000000E+00 0. -1.
         -1   -1    0    0    0  501 -0.00000000000E+00 -0.00000000000E+00 -0.65510992511E+03  0.65510992511E+03  0.00000000000E+00 0.  1.
         24    2    1    2    0    0  0.64312235636E+03 -0.95518716436E+03  0.14792261816E+04  0.18761685659E+04  0.76873319158E+02 0.  0.
        254    2    1    2    0    0 -0.64312235636E+03  0.95518716436E+03  0.71979754827E+03  0.16330750142E+04  0.90710341594E+03 0.  0.
         23    2    4    4    0    0 -0.16066681156E+03  0.53062433743E+03 -0.11587405127E+03  0.57495759715E+03  0.98860664332E+02 0.  0.
         23    2    4    4    0    0 -0.48245554480E+03  0.42456282693E+03  0.83567159955E+03  0.10581174170E+04  0.90821248593E+02 0.  0.
          2    1    3    3  502    0  0.60695900495E+03 -0.86618342819E+03  0.13431869595E+04  0.17096269105E+04  0.00000000000E+00 0. -1.
         -1    1    3    3    0  502  0.36163351408E+02 -0.89003736172E+02  0.13603922206E+03  0.16654165538E+03  0.00000000000E+00 0.  1.
         13    1    5    5    0    0 -0.10128087017E+03  0.36351461155E+03 -0.12458924782E+03  0.39739548079E+03  0.00000000000E+00 0. -1.
        -13    1    5    5    0    0 -0.59385941388E+02  0.16710972588E+03  0.87151965486E+01  0.17756211637E+03  0.00000000000E+00 0.  1.
          4    1    6    6  503    0 -0.65947490479E+01  0.13835580012E+02  0.47861742729E+02  0.50255948965E+02  0.00000000000E+00 0.  1.
         -4    1    6    6    0  503 -0.47586079575E+03  0.41072724692E+03  0.78780985682E+03  0.10078614681E+04  0.00000000000E+00 0. -1.
<mgrwt>
<rscale>  0 0.27347916E+04</rscale>
<asrwt>0</asrwt>
<pdfrwt beam="1">  1        2 0.43909748E+00 0.27347916E+04</pdfrwt>
<pdfrwt beam="2">  1       -1 0.10078614E+00 0.27347916E+04</pdfrwt>
<totfact> 0.19947721E+00</totfact>
</mgrwt>
</event>
<event>
12    7  0.1729738E-007  0.2109417E+04  0.7818608E-02  0.8557106E-01
          2   -1    0    0  501    0  0.00000000000E+00  0.00000000000E+00  0.46995187965E+03  0.46995187965E+03  0.00000000000E+00 0. -1.
         -1   -1    0    0    0  501 -0.00000000000E+00 -0.00000000000E+00 -0.23670725264E+04  0.23670725264E+04  0.00000000000E+00 0.  1.
         24    2    1    2    0    0 -0.29842498175E+03  0.12693516944E+03  0.29827435500E+03  0.44789943864E+03  0.80475519981E+02 0.  0.
        254    2    1    2    0    0  0.29842498175E+03 -0.12693516944E+03 -0.21953950018E+04  0.23891249675E+04  0.88486659405E+03 0.  0.
         23    2    4    4    0    0 -0.80597949083E+02 -0.20967490648E+03 -0.11061883634E+03  0.26631181047E+03  0.90696513942E+02 0.  0.
         23    2    4    4    0    0  0.37902293083E+03  0.82739737037E+02 -0.20847761654E+04  0.21228131570E+04  0.97671865252E+02 0.  0.
          4    1    3    3  502    0 -0.12469606413E+03  0.41637278348E+02  0.17328186789E+03  0.21750718861E+03  0.00000000000E+00 0. -1.
         -3    1    3    3    0  502 -0.17372891762E+03  0.85297891091E+02  0.12499248710E+03  0.23039225003E+03  0.00000000000E+00 0.  1.
         13    1    5    5    0    0 -0.49270582164E+02 -0.25647265867E+02 -0.23623590105E+02  0.60360968537E+02  0.00000000000E+00 0. -1.
        -13    1    5    5    0    0 -0.31327366919E+02 -0.18402764061E+03 -0.86995246238E+02  0.20595084194E+03  0.00000000000E+00 0.  1.
          2    1    6    6  503    0  0.31631893285E+03  0.29311029136E+02 -0.16576376206E+04  0.16878030943E+04  0.00000000000E+00 0. -1.
         -2    1    6    6    0  503  0.62703997989E+02  0.53428707901E+02 -0.42713854483E+03  0.43501006272E+03  0.00000000000E+00 0.  1.
<mgrwt>
<rscale>  0 0.21094172E+04</rscale>
<asrwt>0</asrwt>
<pdfrwt beam="1">  1        2 0.72300288E-01 0.21094172E+04</pdfrwt>
<pdfrwt beam="2">  1       -1 0.36416501E+00 0.21094172E+04</pdfrwt>
<totfact> 0.87131258E-01</totfact>
</mgrwt>
</event>
<event>
12    7  0.1729738E-007  0.1566708E+04  0.7818608E-02  0.8841266E-01
          2   -1    0    0  501    0  0.00000000000E+00  0.00000000000E+00  0.19275710914E+04  0.19275710914E+04  0.00000000000E+00 0. -1.
         -1   -1    0    0    0  501 -0.00000000000E+00 -0.00000000000E+00 -0.31835047954E+03  0.31835047954E+03  0.00000000000E+00 0.  1.
         24    2    1    2    0    0  0.41509389446E+03 -0.20042983788E+03  0.88753287434E+03  0.10031438793E+04  0.78153556346E+02 0.  0.
        254    2    1    2    0    0 -0.41509389446E+03  0.20042983788E+03  0.72168773755E+03  0.12427776917E+04  0.90065983551E+03 0.  0.
         23    2    4    4    0    0 -0.43003434151E+03  0.28396928215E+03  0.89086826001E+03  0.10333366690E+04  0.92576058728E+02 0.  0.
         23    2    4    4    0    0  0.14940447051E+02 -0.83539444261E+02 -0.16918052246E+03  0.20944102273E+03  0.89674060444E+02 0.  0.
          4    1    3    3  502    0  0.27929926033E+03 -0.17034157759E+03  0.58761852004E+03  0.67254728828E+03  0.00000000000E+00 0. -1.
         -3    1    3    3    0  502  0.13579463413E+03 -0.30088260291E+02  0.29991435430E+03  0.33059659100E+03  0.00000000000E+00 0.  1.
         13    1    5    5    0    0 -0.23937422449E+02  0.28056565595E+02  0.11713962800E+03  0.12280823878E+03  0.00000000000E+00 0. -1.
        -13    1    5    5    0    0 -0.40609691906E+03  0.25591271655E+03  0.77372863201E+03  0.91052843018E+03  0.00000000000E+00 0.  1.
          3    1    6    6  503    0  0.50876063277E+01  0.38507340498E+01 -0.92623461985E+02  0.92842972814E+02  0.00000000000E+00 0. -1.
         -3    1    6    6    0  503  0.98528407232E+01 -0.87390178311E+02 -0.76557060475E+02  0.11659804992E+03  0.00000000000E+00 0.  1.
<mgrwt>
<rscale>  0 0.15667076E+04</rscale>
<asrwt>0</asrwt>
<pdfrwt beam="1">  1        2 0.29654939E+00 0.15667076E+04</pdfrwt>
<pdfrwt beam="2">  1       -1 0.48976998E-01 0.15667076E+04</pdfrwt>
<totfact> 0.33518302E+01</totfact>
</mgrwt>
</event>
<event>
12    7  0.1729738E-007  0.2116364E+04  0.7818608E-02  0.8554069E-01
          2   -1    0    0  501    0  0.00000000000E+00  0.00000000000E+00  0.73803185750E+03  0.73803185750E+03  0.00000000000E+00 0. -1.
         -1   -1    0    0    0  501 -0.00000000000E+00 -0.00000000000E+00 -0.15172099378E+04  0.15172099378E+04  0.00000000000E+00 0.  1.
         24    2    1    2    0    0 -0.81126267656E+03  0.29363271198E+03 -0.34021435543E+03  0.93100369436E+03  0.81576781922E+02 0.  0.
        254    2    1    2    0    0  0.81126267656E+03 -0.29363271198E+03 -0.43896372485E+03  0.13242381009E+04  0.90363161536E+03 0.  0.
         23    2    4    4    0    0  0.11158921717E+02 -0.16462721485E+03  0.21022478970E+03  0.28183329107E+03  0.89492459732E+02 0.  0.
         23    2    4    4    0    0  0.80010375484E+03 -0.12900549713E+03 -0.64918851455E+03  0.10424048098E+04  0.91398158471E+02 0.  0.
          2    1    3    3  502    0 -0.73191575569E+03  0.23798321796E+03 -0.30573070289E+03  0.82813522335E+03  0.00000000000E+00 0. -1.
         -1    1    3    3    0  502 -0.79346920866E+02  0.55649494019E+02 -0.34483652538E+02  0.10286847101E+03  0.00000000000E+00 0.  1.
         13    1    5    5    0    0  0.49515324960E+02 -0.77160965908E+02  0.92471723572E+02  0.13021751697E+03  0.00000000000E+00 0. -1.
        -13    1    5    5    0    0 -0.38356403242E+02 -0.87466248942E+02  0.11775306613E+03  0.15161577410E+03  0.00000000000E+00 0.  1.
          4    1    6    6  503    0  0.19522084581E+03 -0.47559454344E+02 -0.11626879306E+03  0.23214545564E+03  0.00000000000E+00 0. -1.
         -4    1    6    6    0  503  0.60488290903E+03 -0.81446042787E+02 -0.53291972150E+03  0.81025935421E+03  0.00000000000E+00 0.  1.
<mgrwt>
<rscale>  0 0.21163641E+04</rscale>
<asrwt>0</asrwt>
<pdfrwt beam="1">  1        2 0.11354336E+00 0.21163641E+04</pdfrwt>
<pdfrwt beam="2">  1       -1 0.23341691E+00 0.21163641E+04</pdfrwt>
<totfact> 0.36030421E+00</totfact>
</mgrwt>
</event>
<event>
12    7  0.1729738E-007  0.1261024E+04  0.7818608E-02  0.9061058E-01
         -1   -1    0    0    0  501 -0.00000000000E+00  0.00000000000E+00  0.14871779280E+04  0.14871779280E+04  0.00000000000E+00 0.  1.
          2   -1    0    0  501    0  0.00000000000E+00 -0.00000000000E+00 -0.26731512911E+03  0.26731512911E+03  0.00000000000E+00 0. -1.
         24    2    1    2    0    0 -0.95693644665E+02 -0.47560002145E+02  0.67977443248E+03  0.69279398353E+03  0.80318099656E+02 0.  0.
        254    2    1    2    0    0  0.95693644665E+02  0.47560002145E+02  0.54008836636E+03  0.10616990735E+04  0.90779416819E+03 0.  0.
         23    2    4    4    0    0  0.25697687035E+03  0.39941578894E+03  0.43336732882E+03  0.64950699561E+03  0.92097835567E+02 0.  0.
         23    2    4    4    0    0 -0.16128322568E+03 -0.35185578679E+03  0.10672103754E+03  0.41219207791E+03  0.93263903265E+02 0.  0.
          2    1    3    3  502    0 -0.12171786340E+02 -0.20975736026E+02  0.38118306770E+02  0.45178968509E+02  0.00000000000E+00 0. -1.
         -1    1    3    3    0  502 -0.83521858325E+02 -0.26584266120E+02  0.64165612571E+03  0.64761501502E+03  0.00000000000E+00 0.  1.
         13    1    5    5    0    0  0.22994821710E+03  0.38282526658E+03  0.42549905223E+03  0.61683126601E+03  0.00000000000E+00 0.  1.
        -13    1    5    5    0    0  0.27028653249E+02  0.16590522351E+02  0.78682765893E+01  0.32675729599E+02  0.00000000000E+00 0. -1.
          1    1    6    6  503    0 -0.56748688477E+02 -0.58218424837E+02  0.49820513205E+02  0.95351361660E+02  0.00000000000E+00 0. -1.
         -1    1    6    6    0  503 -0.10453453721E+03 -0.29363736195E+03  0.56900524339E+02  0.31684071625E+03  0.00000000000E+00 0.  1.
<mgrwt>
<rscale>  0 0.12610236E+04</rscale>
<asrwt>0</asrwt>
<pdfrwt beam="1">  1        2 0.41125405E-01 0.12610236E+04</pdfrwt>
<pdfrwt beam="2">  1       -1 0.22879660E+00 0.12610236E+04</pdfrwt>
<totfact> 0.13536080E+01</totfact>
</mgrwt>
</event>
<event>
12    7  0.1729738E-007  0.2001192E+04  0.7818608E-02  0.8606064E-01
          2   -1    0    0  501    0  0.00000000000E+00  0.00000000000E+00  0.55434294342E+03  0.55434294342E+03  0.00000000000E+00 0. -1.
         -1   -1    0    0    0  501 -0.00000000000E+00 -0.00000000000E+00 -0.18060877950E+04  0.18060877950E+04  0.00000000000E+00 0.  1.
         24    2    1    2    0    0  0.34327048677E+03  0.44316890242E+02 -0.12729681596E+04  0.13215665413E+04  0.79319442524E+02 0.  0.
        254    2    1    2    0    0 -0.34327048677E+03 -0.44316890242E+02  0.21223308054E+02  0.10388641971E+04  0.97928023430E+03 0.  0.
         23    2    4    4    0    0  0.31934568005E+03 -0.10937094447E+03 -0.78085620967E+02  0.35842387116E+03  0.91796733868E+02 0.  0.
         23    2    4    4    0    0 -0.66261616683E+03  0.65054054232E+02  0.99308929020E+02  0.68044032591E+03  0.99219752200E+02 0.  0.
          4    1    3    3  502    0  0.12521910047E+02  0.19789578714E+02 -0.87175354934E+02  0.90266096430E+02  0.00000000000E+00 0. -1.
         -3    1    3    3    0  502  0.33074857672E+03  0.24527311527E+02 -0.11857928047E+04  0.12313004449E+04  0.00000000000E+00 0.  1.
         13    1    5    5    0    0  0.32284354285E+03 -0.97554891106E+02 -0.72874149274E+02  0.34504427480E+03  0.00000000000E+00 0. -1.
        -13    1    5    5    0    0 -0.34978628013E+01 -0.11816053368E+02 -0.52114716927E+01  0.13379596353E+02  0.00000000000E+00 0.  1.
          2    1    6    6  503    0 -0.11717414170E+03  0.49786431866E+02  0.25073175721E+02  0.12975797634E+03  0.00000000000E+00 0.  1.
         -2    1    6    6    0  503 -0.54544202512E+03  0.15267622366E+02  0.74235753299E+02  0.55068234957E+03  0.00000000000E+00 0. -1.
<mgrwt>
<rscale>  0 0.20011917E+04</rscale>
<asrwt>0</asrwt>
<pdfrwt beam="1">  1        2 0.85283530E-01 0.20011917E+04</pdfrwt>
<pdfrwt beam="2">  1       -1 0.27785966E+00 0.20011917E+04</pdfrwt>
<totfact> 0.26598607E+00</totfact>
</mgrwt>
</event>
<event>
12    7  0.1729738E-007  0.2012177E+04  0.7818608E-02  0.8600949E-01
          2   -1    0    0  501    0  0.00000000000E+00  0.00000000000E+00  0.18921193250E+04  0.18921193250E+04  0.00000000000E+00 0. -1.
         -1   -1    0    0    0  501 -0.00000000000E+00 -0.00000000000E+00 -0.53496310952E+03  0.53496310952E+03  0.00000000000E+00 0.  1.
         24    2    1    2    0    0 -0.28664726889E+02 -0.44379650271E+03  0.13441364254E+04  0.14181320150E+04  0.81355266380E+02 0.  0.
        254    2    1    2    0    0  0.28664726889E+02  0.44379650271E+03  0.13019790079E+02  0.10089504196E+04  0.90555752540E+03 0.  0.
         23    2    4    4    0    0 -0.57986551208E+02  0.44874681543E+03 -0.37907314666E+03  0.59710316993E+03  0.89997780763E+02 0.  0.
         23    2    4    4    0    0  0.86651278097E+02 -0.49503127222E+01  0.39209293674E+03  0.41184724963E+03  0.91369231131E+02 0.  0.
          4    1    3    3  502    0 -0.55827439292E+01 -0.29997837657E+03  0.78644454003E+03  0.84173226621E+03  0.00000000000E+00 0. -1.
         -3    1    3    3    0  502 -0.23081982960E+02 -0.14381812614E+03  0.55769188538E+03  0.57639974875E+03  0.00000000000E+00 0.  1.
         13    1    5    5    0    0 -0.19955557405E+02  0.39289682793E+03 -0.33174527960E+03  0.51460768767E+03  0.00000000000E+00 0. -1.
        -13    1    5    5    0    0 -0.38030993803E+02  0.55849987501E+02 -0.47327867056E+02  0.82495482261E+02  0.00000000000E+00 0.  1.
          3    1    6    6  503    0  0.64599488660E+02 -0.44675750638E+02  0.28234174728E+03  0.29306292650E+03  0.00000000000E+00 0. -1.
         -3    1    6    6    0  503  0.22051789437E+02  0.39725437916E+02  0.10975118945E+03  0.11878432313E+03  0.00000000000E+00 0.  1.
<mgrwt>
<rscale>  0 0.20121770E+04</rscale>
<asrwt>0</asrwt>
<pdfrwt beam="1">  1        2 0.29109528E+00 0.20121770E+04</pdfrwt>
<pdfrwt beam="2">  1       -1 0.82302018E-01 0.20121770E+04</pdfrwt>
<totfact> 0.11898853E+01</totfact>
</mgrwt>
</event>
<event>
12    7  0.1729738E-007  0.2337490E+04  0.7818608E-02  0.8463284E-01
         -1   -1    0    0    0  501 -0.00000000000E+00  0.00000000000E+00  0.53055710790E+03  0.53055710790E+03  0.00000000000E+00 0.  1.
          2   -1    0    0  501    0  0.00000000000E+00 -0.00000000000E+00 -0.25745862144E+04  0.25745862144E+04  0.00000000000E+00 0. -1.
         24    2    1    2    0    0 -0.26219509235E+03  0.12758179625E+03  0.39171010380E+03  0.49455433336E+03  0.78254725338E+02 0.  0.
        254    2    1    2    0    0  0.26219509235E+03 -0.12758179625E+03 -0.24357392103E+04  0.26105889889E+04  0.89293112133E+03 0.  0.
         23    2    4    4    0    0  0.40821987740E+03  0.16787824280E+03 -0.20261099688E+04  0.20756024527E+04  0.90428774286E+02 0.  0.
         23    2    4    4    0    0 -0.14602478506E+03 -0.29546003905E+03 -0.40962924144E+03  0.53498653620E+03  0.98967701552E+02 0.  0.
          2    1    3    3  502    0 -0.10073596980E+03  0.46495867788E+02  0.21441178583E+03  0.24141668383E+03  0.00000000000E+00 0. -1.
         -1    1    3    3    0  502 -0.16145912255E+03  0.81085928462E+02  0.17729831797E+03  0.25313764952E+03  0.00000000000E+00 0.  1.
         13    1    5    5    0    0  0.38599497267E+03  0.17925834975E+03 -0.19124349831E+04  0.19592175069E+04  0.00000000000E+00 0. -1.
        -13    1    5    5    0    0  0.22224904734E+02 -0.11380106954E+02 -0.11367498577E+03  0.11638494582E+03  0.00000000000E+00 0.  1.
          4    1    6    6  503    0 -0.59994597056E+02 -0.41823854413E+02 -0.11977295471E+03  0.14033583703E+03  0.00000000000E+00 0.  1.
         -4    1    6    6    0  503 -0.86030188001E+02 -0.25363618464E+03 -0.28985628673E+03  0.39465069918E+03  0.00000000000E+00 0. -1.
<mgrwt>
<rscale>  0 0.23374901E+04</rscale>
<asrwt>0</asrwt>
<pdfrwt beam="1">  1        2 0.39609018E+00 0.23374901E+04</pdfrwt>
<pdfrwt beam="2">  1       -1 0.81624172E-01 0.23374901E+04</pdfrwt>
<totfact> 0.48392289E+00</totfact>
</mgrwt>
</event>
<event>
12    7  0.1729738E-007  0.1632274E+04  0.7818608E-02  0.8800963E-01
         -1   -1    0    0    0  501 -0.00000000000E+00  0.00000000000E+00  0.76521732536E+03  0.76521732536E+03  0.00000000000E+00 0.  1.
          2   -1    0    0  501    0  0.00000000000E+00 -0.00000000000E+00 -0.87044476204E+03  0.87044476204E+03  0.00000000000E+00 0. -1.
         24    2    1    2    0    0 -0.42661031118E+03 -0.34277568362E+03 -0.18157754253E+03  0.58209382087E+03  0.79820332319E+02 0.  0.
        254    2    1    2    0    0  0.42661031118E+03  0.34277568362E+03  0.76350105849E+02  0.10535682665E+04  0.89704248879E+03 0.  0.
         23    2    4    4    0    0  0.15164673580E+03  0.61827499232E+03  0.10953868231E+03  0.65240240133E+03  0.91484816916E+02 0.  0.
         23    2    4    4    0    0  0.27496357538E+03 -0.27549930870E+03 -0.33188576464E+02  0.40116586520E+03  0.91256413045E+02 0.  0.
          4    1    3    3  502    0 -0.40915268424E+03 -0.33948970509E+03 -0.16229683181E+03  0.55587718113E+03  0.00000000000E+00 0. -1.
         -3    1    3    3    0  502 -0.17457626939E+02 -0.32859785360E+01 -0.19280710725E+02  0.26216639741E+02  0.00000000000E+00 0.  1.
         13    1    5    5    0    0  0.95929325853E+01  0.21483739044E+03  0.47155078577E+02  0.22016069159E+03  0.00000000000E+00 0. -1.
        -13    1    5    5    0    0  0.14205380322E+03  0.40343760188E+03  0.62383603736E+02  0.43224170973E+03  0.00000000000E+00 0.  1.
          1    1    6    6  503    0  0.33464759697E+02 -0.74191317122E+02  0.15986444777E+02  0.82944608592E+02  0.00000000000E+00 0. -1.
         -1    1    6    6    0  503  0.24149881568E+03 -0.20130799157E+03 -0.49175021242E+02  0.31822125661E+03  0.00000000000E+00 0.  1.
<mgrwt>
<rscale>  0 0.16322738E+04</rscale>
<asrwt>0</asrwt>
<pdfrwt beam="1">  1        2 0.13391458E+00 0.16322738E+04</pdfrwt>
<pdfrwt beam="2">  1       -1 0.11772574E+00 0.16322738E+04</pdfrwt>
<totfact> 0.21760644E+01</totfact>
</mgrwt>
</event>
<event>
12    7  0.1729738E-007  0.2937698E+04  0.7818608E-02  0.8261749E-01
          2   -1    0    0  501    0  0.00000000000E+00  0.00000000000E+00  0.29186849893E+04  0.29186849893E+04  0.00000000000E+00 0. -1.
         -1   -1    0    0    0  501 -0.00000000000E+00 -0.00000000000E+00 -0.73920850992E+03  0.73920850992E+03  0.00000000000E+00 0.  1.
         24    2    1    2    0    0 -0.18550769847E+03  0.13163187897E+04  0.88652877439E+03  0.16000333185E+04  0.84054090076E+02 0.  0.
        254    2    1    2    0    0  0.18550769847E+03 -0.13163187897E+04  0.12929477050E+04  0.20578601807E+04  0.89216954299E+03 0.  0.
         23    2    4    4    0    0  0.52492521085E+03 -0.94903319175E+03  0.81330048640E+03  0.13588167214E+04  0.93352691551E+02 0.  0.
         23    2    4    4    0    0 -0.33941751239E+03 -0.36728559794E+03  0.47964721856E+03  0.69904345939E+03  0.92181048312E+02 0.  0.
          4    1    3    3  502    0 -0.31922860598E+02  0.36777274236E+03  0.20809692513E+03  0.42376902824E+03  0.00000000000E+00 0. -1.
         -3    1    3    3    0  502 -0.15358483787E+03  0.94854604734E+03  0.67843184926E+03  0.11762642902E+04  0.00000000000E+00 0.  1.
         13    1    5    5    0    0  0.22057585984E+03 -0.40848996298E+03  0.29118489529E+03  0.54800219256E+03  0.00000000000E+00 0. -1.
        -13    1    5    5    0    0  0.30434935101E+03 -0.54054322877E+03  0.52211559111E+03  0.81081452880E+03  0.00000000000E+00 0.  1.
          2    1    6    6  503    0 -0.32593422813E+01  0.55850529802E+01  0.69839835196E+01  0.95179911064E+01  0.00000000000E+00 0. -1.
         -2    1    6    6    0  503 -0.33615817011E+03 -0.37287065092E+03  0.47266323504E+03  0.68952546828E+03  0.00000000000E+00 0.  1.
<mgrwt>
<rscale>  0 0.29376976E+04</rscale>
<asrwt>0</asrwt>
<pdfrwt beam="1">  1        2 0.44902845E+00 0.29376976E+04</pdfrwt>
<pdfrwt beam="2">  1       -1 0.11372439E+00 0.29376976E+04</pdfrwt>
<totfact> 0.13478640E+00</totfact>
</mgrwt>
</event>
<event>
12    7  0.1729738E-007  0.2401435E+04  0.7818608E-02  0.8438966E-01
         -1   -1    0    0    0  501 -0.00000000000E+00  0.00000000000E+00  0.91783633708E+03  0.91783633708E+03  0.00000000000E+00 0.  1.
          2   -1    0    0  501    0  0.00000000000E+00 -0.00000000000E+00 -0.15707839937E+04  0.15707839937E+04  0.00000000000E+00 0. -1.
         24    2    1    2    0    0  0.21853430052E+03 -0.78969965216E+03  0.36697637059E+03  0.90138117481E+03  0.80209629139E+02 0.  0.
        254    2    1    2    0    0 -0.21853430052E+03  0.78969965216E+03 -0.10199240272E+04  0.15872391559E+04  0.89872150068E+03 0.  0.
         23    2    4    4    0    0 -0.28074511637E+03  0.46196932038E+03 -0.41935715162E+02  0.54977245039E+03  0.90871720935E+02 0.  0.
         23    2    4    4    0    0  0.62210815843E+02  0.32773033178E+03 -0.97798831202E+03  0.10374667055E+04  0.92729017531E+02 0.  0.
          4    1    3    3  502    0  0.60117619977E+02 -0.30213324862E+03  0.10347707752E+03  0.32497097367E+03  0.00000000000E+00 0. -1.
         -3    1    3    3    0  502  0.15841668055E+03 -0.48756640354E+03  0.26349929307E+03  0.57641020114E+03  0.00000000000E+00 0.  1.
         13    1    5    5    0    0 -0.15360146725E+03  0.25917526361E+03 -0.68456865455E+02  0.30895237567E+03  0.00000000000E+00 0. -1.
        -13    1    5    5    0    0 -0.12714364912E+03  0.20279405677E+03  0.26521150292E+02  0.24082007472E+03  0.00000000000E+00 0.  1.
          4    1    6    6  503    0  0.78670238913E+02  0.20053132543E+03 -0.55022377303E+03  0.59088748454E+03  0.00000000000E+00 0. -1.
         -4    1    6    6    0  503 -0.16459423070E+02  0.12719900635E+03 -0.42776453898E+03  0.44657922101E+03  0.00000000000E+00 0.  1.
<mgrwt>
<rscale>  0 0.24014351E+04</rscale>
<asrwt>0</asrwt>
<pdfrwt beam="1">  1        2 0.24165907E+00 0.24014351E+04</pdfrwt>
<pdfrwt beam="2">  1       -1 0.14120559E+00 0.24014351E+04</pdfrwt>
<totfact> 0.48602165E+00</totfact>
</mgrwt>
</event>
<event>
12    7  0.1729738E-007  0.2522249E+04  0.7818608E-02  0.8395102E-01
          2   -1    0    0  501    0  0.00000000000E+00  0.00000000000E+00  0.36030341030E+04  0.36030341030E+04  0.00000000000E+00 0. -1.
         -1   -1    0    0    0  501 -0.00000000000E+00 -0.00000000000E+00 -0.44141536321E+03  0.44141536321E+03  0.00000000000E+00 0.  1.
         24    2    1    2    0    0  0.26367289483E+03  0.90119723405E+03  0.47217655142E+03  0.10540589542E+04  0.80060808565E+02 0.  0.
        254    2    1    2    0    0 -0.26367289483E+03 -0.90119723405E+03  0.26894421884E+04  0.29903905120E+04  0.90975616500E+03 0.  0.
         23    2    4    4    0    0 -0.14821835536E+03  0.14909804622E+03  0.68243818026E+03  0.72026464545E+03  0.94129598732E+02 0.  0.
         23    2    4    4    0    0 -0.11545453947E+03 -0.10502952803E+04  0.20070040081E+04  0.22701258666E+04  0.94638444143E+02 0.  0.
          4    1    3    3  502    0  0.65688698179E+02  0.36030551451E+03  0.17429302783E+03  0.40560217998E+03  0.00000000000E+00 0. -1.
         -1    1    3    3    0  502  0.19798419665E+03  0.54089171953E+03  0.29788352359E+03  0.64845677420E+03  0.00000000000E+00 0.  1.
         13    1    5    5    0    0 -0.12825833691E+03  0.11420042493E+03  0.63630557483E+03  0.65907262316E+03  0.00000000000E+00 0. -1.
        -13    1    5    5    0    0 -0.19960018450E+02  0.34897621290E+02  0.46132605434E+02  0.61192022294E+02  0.00000000000E+00 0.  1.
          3    1    6    6  503    0 -0.10298570967E+03 -0.10201516299E+04  0.19695336547E+04  0.22204455007E+04  0.00000000000E+00 0. -1.
         -3    1    6    6    0  503 -0.12468829802E+02 -0.30143650354E+02  0.37470353421E+02  0.49680365929E+02  0.00000000000E+00 0.  1.
<mgrwt>
<rscale>  0 0.25222487E+04</rscale>
<asrwt>0</asrwt>
<pdfrwt beam="1">  1        2 0.55431292E+00 0.25222487E+04</pdfrwt>
<pdfrwt beam="2">  1       -1 0.67910058E-01 0.25222487E+04</pdfrwt>
<totfact> 0.15291152E+00</totfact>
</mgrwt>
</event>
<event>
12    7  0.1729738E-007  0.2399155E+04  0.7818608E-02  0.8439820E-01
          2   -1    0    0  501    0  0.00000000000E+00  0.00000000000E+00  0.33483510782E+04  0.33483510782E+04  0.00000000000E+00 0. -1.
         -1   -1    0    0    0  501 -0.00000000000E+00 -0.00000000000E+00 -0.42975976985E+03  0.42975976985E+03  0.00000000000E+00 0.  1.
         24    2    1    2    0    0  0.86242667093E+03 -0.54824254923E+03  0.13965078343E+04  0.17321513188E+04  0.75923674416E+02 0.  0.
        254    2    1    2    0    0 -0.86242667093E+03  0.54824254923E+03  0.15220834740E+04  0.20459595292E+04  0.90821948775E+03 0.  0.
         23    2    4    4    0    0 -0.67259442964E+03  0.48194600280E+03  0.44019351905E+03  0.94184689478E+03  0.93005497676E+02 0.  0.
         23    2    4    4    0    0 -0.18983224129E+03  0.66296546435E+02  0.10818899549E+04  0.11041126345E+04  0.90262522948E+02 0.  0.
          2    1    3    3  502    0  0.14336237034E+03 -0.70770188283E+02  0.18338385661E+03  0.24329165141E+03  0.00000000000E+00 0. -1.
         -1    1    3    3    0  502  0.71906430059E+03 -0.47747236095E+03  0.12131239777E+04  0.14888596674E+04  0.00000000000E+00 0.  1.
         13    1    5    5    0    0 -0.41728192776E+03  0.32997888640E+03  0.24026724381E+03  0.58372820829E+03  0.00000000000E+00 0.  1.
        -13    1    5    5    0    0 -0.25531250188E+03  0.15196711640E+03  0.19992627524E+03  0.35811868649E+03  0.00000000000E+00 0. -1.
          2    1    6    6  503    0 -0.53111897268E+01  0.25989784133E+02  0.23068752312E+03  0.23220768924E+03  0.00000000000E+00 0. -1.
         -2    1    6    6    0  503 -0.18452105156E+03  0.40306762302E+02  0.85120243183E+03  0.87190494522E+03  0.00000000000E+00 0.  1.
<mgrwt>
<rscale>  0 0.23991553E+04</rscale>
<asrwt>0</asrwt>
<pdfrwt beam="1">  1        2 0.51513092E+00 0.23991553E+04</pdfrwt>
<pdfrwt beam="2">  1       -1 0.66116890E-01 0.23991553E+04</pdfrwt>
<totfact> 0.24546200E+00</totfact>
</mgrwt>
</event>
<event>
12    7  0.1729738E-007  0.2130226E+04  0.7818608E-02  0.8548044E-01
         -1   -1    0    0    0  501 -0.00000000000E+00  0.00000000000E+00  0.70136085904E+03  0.70136085904E+03  0.00000000000E+00 0.  1.
          2   -1    0    0  501    0  0.00000000000E+00 -0.00000000000E+00 -0.16175212733E+04  0.16175212733E+04  0.00000000000E+00 0. -1.
         24    2    1    2    0    0 -0.31631416287E+03 -0.16387814652E+03  0.49028048679E+03  0.61130442313E+03  0.80046520668E+02 0.  0.
        254    2    1    2    0    0  0.31631416287E+03  0.16387814652E+03 -0.14064409010E+04  0.17075777092E+04  0.90046372957E+03 0.  0.
         23    2    4    4    0    0  0.46208098969E+03  0.40669010212E+03 -0.11778492022E+04  0.13325684119E+04  0.97437924561E+02 0.  0.
         23    2    4    4    0    0 -0.14576682681E+03 -0.24281195560E+03 -0.22859169883E+03  0.37500929726E+03  0.90400191774E+02 0.  0.
          4    1    3    3  502    0 -0.90838078792E+02 -0.36321147441E+02  0.19727416105E+03  0.22019962972E+03  0.00000000000E+00 0. -1.
         -3    1    3    3    0  502 -0.22547608408E+03 -0.12755699908E+03  0.29300632574E+03  0.39110479342E+03  0.00000000000E+00 0.  1.
         13    1    5    5    0    0  0.19322334827E+03  0.11696956718E+03 -0.37674180765E+03  0.43926248599E+03  0.00000000000E+00 0.  1.
        -13    1    5    5    0    0  0.26885764142E+03  0.28972053494E+03 -0.80110739456E+03  0.89330592595E+03  0.00000000000E+00 0. -1.
          3    1    6    6  503    0 -0.89313767124E+02 -0.17204441209E+03 -0.10104086800E+03  0.21859891522E+03  0.00000000000E+00 0. -1.
         -3    1    6    6    0  503 -0.56453059691E+02 -0.70767543509E+02 -0.12755083083E+03  0.15641038204E+03  0.00000000000E+00 0.  1.
<mgrwt>
<rscale>  0 0.21302264E+04</rscale>
<asrwt>0</asrwt>
<pdfrwt beam="1">  1        2 0.24884943E+00 0.21302264E+04</pdfrwt>
<pdfrwt beam="2">  1       -1 0.10790167E+00 0.21302264E+04</pdfrwt>
<totfact> 0.91177666E+00</totfact>
</mgrwt>
</event>
<event>
12    7  0.1729738E-007  0.1268382E+04  0.7818608E-02  0.9055021E-01
          2   -1    0    0  501    0  0.00000000000E+00  0.00000000000E+00  0.18291978432E+04  0.18291978432E+04  0.00000000000E+00 0. -1.
         -1   -1    0    0    0  501 -0.00000000000E+00 -0.00000000000E+00 -0.21987679868E+03  0.21987679868E+03  0.00000000000E+00 0.  1.
         24    2    1    2    0    0  0.21126881745E+03  0.16914497949E+03  0.64267296561E+03  0.70193116801E+03  0.80214004889E+02 0.  0.
        254    2    1    2    0    0 -0.21126881745E+03 -0.16914497949E+03  0.96664807887E+03  0.13471434738E+04  0.89841109376E+03 0.  0.
         23    2    4    4    0    0 -0.25177492064E+03 -0.51029317223E+03  0.67387044626E+03  0.88673555088E+03  0.91699654069E+02 0.  0.
         23    2    4    4    0    0  0.40506103188E+02  0.34114819274E+03  0.29277763261E+03  0.46040792296E+03  0.90740727110E+02 0.  0.
          2    1    3    3  502    0  0.11697262877E+03  0.94114317614E+02  0.45285416070E+03  0.47709222539E+03  0.00000000000E+00 0. -1.
         -1    1    3    3    0  502  0.94296188678E+02  0.75030661877E+02  0.18981880491E+03  0.22483894262E+03  0.00000000000E+00 0.  1.
         13    1    5    5    0    0 -0.34325904405E+02 -0.57673264912E+02  0.40227190220E+02  0.78247683875E+02  0.00000000000E+00 0. -1.
        -13    1    5    5    0    0 -0.21744901623E+03 -0.45261990732E+03  0.63364325604E+03  0.80848786700E+03  0.00000000000E+00 0.  1.
          3    1    6    6  503    0 -0.17779942829E+02  0.17371688634E+02  0.10737255283E+02  0.27077492204E+02  0.00000000000E+00 0. -1.
         -3    1    6    6    0  503  0.58286046017E+02  0.32377650411E+03  0.28204037733E+03  0.43333043076E+03  0.00000000000E+00 0.  1.
<mgrwt>
<rscale>  0 0.12683819E+04</rscale>
<asrwt>0</asrwt>
<pdfrwt beam="1">  1        2 0.28141504E+00 0.12683819E+04</pdfrwt>
<pdfrwt beam="2">  1       -1 0.33827201E-01 0.12683819E+04</pdfrwt>
<totfact> 0.76744200E+01</totfact>
</mgrwt>
</event>
<event>
12    7  0.1729738E-007  0.1550637E+04  0.7818608E-02  0.8851461E-01
          2   -1    0    0  501    0  0.00000000000E+00  0.00000000000E+00  0.14260983780E+04  0.14260983780E+04  0.00000000000E+00 0. -1.
         -1   -1    0    0    0  501 -0.00000000000E+00 -0.00000000000E+00 -0.42151261008E+03  0.42151261008E+03  0.00000000000E+00 0.  1.
         24    2    1    2    0    0  0.11515249542E+03 -0.43366424780E+03  0.61935232716E+03  0.76888853535E+03  0.79167528728E+02 0.  0.
        254    2    1    2    0    0 -0.11515249542E+03  0.43366424780E+03  0.38523344074E+03  0.10787224527E+04  0.90217101986E+03 0.  0.
         23    2    4    4    0    0  0.23445773766E+03 -0.16448707205E+03  0.18710623591E+03  0.35286767512E+03  0.86489450274E+02 0.  0.
         23    2    4    4    0    0 -0.34961023307E+03  0.59815131985E+03  0.19812720483E+03  0.72585477758E+03  0.87169102007E+02 0.  0.
          2    1    3    3  502    0  0.11847567830E+03 -0.34214676157E+03  0.52144743172E+03  0.63482936042E+03  0.00000000000E+00 0. -1.
         -1    1    3    3    0  502 -0.33231828865E+01 -0.91517486236E+02  0.97904895438E+02  0.13405917493E+03  0.00000000000E+00 0.  1.
         13    1    5    5    0    0  0.71238559528E+02 -0.44286407538E+02  0.11480406356E+02  0.84664148175E+02  0.00000000000E+00 0.  1.
        -13    1    5    5    0    0  0.16321917813E+03 -0.12020066451E+03  0.17562582955E+03  0.26820352694E+03  0.00000000000E+00 0. -1.
          2    1    6    6  503    0 -0.29020394884E+03  0.47041253475E+03  0.12319399346E+03  0.56628883514E+03  0.00000000000E+00 0. -1.
         -2    1    6    6    0  503 -0.59406284233E+02  0.12773878509E+03  0.74933211365E+02  0.15956594245E+03  0.00000000000E+00 0.  1.
<mgrwt>
<rscale>  0 0.15506366E+04</rscale>
<asrwt>0</asrwt>
<pdfrwt beam="1">  1        2 0.21939975E+00 0.15506366E+04</pdfrwt>
<pdfrwt beam="2">  1       -1 0.64848095E-01 0.15506366E+04</pdfrwt>
<totfact> 0.36978399E+01</totfact>
</mgrwt>
</event>
<event>
12    7  0.1729738E-007  0.1676149E+04  0.7818608E-02  0.8775086E-01
         -3   -1    0    0    0  501 -0.00000000000E+00  0.00000000000E+00  0.20260357710E+03  0.20260357710E+03  0.00000000000E+00 0.  1.
          2   -1    0    0  501    0  0.00000000000E+00 -0.00000000000E+00 -0.34667132133E+04  0.34667132133E+04  0.00000000000E+00 0. -1.
         24    2    1    2    0    0 -0.45593378828E+02 -0.43487891051E+03 -0.28202758406E+03  0.52650932977E+03  0.80461749700E+02 0.  0.
        254    2    1    2    0    0  0.45593378828E+02  0.43487891051E+03 -0.29820820521E+04  0.31428074606E+04  0.89063289060E+03 0.  0.
         23    2    4    4    0    0  0.28161048592E+03  0.34443592313E+02 -0.22576498710E+04  0.22773299677E+04  0.93584267274E+02 0.  0.
         23    2    4    4    0    0 -0.23601710709E+03  0.40043531820E+03 -0.72443218114E+03  0.86547749289E+03  0.90536107255E+02 0.  0.
          4    1    3    3  502    0 -0.31202391801E+02 -0.59769780595E+02 -0.26690323913E+02  0.72514752410E+02  0.00000000000E+00 0. -1.
         -3    1    3    3    0  502 -0.14390987027E+02 -0.37510912992E+03 -0.25533726014E+03  0.45399457736E+03  0.00000000000E+00 0.  1.
         13    1    5    5    0    0  0.66426058482E+02  0.16291938838E+02 -0.90186613996E+03  0.90445584907E+03  0.00000000000E+00 0.  1.
        -13    1    5    5    0    0  0.21518442744E+03  0.18151653475E+02 -0.13557837310E+04  0.13728741187E+04  0.00000000000E+00 0. -1.
          4    1    6    6  503    0 -0.98206154881E+02  0.18602156406E+03 -0.24837934251E+03  0.32548543583E+03  0.00000000000E+00 0. -1.
         -4    1    6    6    0  503 -0.13781095221E+03  0.21441375414E+03 -0.47605283863E+03  0.53999205705E+03  0.00000000000E+00 0.  1.
<mgrwt>
<rscale>  0 0.16761486E+04</rscale>
<asrwt>0</asrwt>
<pdfrwt beam="1">  1        2 0.53334046E+00 0.16761486E+04</pdfrwt>
<pdfrwt beam="2">  1       -3 0.31169783E-01 0.16761486E+04</pdfrwt>
<totfact> 0.54175931E+00</totfact>
</mgrwt>
</event>
<event>
12    7  0.1729738E-007  0.2589585E+04  0.7818608E-02  0.8371748E-01
         -1   -1    0    0    0  501 -0.00000000000E+00  0.00000000000E+00  0.86706010282E+03  0.86706010282E+03  0.00000000000E+00 0.  1.
          2   -1    0    0  501    0  0.00000000000E+00 -0.00000000000E+00 -0.19335307795E+04  0.19335307795E+04  0.00000000000E+00 0. -1.
         24    2    1    2    0    0 -0.17338603307E+03 -0.72884137727E+03  0.45354955875E+03  0.87993932635E+03  0.85519273401E+02 0.  0.
        254    2    1    2    0    0  0.17338603307E+03  0.72884137727E+03 -0.15200202354E+04  0.19206515560E+04  0.90397367972E+03 0.  0.
         23    2    4    4    0    0  0.35205563596E+03 -0.39201922693E+02 -0.62828507934E+03  0.72685132625E+03  0.89948585359E+02 0.  0.
         23    2    4    4    0    0 -0.17866960289E+03  0.76804329997E+03 -0.89173515608E+03  0.11938002297E+04  0.90299846221E+02 0.  0.
          2    1    3    3  502    0  0.55933570136E+01 -0.26761371666E+02  0.49889639730E+01  0.27791121201E+02  0.00000000000E+00 0. -1.
         -1    1    3    3    0  502 -0.17897939009E+03 -0.70208000561E+03  0.44856059478E+03  0.85214820515E+03  0.00000000000E+00 0.  1.
         13    1    5    5    0    0  0.15247019067E+03  0.20457036933E+02 -0.21937519198E+03  0.26793865765E+03  0.00000000000E+00 0.  1.
        -13    1    5    5    0    0  0.19958544529E+03 -0.59658959626E+02 -0.40890988735E+03  0.45891266861E+03  0.00000000000E+00 0. -1.
          4    1    6    6  503    0 -0.63098245347E+02  0.20575061565E+03 -0.18912213732E+03  0.28649936689E+03  0.00000000000E+00 0. -1.
         -4    1    6    6    0  503 -0.11557135754E+03  0.56229268432E+03 -0.70261301876E+03  0.90730086281E+03  0.00000000000E+00 0.  1.
<mgrwt>
<rscale>  0 0.25895848E+04</rscale>
<asrwt>0</asrwt>
<pdfrwt beam="1">  1        2 0.29746627E+00 0.25895848E+04</pdfrwt>
<pdfrwt beam="2">  1       -1 0.13339386E+00 0.25895848E+04</pdfrwt>
<totfact> 0.34809520E+00</totfact>
</mgrwt>
</event>
<event>
12    7  0.1729738E-007  0.2819719E+04  0.7818608E-02  0.8297173E-01
         -1   -1    0    0    0  501 -0.00000000000E+00  0.00000000000E+00  0.67870841961E+03  0.67870841961E+03  0.00000000000E+00 0.  1.
          2   -1    0    0  501    0  0.00000000000E+00 -0.00000000000E+00 -0.29286557397E+04  0.29286557397E+04  0.00000000000E+00 0. -1.
         24    2    1    2    0    0 -0.11737980629E+03 -0.73768130432E+03  0.32840547802E+03  0.81861612176E+03  0.65806315455E+02 0.  0.
        254    2    1    2    0    0  0.11737980629E+03  0.73768130432E+03 -0.25783527981E+04  0.27887480375E+04  0.75581792761E+03 0.  0.
         23    2    4    4    0    0 -0.11019387387E+03  0.30551645605E+03 -0.19916485165E+04  0.20199108484E+04  0.88842712451E+02 0.  0.
         23    2    4    4    0    0  0.22757368016E+03  0.43216484827E+03 -0.58670428155E+03  0.76883718906E+03  0.91282382240E+02 0.  0.
          2    1    3    3  502    0 -0.27173266467E+02 -0.68412093884E+02  0.20490246814E+02  0.76409758635E+02  0.00000000000E+00 0. -1.
         -1    1    3    3    0  502 -0.90206539827E+02 -0.66926921043E+03  0.30791523120E+03  0.74220636313E+03  0.00000000000E+00 0.  1.
         13    1    5    5    0    0  0.85507956940E+00  0.89532406884E+02 -0.40466181886E+03  0.41444899649E+03  0.00000000000E+00 0.  1.
        -13    1    5    5    0    0 -0.11104895344E+03  0.21598404916E+03 -0.15869866977E+04  0.16054618520E+04  0.00000000000E+00 0. -1.
          3    1    6    6  503    0  0.67354001237E+02  0.18060294677E+03 -0.28939595762E+03  0.34771253378E+03  0.00000000000E+00 0. -1.
         -3    1    6    6    0  503  0.16021967892E+03  0.25156190150E+03 -0.29730832393E+03  0.42112465528E+03  0.00000000000E+00 0.  1.
<mgrwt>
<rscale>  0 0.28197186E+04</rscale>
<asrwt>0</asrwt>
<pdfrwt beam="1">  1        2 0.45056242E+00 0.28197186E+04</pdfrwt>
<pdfrwt beam="2">  1       -1 0.10441668E+00 0.28197186E+04</pdfrwt>
<totfact> 0.16418987E+00</totfact>
</mgrwt>
</event>
<event>
12    7  0.1729738E-007  0.1737967E+04  0.7818608E-02  0.8740002E-01
          2   -1    0    0  501    0  0.00000000000E+00  0.00000000000E+00  0.29258422706E+04  0.29258422706E+04  0.00000000000E+00 0. -1.
         -1   -1    0    0    0  501 -0.00000000000E+00 -0.00000000000E+00 -0.25809058345E+03  0.25809058345E+03  0.00000000000E+00 0.  1.
         24    2    1    2    0    0 -0.27820295092E+03  0.29015512009E+03  0.19212509027E+04  0.19647160349E+04  0.85540580644E+02 0.  0.
        254    2    1    2    0    0  0.27820295092E+03 -0.29015512009E+03  0.74650078440E+03  0.12192168191E+04  0.87615030408E+03 0.  0.
         23    2    4    4    0    0  0.22754182433E+03 -0.58699148350E+03  0.59074213288E+03  0.86809363245E+03  0.90972543278E+02 0.  0.
         23    2    4    4    0    0  0.50661126590E+02  0.29683636340E+03  0.15575865152E+03  0.35112318668E+03  0.91369351066E+02 0.  0.
          2    1    3    3  502    0 -0.17919339127E+03  0.22231247636E+03  0.11969065878E+04  0.12304952209E+04  0.00000000000E+00 0. -1.
         -1    1    3    3    0  502 -0.99009559652E+02  0.67842643728E+02  0.72434431489E+03  0.73422081401E+03  0.00000000000E+00 0.  1.
         13    1    5    5    0    0  0.12704298116E+01 -0.82927989708E+02  0.64489070485E+02  0.10505953398E+03  0.00000000000E+00 0. -1.
        -13    1    5    5    0    0  0.22627139452E+03 -0.50406349379E+03  0.52625306240E+03  0.76303409847E+03  0.00000000000E+00 0.  1.
          2    1    6    6  503    0  0.42936144623E+02  0.18538866106E+03  0.48782875432E+02  0.19644906999E+03  0.00000000000E+00 0. -1.
         -2    1    6    6    0  503  0.77249819667E+01  0.11144770235E+03  0.10697577609E+03  0.15467411669E+03  0.00000000000E+00 0.  1.
<mgrwt>
<rscale>  0 0.17379670E+04</rscale>
<asrwt>0</asrwt>
<pdfrwt beam="1">  1        2 0.45012956E+00 0.17379670E+04</pdfrwt>
<pdfrwt beam="2">  1       -1 0.39706246E-01 0.17379670E+04</pdfrwt>
<totfact> 0.12965259E+01</totfact>
</mgrwt>
</event>
<event>
12    7  0.1729738E-007  0.3861485E+04  0.7818608E-02  0.8033088E-01
         -1   -1    0    0    0  501 -0.00000000000E+00  0.00000000000E+00  0.15831752012E+04  0.15831752012E+04  0.00000000000E+00 0.  1.
          2   -1    0    0  501    0  0.00000000000E+00 -0.00000000000E+00 -0.23546136998E+04  0.23546136998E+04  0.00000000000E+00 0. -1.
         24    2    1    2    0    0 -0.15401395520E+04  0.50943208403E+03  0.49204438213E+03  0.16971829799E+04  0.82289156328E+02 0.  0.
        254    2    1    2    0    0  0.15401395520E+04 -0.50943208403E+03 -0.12634828808E+04  0.22406059212E+04  0.89015449002E+03 0.  0.
         23    2    4    4    0    0  0.12159742994E+04 -0.47859004073E+02 -0.58127319310E+03  0.13516819202E+04  0.91002788135E+02 0.  0.
         23    2    4    4    0    0  0.32416525265E+03 -0.46157307996E+03 -0.68220968767E+03  0.88892400096E+03  0.81504615576E+02 0.  0.
          2    1    3    3  502    0 -0.23041893879E+03  0.10717559362E+03  0.82505929603E+02  0.26718294040E+03  0.00000000000E+00 0. -1.
         -1    1    3    3    0  502 -0.13097206132E+04  0.40225649041E+03  0.40953845253E+03  0.14300000395E+04  0.00000000000E+00 0.  1.
         13    1    5    5    0    0  0.67787077109E+03  0.11215557485E+02 -0.29578193572E+03  0.73967663511E+03  0.00000000000E+00 0.  1.
        -13    1    5    5    0    0  0.53810352828E+03 -0.59074561558E+02 -0.28549125737E+03  0.61200528512E+03  0.00000000000E+00 0. -1.
          1    1    6    6  503    0  0.25718382077E+03 -0.30655451089E+03 -0.50178046810E+03  0.64179655965E+03  0.00000000000E+00 0.  1.
         -1    1    6    6    0  503  0.66981431885E+02 -0.15501856907E+03 -0.18042921957E+03  0.24712744131E+03  0.00000000000E+00 0. -1.
<mgrwt>
<rscale>  0 0.38614847E+04</rscale>
<asrwt>0</asrwt>
<pdfrwt beam="1">  1        2 0.36224826E+00 0.38614847E+04</pdfrwt>
<pdfrwt beam="2">  1       -1 0.24356542E+00 0.38614847E+04</pdfrwt>
<totfact> 0.29405291E-01</totfact>
</mgrwt>
</event>
<event>
12    7  0.1729738E-007  0.1531822E+04  0.7818608E-02  0.8863563E-01
         -1   -1    0    0    0  501 -0.00000000000E+00  0.00000000000E+00  0.50970616712E+03  0.50970616712E+03  0.00000000000E+00 0.  1.
          2   -1    0    0  501    0  0.00000000000E+00 -0.00000000000E+00 -0.11508981434E+04  0.11508981434E+04  0.00000000000E+00 0. -1.
         24    2    1    2    0    0 -0.27450736257E+03 -0.34426076016E+03  0.25582530189E+02  0.44809852167E+03  0.79171056450E+02 0.  0.
        254    2    1    2    0    0  0.27450736257E+03  0.34426076016E+03 -0.66677450651E+03  0.12125057889E+04  0.91198261084E+03 0.  0.
         23    2    4    4    0    0  0.41984235408E+01 -0.26092632338E+03 -0.41280024543E+03  0.49676255186E+03  0.90933037493E+02 0.  0.
         23    2    4    4    0    0  0.27030893903E+03  0.60518708354E+03 -0.25397426107E+03  0.71574323703E+03  0.92016995500E+02 0.  0.
          2    1    3    3  502    0 -0.14623579687E+03 -0.21232819910E+03  0.49553984973E+02  0.26253336901E+03  0.00000000000E+00 0. -1.
         -1    1    3    3    0  502 -0.12827156571E+03 -0.13193256107E+03 -0.23971454784E+02  0.18556515266E+03  0.00000000000E+00 0.  1.
         13    1    5    5    0    0 -0.26963795207E+02 -0.14405469375E+03 -0.16286416927E+03  0.21909709873E+03  0.00000000000E+00 0.  1.
        -13    1    5    5    0    0  0.31162218748E+02 -0.11687162963E+03 -0.24993607617E+03  0.27766545313E+03  0.00000000000E+00 0. -1.
          4    1    6    6  503    0  0.34007107146E+01  0.32835366771E+02  0.46010544769E+01  0.33330104210E+02  0.00000000000E+00 0. -1.
         -4    1    6    6    0  503  0.26690822832E+03  0.57235171677E+03 -0.25857531555E+03  0.68241313282E+03  0.00000000000E+00 0.  1.
<mgrwt>
<rscale>  0 0.15318223E+04</rscale>
<asrwt>0</asrwt>
<pdfrwt beam="1">  1        2 0.17706125E+00 0.15318223E+04</pdfrwt>
<pdfrwt beam="2">  1       -1 0.78416335E-01 0.15318223E+04</pdfrwt>
<totfact> 0.36283976E+01</totfact>
</mgrwt>
</event>
<event>
12    7  0.1729738E-007  0.1847393E+04  0.7818608E-02  0.8681495E-01
         -1   -1    0    0    0  501 -0.00000000000E+00  0.00000000000E+00  0.38941806897E+03  0.38941806897E+03  0.00000000000E+00 0.  1.
          2   -1    0    0  501    0  0.00000000000E+00 -0.00000000000E+00 -0.21909999482E+04  0.21909999482E+04  0.00000000000E+00 0. -1.
         24    2    1    2    0    0  0.43710848595E+03  0.54727736806E+03 -0.68543852998E+03  0.98309538459E+03  0.77937223107E+02 0.  0.
        254    2    1    2    0    0 -0.43710848595E+03 -0.54727736806E+03 -0.11161433493E+04  0.15973226326E+04  0.90282183760E+03 0.  0.
         23    2    4    4    0    0 -0.41317651932E+01 -0.67576500995E+03 -0.67005642042E+03  0.95613568623E+03  0.92436052330E+02 0.  0.
         23    2    4    4    0    0 -0.43297672076E+03  0.12848764189E+03 -0.44608692888E+03  0.64118694641E+03  0.90273126057E+02 0.  0.
          2    1    3    3  502    0  0.17609821963E+03  0.21934725496E+03 -0.22279857176E+03  0.35883562364E+03  0.00000000000E+00 0. -1.
         -3    1    3    3    0  502  0.26101026632E+03  0.32793011309E+03 -0.46263995821E+03  0.62425976094E+03  0.00000000000E+00 0.  1.
         13    1    5    5    0    0 -0.18506560225E+02 -0.24788220161E+02 -0.30540390532E+02  0.43470266665E+02  0.00000000000E+00 0.  1.
        -13    1    5    5    0    0  0.14374795032E+02 -0.65097678979E+03 -0.63951602989E+03  0.91266541956E+03  0.00000000000E+00 0. -1.
          2    1    6    6  503    0 -0.37541026431E+03  0.12501425931E+03 -0.34574825748E+03  0.52545531601E+03  0.00000000000E+00 0. -1.
         -2    1    6    6    0  503 -0.57566456449E+02  0.34733825880E+01 -0.10033867141E+03  0.11573163040E+03  0.00000000000E+00 0.  1.
<mgrwt>
<rscale>  0 0.18473927E+04</rscale>
<asrwt>0</asrwt>
<pdfrwt beam="1">  1        2 0.33707691E+00 0.18473927E+04</pdfrwt>
<pdfrwt beam="2">  1       -1 0.59910474E-01 0.18473927E+04</pdfrwt>
<totfact> 0.15807947E+01</totfact>
</mgrwt>
</event>
<event>
12    7  0.1729738E-007  0.1451682E+04  0.7818608E-02  0.8917235E-01
         -1   -1    0    0    0  501 -0.00000000000E+00  0.00000000000E+00  0.83319291024E+03  0.83319291024E+03  0.00000000000E+00 0.  1.
          2   -1    0    0  501    0  0.00000000000E+00 -0.00000000000E+00 -0.63232068129E+03  0.63232068129E+03  0.00000000000E+00 0. -1.
         24    2    1    2    0    0 -0.32449541070E+03  0.26324643260E+03 -0.10904220838E+03  0.43910926296E+03  0.79566235095E+02 0.  0.
        254    2    1    2    0    0  0.32449541070E+03 -0.26324643260E+03  0.30991443734E+03  0.10264043286E+04  0.88479541782E+03 0.  0.
         23    2    4    4    0    0  0.55519627009E+03 -0.36533476351E+03  0.34250706314E+03  0.75335530091E+03  0.92307818585E+02 0.  0.
         23    2    4    4    0    0 -0.23070085939E+03  0.10208833091E+03 -0.32592625801E+02  0.27304902766E+03  0.99240004123E+02 0.  0.
          4    1    3    3  502    0 -0.28404884604E+03  0.21197412308E+03 -0.11719277384E+03  0.37329736409E+03  0.00000000000E+00 0. -1.
         -3    1    3    3    0  502 -0.40446564659E+02  0.51272309520E+02  0.81505654593E+01  0.65811898875E+02  0.00000000000E+00 0.  1.
         13    1    5    5    0    0  0.34484417268E+03 -0.19506648456E+03  0.24431015803E+03  0.46546309214E+03  0.00000000000E+00 0.  1.
        -13    1    5    5    0    0  0.21035209741E+03 -0.17026827894E+03  0.98196905105E+02  0.28789220877E+03  0.00000000000E+00 0. -1.
          3    1    6    6  503    0 -0.21580896153E+03  0.11589939624E+03 -0.45266190127E+02  0.24910882340E+03  0.00000000000E+00 0. -1.
         -3    1    6    6    0  503 -0.14891897852E+02 -0.13811065330E+02  0.12673564325E+02  0.23940204257E+02  0.00000000000E+00 0.  1.
<mgrwt>
<rscale>  0 0.14516819E+04</rscale>
<asrwt>0</asrwt>
<pdfrwt beam="1">  1        2 0.97280105E-01 0.14516819E+04</pdfrwt>
<pdfrwt beam="2">  1       -1 0.12818352E+00 0.14516819E+04</pdfrwt>
<totfact> 0.27089037E+01</totfact>
</mgrwt>
</event>
<event>
12    7  0.1729738E-007  0.1894889E+04  0.7818608E-02  0.8657405E-01
         -1   -1    0    0    0  501 -0.00000000000E+00  0.00000000000E+00  0.11453869195E+04  0.11453869195E+04  0.00000000000E+00 0.  1.
          2   -1    0    0  501    0  0.00000000000E+00 -0.00000000000E+00 -0.78371003342E+03  0.78371003342E+03  0.00000000000E+00 0. -1.
         24    2    1    2    0    0  0.24107963942E+03  0.55724066578E+03 -0.23684947260E+03  0.65655543964E+03  0.79566453398E+02 0.  0.
        254    2    1    2    0    0 -0.24107963942E+03 -0.55724066578E+03  0.59852635863E+03  0.12725415132E+04  0.94471770852E+03 0.  0.
         23    2    4    4    0    0 -0.13075893624E+03 -0.74764300006E+03  0.67637930176E+03  0.10215914818E+04  0.10046014558E+03 0.  0.
         23    2    4    4    0    0 -0.11032070319E+03  0.19040233428E+03 -0.77852943132E+02  0.25095003146E+03  0.92147333568E+02 0.  0.
          4    1    3    3  502    0  0.17222051501E+03  0.37385214446E+03 -0.19837690445E+03  0.45692310943E+03  0.00000000000E+00 0. -1.
         -3    1    3    3    0  502  0.68859124414E+02  0.18338852132E+03 -0.38472568151E+02  0.19963233021E+03  0.00000000000E+00 0.  1.
         13    1    5    5    0    0 -0.41157337988E+02 -0.86560044052E+02  0.11490905047E+03  0.14963508137E+03  0.00000000000E+00 0.  1.
        -13    1    5    5    0    0 -0.89601598250E+02 -0.66108295600E+03  0.56147025130E+03  0.87195640041E+03  0.00000000000E+00 0. -1.
          3    1    6    6  503    0 -0.11031674546E+03  0.10594424216E+03 -0.61882853210E+02  0.16499531598E+03  0.00000000000E+00 0. -1.
         -3    1    6    6    0  503 -0.39577285733E-02  0.84458092119E+02 -0.15970089922E+02  0.85954715474E+02  0.00000000000E+00 0.  1.
<mgrwt>
<rscale>  0 0.18948891E+04</rscale>
<asrwt>0</asrwt>
<pdfrwt beam="1">  1        2 0.12057077E+00 0.18948891E+04</pdfrwt>
<pdfrwt beam="2">  1       -1 0.17621337E+00 0.18948891E+04</pdfrwt>
<totfact> 0.83906667E+00</totfact>
</mgrwt>
</event>
<event>
12    7  0.1729738E-007  0.1498190E+04  0.7818608E-02  0.8885658E-01
         -1   -1    0    0    0  501 -0.00000000000E+00  0.00000000000E+00  0.86855991831E+03  0.86855991831E+03  0.00000000000E+00 0.  1.
          2   -1    0    0  501    0  0.00000000000E+00 -0.00000000000E+00 -0.64606146195E+03  0.64606146195E+03  0.00000000000E+00 0. -1.
         24    2    1    2    0    0 -0.17851724814E+03 -0.38912727407E+03 -0.14406843608E+03  0.45850434975E+03  0.78626211641E+02 0.  0.
        254    2    1    2    0    0  0.17851724814E+03  0.38912727407E+03  0.36656689244E+03  0.10561170305E+04  0.89315365542E+03 0.  0.
         23    2    4    4    0    0 -0.18791118864E+02 -0.22042282671E+03 -0.10219157557E+03  0.25702770684E+03  0.81736132046E+02 0.  0.
         23    2    4    4    0    0  0.19730836700E+03  0.60955010078E+03  0.46875846801E+03  0.79908932367E+03  0.91254198947E+02 0.  0.
          4    1    3    3  502    0 -0.13509236821E+03 -0.21377099093E+03 -0.10418837442E+03  0.27350174017E+03  0.00000000000E+00 0. -1.
         -3    1    3    3    0  502 -0.43424879924E+02 -0.17535628314E+03 -0.39880061666E+02  0.18500260958E+03  0.00000000000E+00 0.  1.
         13    1    5    5    0    0 -0.24901337250E+02 -0.19442329908E+03 -0.11516036467E+03  0.22733764628E+03  0.00000000000E+00 0. -1.
        -13    1    5    5    0    0  0.61102183863E+01 -0.25999527625E+02  0.12968789098E+02  0.29690060561E+02  0.00000000000E+00 0.  1.
          1    1    6    6  503    0  0.19766647615E+03  0.51800378469E+03  0.41851040779E+03  0.69465885020E+03  0.00000000000E+00 0. -1.
         -1    1    6    6    0  503 -0.35810914334E+00  0.91546316094E+02  0.50248060222E+02  0.10443047347E+03  0.00000000000E+00 0.  1.
<mgrwt>
<rscale>  0 0.14981897E+04</rscale>
<asrwt>0</asrwt>
<pdfrwt beam="1">  1        2 0.99394071E-01 0.14981897E+04</pdfrwt>
<pdfrwt beam="2">  1       -1 0.13362460E+00 0.14981897E+04</pdfrwt>
<totfact> 0.23654944E+01</totfact>
</mgrwt>
</event>
<event>
12    7  0.1729738E-007  0.1167027E+04  0.7818608E-02  0.9142217E-01
         -1   -1    0    0    0  501 -0.00000000000E+00  0.00000000000E+00  0.46637433230E+03  0.46637433230E+03  0.00000000000E+00 0.  1.
          2   -1    0    0  501    0  0.00000000000E+00 -0.00000000000E+00 -0.73007476282E+03  0.73007476282E+03  0.00000000000E+00 0. -1.
         24    2    1    2    0    0 -0.42872628820E+01 -0.25801747648E+03 -0.23714288231E+03  0.36408640587E+03  0.98644642605E+02 0.  0.
        254    2    1    2    0    0  0.42872628820E+01  0.25801747648E+03 -0.26557548211E+02  0.83236268924E+03  0.79090514241E+03 0.  0.
         23    2    4    4    0    0 -0.99281303200E+02 -0.24387388820E+03 -0.11979091178E+03  0.30365122849E+03  0.92319854355E+02 0.  0.
         23    2    4    4    0    0  0.10356856608E+03  0.50189136468E+03  0.93233363567E+02  0.52871146076E+03  0.90675017696E+02 0.  0.
          2    1    3    3  502    0  0.36263299253E+01 -0.56731327196E+01  0.91643312756E+01  0.11371880729E+02  0.00000000000E+00 0. -1.
         -1    1    3    3    0  502 -0.79135928073E+01 -0.25234434377E+03 -0.24630721359E+03  0.35271452514E+03  0.00000000000E+00 0.  1.
         13    1    5    5    0    0 -0.42342009687E+02 -0.19687904251E+03 -0.64649192000E+02  0.21150347796E+03  0.00000000000E+00 0.  1.
        -13    1    5    5    0    0 -0.56939293512E+02 -0.46994845687E+02 -0.55141719778E+02  0.92147750526E+02  0.00000000000E+00 0. -1.
          4    1    6    6  503    0  0.18081899406E+02  0.17585085156E+02  0.18482699511E+02  0.31269801523E+02  0.00000000000E+00 0. -1.
         -4    1    6    6    0  503  0.85486666675E+02  0.48430627952E+03  0.74750664057E+02  0.49744165923E+03  0.00000000000E+00 0.  1.
<mgrwt>
<rscale>  0 0.11670272E+04</rscale>
<asrwt>0</asrwt>
<pdfrwt beam="1">  1        2 0.11231919E+00 0.11670272E+04</pdfrwt>
<pdfrwt beam="2">  1       -1 0.71749897E-01 0.11670272E+04</pdfrwt>
<totfact> 0.86002865E+01</totfact>
</mgrwt>
</event>
<event>
12    7  0.1729738E-007  0.1790985E+04  0.7818608E-02  0.8711108E-01
          2   -1    0    0  501    0  0.00000000000E+00  0.00000000000E+00  0.11639838062E+04  0.11639838062E+04  0.00000000000E+00 0. -1.
         -1   -1    0    0    0  501 -0.00000000000E+00 -0.00000000000E+00 -0.68893323500E+03  0.68893323500E+03  0.00000000000E+00 0.  1.
         24    2    1    2    0    0 -0.63610144113E+03 -0.12996646434E+02  0.46535159689E+03  0.79228789738E+03  0.79837631314E+02 0.  0.
        254    2    1    2    0    0  0.63610144113E+03  0.12996646434E+02  0.96989743379E+01  0.10606291439E+04  0.84855533376E+03 0.  0.
         23    2    4    4    0    0  0.60987539720E+03 -0.33265081934E+03  0.44054599090E+02  0.70198652567E+03  0.90772830745E+02 0.  0.
         23    2    4    4    0    0  0.26226043929E+02  0.34564746578E+03 -0.34355624752E+02  0.35864261818E+03  0.85347774695E+02 0.  0.
          4    1    3    3  502    0 -0.50979406217E+03 -0.25742393843E+02  0.33634494160E+03  0.61129418156E+03  0.00000000000E+00 0. -1.
         -3    1    3    3    0  502 -0.12630737896E+03  0.12745747409E+02  0.12900665530E+03  0.18099371582E+03  0.00000000000E+00 0.  1.
         13    1    5    5    0    0  0.15861126246E+03 -0.81131453628E+02  0.51007232554E+02  0.18531482164E+03  0.00000000000E+00 0. -1.
        -13    1    5    5    0    0  0.45126413474E+03 -0.25151936572E+03 -0.69526334634E+01  0.51667170403E+03  0.00000000000E+00 0.  1.
          2    1    6    6  503    0  0.50695176896E+02  0.30420342715E+03 -0.35955734019E+02  0.31048758568E+03  0.00000000000E+00 0. -1.
         -2    1    6    6    0  503 -0.24469132967E+02  0.41444038627E+02  0.16001092667E+01  0.48155032505E+02  0.00000000000E+00 0.  1.
<mgrwt>
<rscale>  0 0.17909853E+04</rscale>
<asrwt>0</asrwt>
<pdfrwt beam="1">  1        2 0.17907443E+00 0.17909853E+04</pdfrwt>
<pdfrwt beam="2">  1       -1 0.10598973E+00 0.17909853E+04</pdfrwt>
<totfact> 0.17867959E+01</totfact>
</mgrwt>
</event>
<event>
12    7  0.1729738E-007  0.1571236E+04  0.7818608E-02  0.8838416E-01
         -1   -1    0    0    0  501 -0.00000000000E+00  0.00000000000E+00  0.88327652298E+03  0.88327652298E+03  0.00000000000E+00 0.  1.
          2   -1    0    0  501    0  0.00000000000E+00 -0.00000000000E+00 -0.69875677448E+03  0.69875677448E+03  0.00000000000E+00 0. -1.
         24    2    1    2    0    0 -0.37482203170E+03 -0.14712761015E+03 -0.27485325088E+03  0.49426321393E+03  0.81324817902E+02 0.  0.
        254    2    1    2    0    0  0.37482203170E+03  0.14712761015E+03  0.45937299938E+03  0.10877700835E+04  0.90004561716E+03 0.  0.
         23    2    4    4    0    0  0.16567677800E+03 -0.33246915775E+03 -0.51772872669E+01  0.38252887126E+03  0.91197573548E+02 0.  0.
         23    2    4    4    0    0  0.20914525370E+03  0.47959676790E+03  0.46455028665E+03  0.70524121228E+03  0.88336865164E+02 0.  0.
          4    1    3    3  502    0 -0.28132752763E+03 -0.13324327339E+03 -0.24167814942E+03  0.39409044091E+03  0.00000000000E+00 0. -1.
         -3    1    3    3    0  502 -0.93494504064E+02 -0.13884336761E+02 -0.33175101464E+02  0.10017277302E+03  0.00000000000E+00 0.  1.
         13    1    5    5    0    0  0.16703858704E+03 -0.25658220292E+03  0.31010245685E+01  0.30617957601E+03  0.00000000000E+00 0. -1.
        -13    1    5    5    0    0 -0.13618090436E+01 -0.75886954836E+02 -0.82783118355E+01  0.76349295249E+02  0.00000000000E+00 0.  1.
          3    1    6    6  503    0  0.12903241587E+03  0.34148998332E+03  0.27281203592E+03  0.45573147796E+03  0.00000000000E+00 0. -1.
         -3    1    6    6    0  503  0.80112837828E+02  0.13810678458E+03  0.19173825072E+03  0.24950973432E+03  0.00000000000E+00 0.  1.
<mgrwt>
<rscale>  0 0.15712358E+04</rscale>
<asrwt>0</asrwt>
<pdfrwt beam="1">  1        2 0.10750104E+00 0.15712358E+04</pdfrwt>
<pdfrwt beam="2">  1       -1 0.13588870E+00 0.15712358E+04</pdfrwt>
<totfact> 0.20419118E+01</totfact>
</mgrwt>
</event>
<event>
12    7  0.1729738E-007  0.1739482E+04  0.7818608E-02  0.8739161E-01
          2   -1    0    0  501    0  0.00000000000E+00  0.00000000000E+00  0.11026156289E+04  0.11026156289E+04  0.00000000000E+00 0. -1.
         -1   -1    0    0    0  501 -0.00000000000E+00 -0.00000000000E+00 -0.68605008796E+03  0.68605008796E+03  0.00000000000E+00 0.  1.
         24    2    1    2    0    0  0.58750227848E+03  0.99786055581E+01 -0.10152580684E+03  0.60148528377E+03  0.78857829974E+02 0.  0.
        254    2    1    2    0    0 -0.58750227848E+03 -0.99786055581E+01  0.51809134779E+03  0.11871804331E+04  0.89203152204E+03 0.  0.
         23    2    4    4    0    0 -0.23645559487E+03 -0.24704131901E+03 -0.15558664165E+03  0.38613794400E+03  0.89188828269E+02 0.  0.
         23    2    4    4    0    0 -0.35104668360E+03  0.23706271346E+03  0.67367798944E+03  0.80104248910E+03  0.91621677093E+02 0.  0.
          2    1    3    3  502    0  0.46182105501E+03 -0.19875279185E+02 -0.96472130405E+02  0.47220820145E+03  0.00000000000E+00 0. -1.
         -1    1    3    3    0  502  0.12568122347E+03  0.29853884743E+02 -0.50536764389E+01  0.12927708232E+03  0.00000000000E+00 0.  1.
         13    1    5    5    0    0 -0.88231930341E+02 -0.14708829749E+03 -0.50670359177E+02  0.17885001003E+03  0.00000000000E+00 0. -1.
        -13    1    5    5    0    0 -0.14822366453E+03 -0.99953021527E+02 -0.10491628247E+03  0.20728793397E+03  0.00000000000E+00 0.  1.
          1    1    6    6  503    0 -0.10393299942E+03  0.41563807440E+02  0.12087264363E+03  0.16474165969E+03  0.00000000000E+00 0. -1.
         -1    1    6    6    0  503 -0.24711368418E+03  0.19549890602E+03  0.55280534581E+03  0.63630082942E+03  0.00000000000E+00 0.  1.
<mgrwt>
<rscale>  0 0.17394822E+04</rscale>
<asrwt>0</asrwt>
<pdfrwt beam="1">  1        2 0.16963317E+00 0.17394822E+04</pdfrwt>
<pdfrwt beam="2">  1       -1 0.10554617E+00 0.17394822E+04</pdfrwt>
<totfact> 0.19755541E+01</totfact>
</mgrwt>
</event>
<event>
12    7  0.1729738E-007  0.1907205E+04  0.7818608E-02  0.8651278E-01
         -3   -1    0    0    0  501 -0.00000000000E+00  0.00000000000E+00  0.99928036737E+03  0.99928036737E+03  0.00000000000E+00 0.  1.
          2   -1    0    0  501    0  0.00000000000E+00 -0.00000000000E+00 -0.91001271961E+03  0.91001271961E+03  0.00000000000E+00 0. -1.
         24    2    1    2    0    0  0.35523323754E+03 -0.50086335762E+03  0.44424317233E+03  0.76198429785E+03  0.78824602391E+02 0.  0.
        254    2    1    2    0    0 -0.35523323754E+03  0.50086335762E+03 -0.35497552457E+03  0.11473087891E+04  0.90180656381E+03 0.  0.
         23    2    4    4    0    0 -0.29919822583E+02 -0.19621233156E+03 -0.29920753556E+03  0.37056497265E+03  0.91644829544E+02 0.  0.
         23    2    4    4    0    0 -0.32531341496E+03  0.69707568918E+03 -0.55767989009E+02  0.77674381649E+03  0.92073630583E+02 0.  0.
          2    1    3    3  502    0  0.35616656188E+02 -0.32697708684E+02  0.13998592759E+02  0.50335344942E+02  0.00000000000E+00 0. -1.
         -1    1    3    3    0  502  0.31961658136E+03 -0.46816564894E+03  0.43024457957E+03  0.71164895290E+03  0.00000000000E+00 0.  1.
         13    1    5    5    0    0  0.25493972235E+02 -0.22818164537E+02 -0.69585355298E+02  0.77541814043E+02  0.00000000000E+00 0.  1.
        -13    1    5    5    0    0 -0.55413794818E+02 -0.17339416702E+03 -0.22962218026E+03  0.29302315861E+03  0.00000000000E+00 0. -1.
          1    1    6    6  503    0 -0.25621303673E+03  0.57849579143E+03 -0.78790499381E+02  0.63758171530E+03  0.00000000000E+00 0. -1.
         -1    1    6    6    0  503 -0.69100378230E+02  0.11857989776E+03  0.23022510373E+02  0.13916210119E+03  0.00000000000E+00 0.  1.
<mgrwt>
<rscale>  0 0.19072051E+04</rscale>
<asrwt>0</asrwt>
<pdfrwt beam="1">  1        2 0.14000196E+00 0.19072051E+04</pdfrwt>
<pdfrwt beam="2">  1       -3 0.15373544E+00 0.19072051E+04</pdfrwt>
<totfact> 0.51559666E+00</totfact>
</mgrwt>
</event>
<event>
12    7  0.1729738E-007  0.1587011E+04  0.7818608E-02  0.8828568E-01
         -1   -1    0    0    0  501 -0.00000000000E+00  0.00000000000E+00  0.16862305145E+03  0.16862305145E+03  0.00000000000E+00 0.  1.
          2   -1    0    0  501    0  0.00000000000E+00 -0.00000000000E+00 -0.37340727506E+04  0.37340727506E+04  0.00000000000E+00 0. -1.
         24    2    1    2    0    0  0.16104788385E+03 -0.23013637307E+03 -0.23095601891E+04  0.23279659125E+04  0.80360760042E+02 0.  0.
        254    2    1    2    0    0 -0.16104788385E+03  0.23013637307E+03 -0.12558895101E+04  0.15747298895E+04  0.90753324589E+03 0.  0.
         23    2    4    4    0    0  0.24194421925E+03  0.38294961115E+03 -0.39896721358E+03  0.61133305315E+03  0.96777344703E+02 0.  0.
         23    2    4    4    0    0 -0.40299210310E+03 -0.15281323807E+03 -0.85692229649E+03  0.96339683639E+03  0.89794884364E+02 0.  0.
          2    1    3    3  502    0  0.15339531189E+03 -0.23665485354E+03 -0.22397598390E+04  0.22574454097E+04  0.00000000000E+00 0. -1.
         -3    1    3    3    0  502  0.76525719616E+01  0.65184804660E+01 -0.69800350114E+02  0.70520502843E+02  0.00000000000E+00 0.  1.
         13    1    5    5    0    0  0.17364056274E+03  0.31699794209E+03 -0.26984628711E+03  0.45106070432E+03  0.00000000000E+00 0.  1.
        -13    1    5    5    0    0  0.68303656512E+02  0.65951669063E+02 -0.12912092647E+03  0.16027234883E+03  0.00000000000E+00 0. -1.
          1    1    6    6  503    0 -0.14471948334E+02  0.94040356958E+00 -0.65451680871E+01  0.15911029909E+02  0.00000000000E+00 0. -1.
         -1    1    6    6    0  503 -0.38852015477E+03 -0.15375364164E+03 -0.85037712840E+03  0.94748580648E+03  0.00000000000E+00 0.  1.
<mgrwt>
<rscale>  0 0.15870107E+04</rscale>
<asrwt>0</asrwt>
<pdfrwt beam="1">  1        2 0.57447271E+00 0.15870107E+04</pdfrwt>
<pdfrwt beam="2">  1       -1 0.25942009E-01 0.15870107E+04</pdfrwt>
<totfact> 0.80360096E+00</totfact>
</mgrwt>
</event>
<event>
12    7  0.1729738E-007  0.1968634E+04  0.7818608E-02  0.8621427E-01
          2   -1    0    0  501    0  0.00000000000E+00  0.00000000000E+00  0.26984422150E+04  0.26984422150E+04  0.00000000000E+00 0. -1.
         -1   -1    0    0    0  501 -0.00000000000E+00 -0.00000000000E+00 -0.35905160822E+03  0.35905160822E+03  0.00000000000E+00 0.  1.
         24    2    1    2    0    0  0.66704074876E+02  0.19012365895E+03 -0.23820904673E+03  0.32185603265E+03  0.79065267431E+02 0.  0.
        254    2    1    2    0    0 -0.66704074876E+02 -0.19012365895E+03  0.25775996535E+04  0.27356377905E+04  0.89392265218E+03 0.  0.
         23    2    4    4    0    0 -0.33260952128E+03  0.18860941531E+03  0.73533992996E+03  0.83393665353E+03  0.92319685410E+02 0.  0.
         23    2    4    4    0    0  0.26590544640E+03 -0.37873307425E+03  0.18422597235E+04  0.19017011370E+04  0.91661756625E+02 0.  0.
          2    1    3    3  502    0  0.25242305244E+02  0.56199059655E+01 -0.17559546792E+02  0.31258518849E+02  0.00000000000E+00 0. -1.
         -1    1    3    3    0  502  0.41461769632E+02  0.18450375298E+03 -0.22064949994E+03  0.29059751380E+03  0.00000000000E+00 0.  1.
         13    1    5    5    0    0 -0.31908729481E+03  0.17285673343E+03  0.72497830933E+03  0.81073405072E+03  0.00000000000E+00 0.  1.
        -13    1    5    5    0    0 -0.13522226466E+02  0.15752681875E+02  0.10361620634E+02  0.23202602807E+02  0.00000000000E+00 0. -1.
          3    1    6    6  503    0  0.13724866896E+03 -0.22336760923E+03  0.12086474736E+04  0.12367534117E+04  0.00000000000E+00 0. -1.
         -3    1    6    6    0  503  0.12865677744E+03 -0.15536546502E+03  0.63361224995E+03  0.66494772531E+03  0.00000000000E+00 0.  1.
<mgrwt>
<rscale>  0 0.19686341E+04</rscale>
<asrwt>0</asrwt>
<pdfrwt beam="1">  1        2 0.41514494E+00 0.19686341E+04</pdfrwt>
<pdfrwt beam="2">  1       -1 0.55238711E-01 0.19686341E+04</pdfrwt>
<totfact> 0.93596640E+00</totfact>
</mgrwt>
</event>
<event>
12    7  0.1729738E-007  0.1600149E+04  0.7818608E-02  0.8820457E-01
          2   -1    0    0  501    0  0.00000000000E+00  0.00000000000E+00  0.26728179486E+04  0.26728179486E+04  0.00000000000E+00 0. -1.
         -3   -1    0    0    0  501 -0.00000000000E+00 -0.00000000000E+00 -0.23949223087E+03  0.23949223087E+03  0.00000000000E+00 0.  1.
         24    2    1    2    0    0 -0.32781733445E+03  0.30680894394E+03  0.26458460517E+03  0.52715343606E+03  0.79308253095E+02 0.  0.
        254    2    1    2    0    0  0.32781733445E+03 -0.30680894394E+03  0.21687411126E+04  0.23851567434E+04  0.88540315364E+03 0.  0.
         23    2    4    4    0    0  0.24594371846E+03  0.20813294314E+03  0.32515133844E+03  0.46708115279E+03  0.92918113017E+02 0.  0.
         23    2    4    4    0    0  0.81873615990E+02 -0.51494188708E+03  0.18435897741E+04  0.19180755907E+04  0.91226531482E+02 0.  0.
          2    1    3    3  502    0 -0.17898835596E+02  0.30433589911E+02  0.10210270733E+01  0.35321582734E+02  0.00000000000E+00 0. -1.
         -1    1    3    3    0  502 -0.30991849885E+03  0.27637535403E+03  0.26356357809E+03  0.49183185332E+03  0.00000000000E+00 0.  1.
         13    1    5    5    0    0  0.10161375754E+03  0.31789041540E+02  0.87296791883E+02  0.13768307360E+03  0.00000000000E+00 0. -1.
        -13    1    5    5    0    0  0.14432996092E+03  0.17634390160E+03  0.23785454656E+03  0.32939807918E+03  0.00000000000E+00 0.  1.
          2    1    6    6  503    0 -0.16162454039E+02 -0.11466282254E+03  0.34891175989E+03  0.36762508617E+03  0.00000000000E+00 0. -1.
         -2    1    6    6    0  503  0.98036070029E+02 -0.40027906454E+03  0.14946780143E+04  0.15504505045E+04  0.00000000000E+00 0.  1.
<mgrwt>
<rscale>  0 0.16001489E+04</rscale>
<asrwt>0</asrwt>
<pdfrwt beam="1">  1        2 0.41120274E+00 0.16001489E+04</pdfrwt>
<pdfrwt beam="2">  1       -3 0.36844960E-01 0.16001489E+04</pdfrwt>
<totfact> 0.12532432E+01</totfact>
</mgrwt>
</event>
<event>
12    7  0.1729738E-007  0.1925780E+04  0.7818608E-02  0.8642129E-01
          2   -1    0    0  501    0  0.00000000000E+00  0.00000000000E+00  0.40828466368E+04  0.40828466368E+04  0.00000000000E+00 0. -1.
         -1   -1    0    0    0  501 -0.00000000000E+00 -0.00000000000E+00 -0.22708607362E+03  0.22708607362E+03  0.00000000000E+00 0.  1.
         24    2    1    2    0    0  0.39877227855E+03 -0.51370317056E+03  0.68272039933E+03  0.94631419550E+03  0.80579993488E+02 0.  0.
        254    2    1    2    0    0 -0.39877227855E+03  0.51370317056E+03  0.31730401639E+04  0.33636185149E+04  0.90710272567E+03 0.  0.
         23    2    4    4    0    0 -0.50637506790E+02  0.62039333116E+03  0.11925870360E+04  0.13476514565E+04  0.80302971501E+02 0.  0.
         23    2    4    4    0    0 -0.34813477176E+03 -0.10669016060E+03  0.19804531278E+04  0.20159670584E+04  0.96684949723E+02 0.  0.
          2    1    3    3  502    0  0.23909071471E+01 -0.22240905750E+02  0.12917028047E+02  0.25830678256E+02  0.00000000000E+00 0. -1.
         -1    1    3    3    0  502  0.39638137140E+03 -0.49146226481E+03  0.66980337129E+03  0.92048351724E+03  0.00000000000E+00 0.  1.
         13    1    5    5    0    0  0.80259020968E-01  0.39708144356E+03  0.80097033377E+03  0.89399505303E+03  0.00000000000E+00 0.  1.
        -13    1    5    5    0    0 -0.50717765811E+02  0.22331188760E+03  0.39161670226E+03  0.45365640346E+03  0.00000000000E+00 0. -1.
          2    1    6    6  503    0 -0.22381776227E+03 -0.44774564380E+02  0.99950442530E+03  0.10252357039E+04  0.00000000000E+00 0. -1.
         -2    1    6    6    0  503 -0.12431700948E+03 -0.61915596219E+02  0.98094870253E+03  0.99073135455E+03  0.00000000000E+00 0.  1.
<mgrwt>
<rscale>  0 0.19257805E+04</rscale>
<asrwt>0</asrwt>
<pdfrwt beam="1">  1        2 0.62813020E+00 0.19257805E+04</pdfrwt>
<pdfrwt beam="2">  1       -1 0.34936322E-01 0.19257805E+04</pdfrwt>
<totfact> 0.24542244E+00</totfact>
</mgrwt>
</event>
<event>
12    7  0.1729738E-007  0.1514576E+04  0.7818608E-02  0.8874818E-01
         -1   -1    0    0    0  501 -0.00000000000E+00  0.00000000000E+00  0.80608287294E+03  0.80608287294E+03  0.00000000000E+00 0.  1.
          2   -1    0    0  501    0  0.00000000000E+00 -0.00000000000E+00 -0.71144676524E+03  0.71144676524E+03  0.00000000000E+00 0. -1.
         24    2    1    2    0    0 -0.62849910556E+02 -0.85044451297E+02  0.50666597061E+03  0.52390290224E+03  0.81124442974E+02 0.  0.
        254    2    1    2    0    0  0.62849910556E+02  0.85044451297E+02 -0.41202986291E+03  0.99362673594E+03  0.89796593058E+03 0.  0.
         23    2    4    4    0    0  0.34501649966E+02  0.13426529978E+03  0.26292469994E+03  0.31042344424E+03  0.89530901455E+02 0.  0.
         23    2    4    4    0    0  0.28348260590E+02 -0.49220848487E+02 -0.67495456286E+03  0.68320329170E+03  0.89312709437E+02 0.  0.
          2    1    3    3  502    0  0.94778246562E+01  0.16059777738E+01  0.13827759479E+03  0.13861133267E+03  0.00000000000E+00 0. -1.
         -1    1    3    3    0  502 -0.72327735212E+02 -0.86650429071E+02  0.36838837582E+03  0.38529156957E+03  0.00000000000E+00 0.  1.
         13    1    5    5    0    0  0.15007262337E+02  0.14604200294E+01 -0.15551425323E+00  0.15078956668E+02  0.00000000000E+00 0.  1.
        -13    1    5    5    0    0  0.19494387629E+02  0.13280487976E+03  0.26308021420E+03  0.29534448757E+03  0.00000000000E+00 0. -1.
          3    1    6    6  503    0  0.55888461108E+02 -0.22275283964E+02 -0.52262134519E+03  0.52607297860E+03  0.00000000000E+00 0. -1.
         -3    1    6    6    0  503 -0.27540200518E+02 -0.26945564523E+02 -0.15233321767E+03  0.15713031311E+03  0.00000000000E+00 0.  1.
<mgrwt>
<rscale>  0 0.15145759E+04</rscale>
<asrwt>0</asrwt>
<pdfrwt beam="1">  1        2 0.10945335E+00 0.15145759E+04</pdfrwt>
<pdfrwt beam="2">  1       -1 0.12401275E+00 0.15145759E+04</pdfrwt>
<totfact> 0.25259208E+01</totfact>
</mgrwt>
</event>
<event>
12    7  0.1729738E-007  0.3259269E+04  0.7818608E-02  0.8173337E-01
          2   -1    0    0  501    0  0.00000000000E+00  0.00000000000E+00  0.18608419795E+04  0.18608419795E+04  0.00000000000E+00 0. -1.
         -1   -1    0    0    0  501 -0.00000000000E+00 -0.00000000000E+00 -0.14271547109E+04  0.14271547109E+04  0.00000000000E+00 0.  1.
         24    2    1    2    0    0  0.85169989061E+01  0.58338116858E+03  0.15990143252E+04  0.17038524461E+04  0.76552064768E+02 0.  0.
        254    2    1    2    0    0 -0.85169989061E+01 -0.58338116858E+03 -0.11653270566E+04  0.15841442443E+04  0.90062184674E+03 0.  0.
         23    2    4    4    0    0 -0.31880378202E+03  0.75374142848E+02 -0.38994903609E+03  0.51644679492E+03  0.85673382071E+02 0.  0.
         23    2    4    4    0    0  0.31028678312E+03 -0.65875531142E+03 -0.77537802050E+03  0.10676974494E+04  0.92359734965E+02 0.  0.
          2    1    3    3  502    0 -0.45337190430E+01  0.54148594414E+03  0.15184015939E+04  0.16120704025E+04  0.00000000000E+00 0. -1.
         -1    1    3    3    0  502  0.13050717949E+02  0.41895224435E+02  0.80612731349E+02  0.91782043587E+02  0.00000000000E+00 0.  1.
         13    1    5    5    0    0 -0.21058821791E+03  0.90427191913E+02 -0.27166157146E+03  0.35542155811E+03  0.00000000000E+00 0.  1.
        -13    1    5    5    0    0 -0.10821556411E+03 -0.15053049066E+02 -0.11828746463E+03  0.16102523681E+03  0.00000000000E+00 0. -1.
          4    1    6    6  503    0  0.12317566022E+03 -0.23323363916E+03 -0.34444135818E+03  0.43383179106E+03  0.00000000000E+00 0. -1.
         -4    1    6    6    0  503  0.18711112290E+03 -0.42552167226E+03 -0.43093666232E+03  0.63386565833E+03  0.00000000000E+00 0.  1.
<mgrwt>
<rscale>  0 0.32592695E+04</rscale>
<asrwt>0</asrwt>
<pdfrwt beam="1">  1        2 0.28628338E+00 0.32592695E+04</pdfrwt>
<pdfrwt beam="2">  1       -1 0.21956226E+00 0.32592695E+04</pdfrwt>
<totfact> 0.84333816E-01</totfact>
</mgrwt>
</event>
<event>
12    7  0.1729738E-007  0.1857176E+04  0.7818608E-02  0.8676471E-01
          2   -1    0    0  501    0  0.00000000000E+00  0.00000000000E+00  0.11697703470E+04  0.11697703470E+04  0.00000000000E+00 0. -1.
         -1   -1    0    0    0  501 -0.00000000000E+00 -0.00000000000E+00 -0.73713239518E+03  0.73713239518E+03  0.00000000000E+00 0.  1.
         24    2    1    2    0    0 -0.31778004246E+03  0.97210548009E+02 -0.47553149706E+03  0.59014989203E+03  0.10822497095E+03 0.  0.
        254    2    1    2    0    0  0.31778004246E+03 -0.97210548009E+02  0.90816944892E+03  0.13167528502E+04  0.89366228212E+03 0.  0.
         23    2    4    4    0    0  0.19861003766E+03 -0.46491289612E+03  0.31560483641E+03  0.60301482384E+03  0.91817846609E+02 0.  0.
         23    2    4    4    0    0  0.11917000479E+03  0.36770234812E+03  0.59256461251E+03  0.71373802635E+03  0.94247776676E+02 0.  0.
          2    1    3    3  502    0 -0.76447952788E+02  0.70357930451E+02 -0.17806776596E+03  0.20616172568E+03  0.00000000000E+00 0. -1.
         -1    1    3    3    0  502 -0.24133208967E+03  0.26852617558E+02 -0.29746373110E+03  0.38398816635E+03  0.00000000000E+00 0.  1.
         13    1    5    5    0    0  0.11144617635E+03 -0.36147261382E+03  0.24143911544E+03  0.44874886878E+03  0.00000000000E+00 0.  1.
        -13    1    5    5    0    0  0.87163861318E+02 -0.10344028231E+03  0.74165720967E+02  0.15426595506E+03  0.00000000000E+00 0. -1.
          4    1    6    6  503    0  0.72671931518E+02  0.27341048423E+03  0.35490993164E+03  0.45386733975E+03  0.00000000000E+00 0.  1.
         -4    1    6    6    0  503  0.46498073276E+02  0.94291863882E+02  0.23765468087E+03  0.25987068660E+03  0.00000000000E+00 0. -1.
<mgrwt>
<rscale>  0 0.18571759E+04</rscale>
<asrwt>0</asrwt>
<pdfrwt beam="1">  1        2 0.17996467E+00 0.18571759E+04</pdfrwt>
<pdfrwt beam="2">  1       -1 0.11340498E+00 0.18571759E+04</pdfrwt>
<totfact> 0.15024093E+01</totfact>
</mgrwt>
</event>
<event>
12    7  0.1729738E-007  0.1358668E+04  0.7818608E-02  0.8984292E-01
          2   -1    0    0  501    0  0.00000000000E+00  0.00000000000E+00  0.92163732652E+03  0.92163732652E+03  0.00000000000E+00 0. -1.
         -1   -1    0    0    0  501 -0.00000000000E+00 -0.00000000000E+00 -0.50073343976E+03  0.50073343976E+03  0.00000000000E+00 0.  1.
         24    2    1    2    0    0  0.14819202190E+03 -0.33803541274E+03  0.34076123241E+02  0.37966513980E+03  0.82192582281E+02 0.  0.
        254    2    1    2    0    0 -0.14819202190E+03  0.33803541274E+03  0.38682776352E+03  0.10427056265E+04  0.89519298995E+03 0.  0.
         23    2    4    4    0    0  0.28888196871E+03  0.71148198450E+02 -0.10376772883E+03  0.32793720133E+03  0.90885689082E+02 0.  0.
         23    2    4    4    0    0 -0.43707399061E+03  0.26688721429E+03  0.49059549235E+03  0.71476842515E+03  0.89148786071E+02 0.  0.
          4    1    3    3  502    0 -0.46275856167E+01 -0.49541216347E+01 -0.83460181871E+01  0.10752389939E+02  0.00000000000E+00 0. -1.
         -1    1    3    3    0  502  0.15281960751E+03 -0.33308129111E+03  0.42422141428E+02  0.36891274986E+03  0.00000000000E+00 0.  1.
         13    1    5    5    0    0  0.18657636509E+02 -0.13898560668E+02 -0.24451923655E+02  0.33751651207E+02  0.00000000000E+00 0. -1.
        -13    1    5    5    0    0  0.27022433220E+03  0.85046759117E+02 -0.79315805177E+02  0.29418555012E+03  0.00000000000E+00 0.  1.
          1    1    6    6  503    0 -0.11578926374E+02  0.62001894629E+01 -0.23488282184E+01  0.13342821267E+02  0.00000000000E+00 0. -1.
         -1    1    6    6    0  503 -0.42549506424E+03  0.26068702483E+03  0.49294432057E+03  0.70142560389E+03  0.00000000000E+00 0.  1.
<mgrwt>
<rscale>  0 0.13586679E+04</rscale>
<asrwt>0</asrwt>
<pdfrwt beam="1">  1        2 0.14179036E+00 0.13586679E+04</pdfrwt>
<pdfrwt beam="2">  1       -1 0.77035914E-01 0.13586679E+04</pdfrwt>
<totfact> 0.53395730E+01</totfact>
</mgrwt>
</event>
<event>
12    7  0.1729738E-007  0.1174190E+04  0.7818608E-02  0.9135753E-01
         -1   -1    0    0    0  501 -0.00000000000E+00  0.00000000000E+00  0.26403486870E+03  0.26403486870E+03  0.00000000000E+00 0.  1.
          2   -1    0    0  501    0  0.00000000000E+00 -0.00000000000E+00 -0.13054351778E+04  0.13054351778E+04  0.00000000000E+00 0. -1.
         24    2    1    2    0    0  0.22448077913E+03 -0.74962589455E+02 -0.19128703354E+03  0.31444740195E+03  0.79217607742E+02 0.  0.
        254    2    1    2    0    0 -0.22448077913E+03  0.74962589455E+02 -0.85011327554E+03  0.12550226445E+04  0.89240027286E+03 0.  0.
         23    2    4    4    0    0 -0.46910514125E+03  0.31022046237E+03 -0.47686499085E+03  0.74229530482E+03  0.85473570392E+02 0.  0.
         23    2    4    4    0    0  0.24462436212E+03 -0.23525787292E+03 -0.37324828469E+03  0.51272733970E+03  0.91584373903E+02 0.  0.
          4    1    3    3  502    0  0.14018152982E+02 -0.27981550377E+02 -0.41097399420E+02  0.51657255189E+02  0.00000000000E+00 0. -1.
         -3    1    3    3    0  502  0.21046262615E+03 -0.46981039078E+02 -0.15018963412E+03  0.26279014676E+03  0.00000000000E+00 0.  1.
         13    1    5    5    0    0 -0.90006367854E+02  0.72910364751E+02 -0.58044788555E+02  0.12956181930E+03  0.00000000000E+00 0.  1.
        -13    1    5    5    0    0 -0.37909877340E+03  0.23731009762E+03 -0.41882020229E+03  0.61273348552E+03  0.00000000000E+00 0. -1.
          3    1    6    6  503    0  0.22548358959E+03 -0.19061546877E+03 -0.35273923711E+03  0.46000225598E+03  0.00000000000E+00 0. -1.
         -3    1    6    6    0  503  0.19140772526E+02 -0.44642404150E+02 -0.20509047583E+02  0.52725083727E+02  0.00000000000E+00 0.  1.
<mgrwt>
<rscale>  0 0.11741898E+04</rscale>
<asrwt>0</asrwt>
<pdfrwt beam="1">  1        2 0.20083618E+00 0.11741898E+04</pdfrwt>
<pdfrwt beam="2">  1       -1 0.40620749E-01 0.11741898E+04</pdfrwt>
<totfact> 0.10939454E+02</totfact>
</mgrwt>
</event>
<event>
12    7  0.1729738E-007  0.1821504E+04  0.7818608E-02  0.8694947E-01
          2   -1    0    0  501    0  0.00000000000E+00  0.00000000000E+00  0.25642427082E+04  0.25642427082E+04  0.00000000000E+00 0. -1.
         -1   -1    0    0    0  501 -0.00000000000E+00 -0.00000000000E+00 -0.32347522604E+03  0.32347522604E+03  0.00000000000E+00 0.  1.
         24    2    1    2    0    0  0.68520140574E+03 -0.30195868265E+02  0.93698951103E+03  0.11639194249E+04  0.79663837777E+02 0.  0.
        254    2    1    2    0    0 -0.68520140574E+03  0.30195868265E+02  0.13037779712E+04  0.17237985093E+04  0.89511538130E+03 0.  0.
         23    2    4    4    0    0  0.86085844585E+02 -0.26836610107E+03  0.33536901215E+03  0.44705111435E+03  0.89169432478E+02 0.  0.
         23    2    4    4    0    0 -0.77128725033E+03  0.29856196933E+03  0.96840895901E+03  0.12767473950E+04  0.90800477342E+02 0.  0.
          2    1    3    3  502    0  0.65120049961E+03 -0.13071453345E+02  0.86902637721E+03  0.10860201646E+04  0.00000000000E+00 0. -1.
         -1    1    3    3    0  502  0.34000906134E+02 -0.17124414920E+02  0.67963133817E+02  0.77899260346E+02  0.00000000000E+00 0.  1.
         13    1    5    5    0    0 -0.11588860921E+02 -0.26486012472E+02  0.66112443049E+02  0.72157228882E+02  0.00000000000E+00 0. -1.
        -13    1    5    5    0    0  0.97674705506E+02 -0.24188008860E+03  0.26925656910E+03  0.37489388546E+03  0.00000000000E+00 0.  1.
          3    1    6    6  503    0 -0.18138390654E+03  0.81321469812E+02  0.29291726800E+03  0.35399693346E+03  0.00000000000E+00 0. -1.
         -3    1    6    6    0  503 -0.58990334379E+03  0.21724049952E+03  0.67549169101E+03  0.92275046154E+03  0.00000000000E+00 0.  1.
<mgrwt>
<rscale>  0 0.18215038E+04</rscale>
<asrwt>0</asrwt>
<pdfrwt beam="1">  1        2 0.39449887E+00 0.18215038E+04</pdfrwt>
<pdfrwt beam="2">  1       -1 0.49765421E-01 0.18215038E+04</pdfrwt>
<totfact> 0.13897859E+01</totfact>
</mgrwt>
</event>
<event>
12    7  0.1729738E-007  0.1088706E+04  0.7818608E-02  0.9216271E-01
         -1   -1    0    0    0  501 -0.00000000000E+00  0.00000000000E+00  0.10948414254E+04  0.10948414254E+04  0.00000000000E+00 0.  1.
          2   -1    0    0  501    0  0.00000000000E+00 -0.00000000000E+00 -0.27065101607E+03  0.27065101607E+03  0.00000000000E+00 0. -1.
         24    2    1    2    0    0  0.66693172437E+02 -0.11149334858E+03  0.27736996744E+03  0.31677759524E+03  0.80840583736E+02 0.  0.
        254    2    1    2    0    0 -0.66693172437E+02  0.11149334858E+03  0.54682044188E+03  0.10487148462E+04  0.88538776081E+03 0.  0.
         23    2    4    4    0    0  0.39708284152E+03  0.62706353987E+02  0.31904332726E+03  0.52194574299E+03  0.95036014710E+02 0.  0.
         23    2    4    4    0    0 -0.46377601396E+03  0.48786994598E+02  0.22777711462E+03  0.52676910323E+03  0.90193748152E+02 0.  0.
          4    1    3    3  502    0 -0.48307414667E-01 -0.39442387851E+02  0.26904590699E+02  0.47744751478E+02  0.00000000000E+00 0. -1.
         -3    1    3    3    0  502  0.66741479852E+02 -0.72050960734E+02  0.25046537675E+03  0.26903284376E+03  0.00000000000E+00 0.  1.
         13    1    5    5    0    0 -0.28460703541E+01  0.91348115256E+01  0.80817132831E+01  0.12524335817E+02  0.00000000000E+00 0.  1.
        -13    1    5    5    0    0  0.39992891188E+03  0.53571542462E+02  0.31096161398E+03  0.50942140717E+03  0.00000000000E+00 0. -1.
          2    1    6    6  503    0 -0.50319859639E+02  0.20250681835E+02  0.56526634349E+02  0.78341807355E+02  0.00000000000E+00 0.  1.
         -2    1    6    6    0  503 -0.41345615432E+03  0.28536312763E+02  0.17125048027E+03  0.44842729588E+03  0.00000000000E+00 0. -1.
<mgrwt>
<rscale>  0 0.10887056E+04</rscale>
<asrwt>0</asrwt>
<pdfrwt beam="1">  1        2 0.41638619E-01 0.10887056E+04</pdfrwt>
<pdfrwt beam="2">  1       -1 0.16843714E+00 0.10887056E+04</pdfrwt>
<totfact> 0.35454654E+01</totfact>
</mgrwt>
</event>
<event>
12    7  0.1729738E-007  0.2271983E+04  0.7818608E-02  0.8489051E-01
         -1   -1    0    0    0  501 -0.00000000000E+00  0.00000000000E+00  0.32346423285E+03  0.32346423285E+03  0.00000000000E+00 0.  1.
          2   -1    0    0  501    0  0.00000000000E+00 -0.00000000000E+00 -0.39895484540E+04  0.39895484540E+04  0.00000000000E+00 0. -1.
         24    2    1    2    0    0  0.18051195553E+03  0.86033539721E+03 -0.22391202590E+04  0.24068236055E+04  0.79867213338E+02 0.  0.
        254    2    1    2    0    0 -0.18051195553E+03 -0.86033539721E+03 -0.14269639622E+04  0.19061890814E+04  0.90805787424E+03 0.  0.
         23    2    4    4    0    0  0.34073099113E+03 -0.44475127629E+03 -0.47914126460E+03  0.74401724648E+03  0.10041914921E+03 0.  0.
         23    2    4    4    0    0 -0.52124294665E+03 -0.41558412092E+03 -0.94782269755E+03  0.11621718349E+04  0.88719427986E+02 0.  0.
          2    1    3    3  502    0  0.13800915803E+03  0.72316703428E+03 -0.17969154274E+04  0.19418862326E+04  0.00000000000E+00 0. -1.
         -3    1    3    3    0  502  0.42502797499E+02  0.13716836293E+03 -0.44220483166E+03  0.46493737291E+03  0.00000000000E+00 0.  1.
         13    1    5    5    0    0  0.52646748607E+02 -0.12545703077E+03 -0.14966875434E+03  0.20226686020E+03  0.00000000000E+00 0. -1.
        -13    1    5    5    0    0  0.28808424252E+03 -0.31929424552E+03 -0.32947251026E+03  0.54175038627E+03  0.00000000000E+00 0.  1.
          3    1    6    6  503    0 -0.21025009114E+03 -0.11337465012E+03 -0.33712911711E+03  0.41317666163E+03  0.00000000000E+00 0. -1.
         -3    1    6    6    0  503 -0.31099285551E+03 -0.30220947081E+03 -0.61069358044E+03  0.74899517329E+03  0.00000000000E+00 0.  1.
<mgrwt>
<rscale>  0 0.22719826E+04</rscale>
<asrwt>0</asrwt>
<pdfrwt beam="1">  1        2 0.61377663E+00 0.22719826E+04</pdfrwt>
<pdfrwt beam="2">  1       -1 0.49763733E-01 0.22719826E+04</pdfrwt>
<totfact> 0.14696850E+00</totfact>
</mgrwt>
</event>
<event>
12    7  0.1729738E-007  0.2013247E+04  0.7818608E-02  0.8600452E-01
         -1   -1    0    0    0  501 -0.00000000000E+00  0.00000000000E+00  0.62580114375E+03  0.62580114375E+03  0.00000000000E+00 0.  1.
          2   -1    0    0  501    0  0.00000000000E+00 -0.00000000000E+00 -0.16191895834E+04  0.16191895834E+04  0.00000000000E+00 0. -1.
         24    2    1    2    0    0 -0.15453446560E+03  0.13742876829E+03 -0.12563850214E+04  0.12758287990E+04  0.80425338545E+02 0.  0.
        254    2    1    2    0    0  0.15453446560E+03 -0.13742876829E+03  0.26299658170E+03  0.96916192815E+03  0.90958236217E+03 0.  0.
         23    2    4    4    0    0 -0.11253322131E+03 -0.43296865323E+03  0.32076152994E+03  0.55639449344E+03  0.81001806509E+02 0.  0.
         23    2    4    4    0    0  0.26706768691E+03  0.29553988495E+03 -0.57764948241E+02  0.41276743471E+03  0.91494223456E+02 0.  0.
          4    1    3    3  502    0 -0.95972356131E+02  0.11293825647E+03 -0.10337917310E+04  0.10443615686E+04  0.00000000000E+00 0. -1.
         -3    1    3    3    0  502 -0.58562109472E+02  0.24490511818E+02 -0.22259329038E+03  0.23146723042E+03  0.00000000000E+00 0.  1.
         13    1    5    5    0    0 -0.62483162729E+02 -0.27040183729E+03  0.24496288152E+03  0.37017308459E+03  0.00000000000E+00 0.  1.
        -13    1    5    5    0    0 -0.50050058579E+02 -0.16256681595E+03  0.75798648421E+02  0.18622140885E+03  0.00000000000E+00 0. -1.
          4    1    6    6  503    0 -0.87643989486E-01  0.82067358718E+01 -0.16288201552E+02  0.18239070836E+02  0.00000000000E+00 0. -1.
         -4    1    6    6    0  503  0.26715533090E+03  0.28733314908E+03 -0.41476746689E+02  0.39452836388E+03  0.00000000000E+00 0.  1.
<mgrwt>
<rscale>  0 0.20132468E+04</rscale>
<asrwt>0</asrwt>
<pdfrwt beam="1">  1        2 0.24910609E+00 0.20132468E+04</pdfrwt>
<pdfrwt beam="2">  1       -1 0.96277100E-01 0.20132468E+04</pdfrwt>
<totfact> 0.11949894E+01</totfact>
</mgrwt>
</event>
<event>
12    7  0.1729738E-007  0.1845961E+04  0.7818608E-02  0.8682232E-01
         -1   -1    0    0    0  501 -0.00000000000E+00  0.00000000000E+00  0.70076057339E+03  0.70076057339E+03  0.00000000000E+00 0.  1.
          2   -1    0    0  501    0  0.00000000000E+00 -0.00000000000E+00 -0.12156696280E+04  0.12156696280E+04  0.00000000000E+00 0. -1.
         24    2    1    2    0    0  0.46179886696E+03  0.17682237792E+03 -0.70561099589E+03  0.86485631481E+03  0.74600408074E+02 0.  0.
        254    2    1    2    0    0 -0.46179886696E+03 -0.17682237792E+03  0.19070194128E+03  0.10515738866E+04  0.90824889852E+03 0.  0.
         23    2    4    4    0    0 -0.59027372413E+03 -0.28411917610E+03  0.39776827435E+03  0.77175095714E+03  0.90736784868E+02 0.  0.
         23    2    4    4    0    0  0.12847485717E+03  0.10729679819E+03 -0.20706633307E+03  0.27982292944E+03  0.86058199618E+02 0.  0.
          4    1    3    3  502    0  0.34776476497E+03  0.14575979376E+03 -0.58495154395E+03  0.69595585923E+03  0.00000000000E+00 0. -1.
         -3    1    3    3    0  502  0.11403410199E+03  0.31062584162E+02 -0.12065945194E+03  0.16890045557E+03  0.00000000000E+00 0.  1.
         13    1    5    5    0    0 -0.19546092057E+03 -0.13842489272E+03  0.12406931214E+03  0.26973990548E+03  0.00000000000E+00 0. -1.
        -13    1    5    5    0    0 -0.39481280356E+03 -0.14569428339E+03  0.27369896221E+03  0.50201105165E+03  0.00000000000E+00 0.  1.
          4    1    6    6  503    0  0.23687715842E+00  0.44649499952E+02 -0.61104507155E+02  0.75679553061E+02  0.00000000000E+00 0. -1.
         -4    1    6    6    0  503  0.12823798001E+03  0.62647298233E+02 -0.14596182591E+03  0.20414337638E+03  0.00000000000E+00 0.  1.
<mgrwt>
<rscale>  0 0.18459614E+04</rscale>
<asrwt>0</asrwt>
<pdfrwt beam="1">  1        2 0.18702609E+00 0.18459614E+04</pdfrwt>
<pdfrwt beam="2">  1       -1 0.10780932E+00 0.18459614E+04</pdfrwt>
<totfact> 0.15911762E+01</totfact>
</mgrwt>
</event>
<event>
12    7  0.1729738E-007  0.2421950E+04  0.7818608E-02  0.8431331E-01
          2   -1    0    0  501    0  0.00000000000E+00  0.00000000000E+00  0.17951686436E+04  0.17951686436E+04  0.00000000000E+00 0. -1.
         -1   -1    0    0    0  501 -0.00000000000E+00 -0.00000000000E+00 -0.81689290351E+03  0.81689290351E+03  0.00000000000E+00 0.  1.
         24    2    1    2    0    0 -0.28703355096E+03 -0.94329456740E+03  0.49733969821E+02  0.99032200148E+03  0.77918538343E+02 0.  0.
        254    2    1    2    0    0  0.28703355096E+03  0.94329456740E+03  0.92854177024E+03  0.16217395456E+04  0.89199575920E+03 0.  0.
         23    2    4    4    0    0  0.51402546308E+02  0.72078962467E+03  0.10934348312E+03  0.73644167859E+03  0.90611499604E+02 0.  0.
         23    2    4    4    0    0  0.23563100465E+03  0.22250494272E+03  0.81919828712E+03  0.88529786701E+03  0.87384551390E+02 0.  0.
          4    1    3    3  502    0 -0.17092234818E+03 -0.67355612119E+03  0.49343075109E+02  0.69665417286E+03  0.00000000000E+00 0. -1.
         -3    1    3    3    0  502 -0.11611120277E+03 -0.26973844621E+03  0.39089471183E+00  0.29366782863E+03  0.00000000000E+00 0.  1.
         13    1    5    5    0    0  0.32829452268E+02  0.30988304542E+03  0.31692161907E+01  0.31163330808E+03  0.00000000000E+00 0.  1.
        -13    1    5    5    0    0  0.18573094041E+02  0.41090657926E+03  0.10617426693E+03  0.42480837051E+03  0.00000000000E+00 0. -1.
          2    1    6    6  503    0  0.10514947828E+03  0.50752464077E+02  0.23169672388E+03  0.25945249516E+03  0.00000000000E+00 0. -1.
         -2    1    6    6    0  503  0.13048152637E+03  0.17175247865E+03  0.58750156325E+03  0.62584537185E+03  0.00000000000E+00 0.  1.
<mgrwt>
<rscale>  0 0.24219501E+04</rscale>
<asrwt>0</asrwt>
<pdfrwt beam="1">  1        2 0.27617979E+00 0.24219501E+04</pdfrwt>
<pdfrwt beam="2">  1       -1 0.12567583E+00 0.24219501E+04</pdfrwt>
<totfact> 0.48984270E+00</totfact>
</mgrwt>
</event>
<event>
12    7  0.1729738E-007  0.1421675E+04  0.7818608E-02  0.8938277E-01
         -1   -1    0    0    0  501 -0.00000000000E+00  0.00000000000E+00  0.23100306174E+03  0.23100306174E+03  0.00000000000E+00 0.  1.
          2   -1    0    0  501    0  0.00000000000E+00 -0.00000000000E+00 -0.21873729218E+04  0.21873729218E+04  0.00000000000E+00 0. -1.
         24    2    1    2    0    0  0.23597884591E+03  0.21192693109E+03 -0.10612766273E+03  0.34386796791E+03  0.79894046840E+02 0.  0.
        254    2    1    2    0    0 -0.23597884591E+03 -0.21192693109E+03 -0.18502421973E+04  0.20745080156E+04  0.88294296432E+03 0.  0.
         23    2    4    4    0    0 -0.31549094885E+03 -0.16009049321E+03 -0.18976346460E+04  0.19326495990E+04  0.94624087394E+02 0.  0.
         23    2    4    4    0    0  0.79512102936E+02 -0.51836437877E+02  0.47392448645E+02  0.14185841666E+03  0.94173113918E+02 0.  0.
          2    1    3    3  502    0  0.61342132562E+01  0.16476688617E+02  0.10410474414E+02  0.20432518630E+02  0.00000000000E+00 0. -1.
         -1    1    3    3    0  502  0.22984463266E+03  0.19545024247E+03 -0.11653813714E+03  0.32343544928E+03  0.00000000000E+00 0.  1.
         13    1    5    5    0    0 -0.15680113989E+03 -0.35806833290E+02 -0.98267757970E+03  0.99575295753E+03  0.00000000000E+00 0. -1.
        -13    1    5    5    0    0 -0.15868980896E+03 -0.12428365992E+03 -0.91495706628E+03  0.93689664143E+03  0.00000000000E+00 0.  1.
          2    1    6    6  503    0  0.89616568748E+02 -0.12793337166E+02  0.45910896529E+02  0.10150176989E+03  0.00000000000E+00 0. -1.
         -2    1    6    6    0  503 -0.10104465812E+02 -0.39043100712E+02  0.14815521157E+01  0.40356646778E+02  0.00000000000E+00 0.  1.
<mgrwt>
<rscale>  0 0.14216748E+04</rscale>
<asrwt>0</asrwt>
<pdfrwt beam="1">  1        2 0.33651890E+00 0.14216748E+04</pdfrwt>
<pdfrwt beam="2">  1       -1 0.35538933E-01 0.14216748E+04</pdfrwt>
<totfact> 0.43923104E+01</totfact>
</mgrwt>
</event>
<event>
12    7  0.1729738E-007  0.1791829E+04  0.7818608E-02  0.8710657E-01
          2   -1    0    0  501    0  0.00000000000E+00  0.00000000000E+00  0.10402054145E+04  0.10402054145E+04  0.00000000000E+00 0. -1.
         -1   -1    0    0    0  501 -0.00000000000E+00 -0.00000000000E+00 -0.77163898022E+03  0.77163898022E+03  0.00000000000E+00 0.  1.
         24    2    1    2    0    0  0.57766786208E+03  0.32503644314E+03  0.81112406551E+01  0.66748219126E+03  0.78216591380E+02 0.  0.
        254    2    1    2    0    0 -0.57766786208E+03 -0.32503644314E+03  0.26045519363E+03  0.11443622035E+04  0.89575615911E+03 0.  0.
         23    2    4    4    0    0  0.38428708636E+02 -0.24313738128E+03 -0.22926508629E+03  0.34800098348E+03  0.89160826003E+02 0.  0.
         23    2    4    4    0    0 -0.61609657072E+03 -0.81899061866E+02  0.48972027992E+03  0.79636121999E+03  0.89904390042E+02 0.  0.
          4    1    3    3  502    0  0.88989371187E+02  0.58715609955E+02  0.29216376760E+02  0.11054513878E+03  0.00000000000E+00 0. -1.
         -3    1    3    3    0  502  0.48867849089E+03  0.26632083319E+03 -0.21105136105E+02  0.55693705248E+03  0.00000000000E+00 0.  1.
         13    1    5    5    0    0  0.13833224386E+02 -0.23079935346E+03 -0.18606881634E+03  0.29678494583E+03  0.00000000000E+00 0. -1.
        -13    1    5    5    0    0  0.24595484250E+02 -0.12338027813E+02 -0.43196269944E+02  0.51216037653E+02  0.00000000000E+00 0.  1.
          2    1    6    6  503    0 -0.58543139883E+03 -0.91668294800E+02  0.48045725818E+03  0.76287100872E+03  0.00000000000E+00 0. -1.
         -2    1    6    6    0  503 -0.30665171886E+02  0.97692329340E+01  0.92630217436E+01  0.33490211267E+02  0.00000000000E+00 0.  1.
<mgrwt>
<rscale>  0 0.17918293E+04</rscale>
<asrwt>0</asrwt>
<pdfrwt beam="1">  1        2 0.16003160E+00 0.17918293E+04</pdfrwt>
<pdfrwt beam="2">  1       -1 0.11871369E+00 0.17918293E+04</pdfrwt>
<totfact> 0.16266625E+01</totfact>
</mgrwt>
</event>
<event>
12    7  0.1729738E-007  0.2186489E+04  0.7818608E-02  0.8524073E-01
         -1   -1    0    0    0  501 -0.00000000000E+00  0.00000000000E+00  0.40559227184E+03  0.40559227184E+03  0.00000000000E+00 0.  1.
          2   -1    0    0  501    0  0.00000000000E+00 -0.00000000000E+00 -0.29467621645E+04  0.29467621645E+04  0.00000000000E+00 0. -1.
         24    2    1    2    0    0  0.14228397541E+03  0.94144025495E+02  0.29905131426E+03  0.35397142497E+03  0.82196435081E+02 0.  0.
        254    2    1    2    0    0 -0.14228397541E+03 -0.94144025495E+02 -0.28402212069E+04  0.29983830114E+04  0.94569358223E+03 0.  0.
         23    2    4    4    0    0  0.78634883446E+01  0.38962398807E+03 -0.17148054600E+04  0.17608733936E+04  0.90822112110E+02 0.  0.
         23    2    4    4    0    0 -0.15014746375E+03 -0.48376801357E+03 -0.11254157469E+04  0.12375096178E+04  0.91069747410E+02 0.  0.
          4    1    3    3  502    0 -0.65303878619E+01 -0.22008448197E+01  0.36682757617E+02  0.37324447617E+02  0.00000000000E+00 0. -1.
         -3    1    3    3    0  502  0.14881436327E+03  0.96344870315E+02  0.26236855664E+03  0.31664697735E+03  0.00000000000E+00 0.  1.
         13    1    5    5    0    0 -0.18506532995E+02  0.35919490675E+03 -0.15242678574E+04  0.15661277004E+04  0.00000000000E+00 0. -1.
        -13    1    5    5    0    0  0.26370021340E+02  0.30429081319E+02 -0.19053760257E+03  0.19474569317E+03  0.00000000000E+00 0.  1.
          1    1    6    6  503    0  0.82749515454E+00 -0.12992918518E+03 -0.27927892164E+03  0.30802433992E+03  0.00000000000E+00 0. -1.
         -1    1    6    6    0  503 -0.15097495891E+03 -0.35383882839E+03 -0.84613682530E+03  0.92948527790E+03  0.00000000000E+00 0.  1.
<mgrwt>
<rscale>  0 0.21864894E+04</rscale>
<asrwt>0</asrwt>
<pdfrwt beam="1">  1        2 0.45334801E+00 0.21864894E+04</pdfrwt>
<pdfrwt beam="2">  1       -1 0.62398813E-01 0.21864894E+04</pdfrwt>
<totfact> 0.51040906E+00</totfact>
</mgrwt>
</event>
<event>
12    7  0.1729738E-007  0.2607169E+04  0.7818608E-02  0.8365770E-01
          2   -1    0    0  501    0  0.00000000000E+00  0.00000000000E+00  0.12832740566E+04  0.12832740566E+04  0.00000000000E+00 0. -1.
         -1   -1    0    0    0  501 -0.00000000000E+00 -0.00000000000E+00 -0.13242163586E+04  0.13242163586E+04  0.00000000000E+00 0.  1.
         24    2    1    2    0    0  0.77446813740E+03  0.28683882434E+03  0.77739530239E+03  0.11368878256E+04  0.78058086689E+02 0.  0.
        254    2    1    2    0    0 -0.77446813740E+03 -0.28683882434E+03 -0.81833760444E+03  0.14706025896E+04  0.90050993030E+03 0.  0.
         23    2    4    4    0    0 -0.65768189738E+03  0.21490449816E+03 -0.49731637780E+03  0.85685601310E+03  0.90273064050E+02 0.  0.
         23    2    4    4    0    0 -0.11678624003E+03 -0.50174332250E+03 -0.32102122663E+03  0.61374657645E+03  0.90801126780E+02 0.  0.
          2    1    3    3  502    0  0.66560106556E+03  0.23435095984E+03  0.69623379737E+03  0.99130552881E+03  0.00000000000E+00 0. -1.
         -1    1    3    3    0  502  0.10886707185E+03  0.52487864496E+02  0.81161505026E+02  0.14558229683E+03  0.00000000000E+00 0.  1.
         13    1    5    5    0    0 -0.49283247985E+03  0.15953364863E+03 -0.32207069373E+03  0.60997079439E+03  0.00000000000E+00 0. -1.
        -13    1    5    5    0    0 -0.16484941753E+03  0.55370849535E+02 -0.17524568407E+03  0.24688521872E+03  0.00000000000E+00 0.  1.
          4    1    6    6  503    0  0.15268418309E+02 -0.67975079966E+02 -0.41940410649E+02  0.81318719490E+02  0.00000000000E+00 0. -1.
         -4    1    6    6    0  503 -0.13205465833E+03 -0.43376824253E+03 -0.27908081598E+03  0.53242785696E+03  0.00000000000E+00 0.  1.
<mgrwt>
<rscale>  0 0.26071690E+04</rscale>
<asrwt>0</asrwt>
<pdfrwt beam="1">  1        2 0.19742678E+00 0.26071690E+04</pdfrwt>
<pdfrwt beam="2">  1       -1 0.20372559E+00 0.26071690E+04</pdfrwt>
<totfact> 0.24163542E+00</totfact>
</mgrwt>
</event>
<event>
12    7  0.1729738E-007  0.2372950E+04  0.7818608E-02  0.8449701E-01
          2   -1    0    0  501    0  0.00000000000E+00  0.00000000000E+00  0.97537874826E+03  0.97537874826E+03  0.00000000000E+00 0. -1.
         -1   -1    0    0    0  501 -0.00000000000E+00 -0.00000000000E+00 -0.14432573790E+04  0.14432573790E+04  0.00000000000E+00 0.  1.
         24    2    1    2    0    0  0.11839423517E+02  0.62207963684E+03 -0.99745082554E+03  0.11783104692E+04  0.79900976034E+02 0.  0.
        254    2    1    2    0    0 -0.11839423517E+02 -0.62207963684E+03  0.52957219477E+03  0.12403256581E+04  0.93318689557E+03 0.  0.
         23    2    4    4    0    0 -0.28527802174E+03 -0.68607823351E+03  0.15725744780E+03  0.76481597959E+03  0.90148131262E+02 0.  0.
         23    2    4    4    0    0  0.27343859822E+03  0.63998596674E+02  0.37231474697E+03  0.47550967847E+03  0.92880009366E+02 0.  0.
          4    1    3    3  502    0 -0.16745581852E+02  0.59914437928E+02 -0.13176163740E+03  0.14570958607E+03  0.00000000000E+00 0. -1.
         -3    1    3    3    0  502  0.28585005370E+02  0.56216519891E+03 -0.86568918815E+03  0.10326008831E+04  0.00000000000E+00 0.  1.
         13    1    5    5    0    0 -0.68685078844E+02 -0.11429481896E+03 -0.55601676604E+00  0.13334637172E+03  0.00000000000E+00 0.  1.
        -13    1    5    5    0    0 -0.21659294289E+03 -0.57178341455E+03  0.15781346457E+03  0.63146960787E+03  0.00000000000E+00 0. -1.
          1    1    6    6  503    0  0.25294605693E+03  0.82817901073E+02  0.31969722922E+03  0.41598897922E+03  0.00000000000E+00 0. -1.
         -1    1    6    6    0  503  0.20492541285E+02 -0.18819304399E+02  0.52617517746E+02  0.59520699258E+02  0.00000000000E+00 0.  1.
<mgrwt>
<rscale>  0 0.23729497E+04</rscale>
<asrwt>0</asrwt>
<pdfrwt beam="1">  1        2 0.15005827E+00 0.23729497E+04</pdfrwt>
<pdfrwt beam="2">  1       -1 0.22203960E+00 0.23729497E+04</pdfrwt>
<totfact> 0.28635692E+00</totfact>
</mgrwt>
</event>
<event>
12    7  0.1729738E-007  0.1934074E+04  0.7818608E-02  0.8638079E-01
         -1   -1    0    0    0  501 -0.00000000000E+00  0.00000000000E+00  0.75018664280E+03  0.75018664280E+03  0.00000000000E+00 0.  1.
          2   -1    0    0  501    0  0.00000000000E+00 -0.00000000000E+00 -0.12465708993E+04  0.12465708993E+04  0.00000000000E+00 0. -1.
         24    2    1    2    0    0 -0.65316514469E+03  0.50839760883E+02  0.17727156708E+03  0.68236475350E+03  0.70619124973E+02 0.  0.
        254    2    1    2    0    0  0.65316514469E+03 -0.50839760883E+02 -0.67365582359E+03  0.13143927886E+04  0.91902494340E+03 0.  0.
         23    2    4    4    0    0  0.17700258407E+03  0.36310253874E+03 -0.50855602894E+03  0.65589763870E+03  0.91646655549E+02 0.  0.
         23    2    4    4    0    0  0.47616256061E+03 -0.41394229962E+03 -0.16509979466E+03  0.65849514992E+03  0.90988508781E+02 0.  0.
          4    1    3    3  502    0 -0.18864595630E+03  0.42513180390E+02  0.69029102238E+02  0.20532823550E+03  0.00000000000E+00 0. -1.
         -3    1    3    3    0  502 -0.46451918838E+03  0.83265804923E+01  0.10824246484E+03  0.47703651801E+03  0.00000000000E+00 0.  1.
         13    1    5    5    0    0  0.35233140389E+02  0.33832384452E+02 -0.27829419862E+02  0.56218155690E+02  0.00000000000E+00 0. -1.
        -13    1    5    5    0    0  0.14176944369E+03  0.32927015429E+03 -0.48072660908E+03  0.59967948301E+03  0.00000000000E+00 0.  1.
          3    1    6    6  503    0  0.27741170443E+02 -0.39754079680E+02 -0.35943420359E+02  0.60348064226E+02  0.00000000000E+00 0. -1.
         -3    1    6    6    0  503  0.44842139017E+03 -0.37418821994E+03 -0.12915637430E+03  0.59814708569E+03  0.00000000000E+00 0.  1.
<mgrwt>
<rscale>  0 0.19340743E+04</rscale>
<asrwt>0</asrwt>
<pdfrwt beam="1">  1        2 0.19178014E+00 0.19340743E+04</pdfrwt>
<pdfrwt beam="2">  1       -1 0.11541333E+00 0.19340743E+04</pdfrwt>
<totfact> 0.12878062E+01</totfact>
</mgrwt>
</event>
<event>
12    7  0.1729738E-007  0.1502626E+04  0.7818608E-02  0.8882708E-01
          2   -1    0    0  501    0  0.00000000000E+00  0.00000000000E+00  0.16254768928E+03  0.16254768928E+03  0.00000000000E+00 0. -1.
         -1   -1    0    0    0  501 -0.00000000000E+00 -0.00000000000E+00 -0.34726506887E+04  0.34726506887E+04  0.00000000000E+00 0.  1.
         24    2    1    2    0    0  0.74286568551E+02  0.21814478223E+03 -0.56444433130E+02  0.25003627564E+03  0.78908331775E+02 0.  0.
        254    2    1    2    0    0 -0.74286568551E+02 -0.21814478223E+03 -0.32536585663E+04  0.33851621023E+04  0.90549586021E+03 0.  0.
         23    2    4    4    0    0 -0.11992587188E+03 -0.16693015345E+03 -0.32640910151E+04  0.32718269239E+04  0.91177708036E+02 0.  0.
         23    2    4    4    0    0  0.45639303331E+02 -0.51214628778E+02  0.10432448788E+02  0.11333517843E+03  0.89611062222E+02 0.  0.
          2    1    3    3  502    0  0.69594338579E+02  0.11177259613E+03 -0.57204853023E+02  0.14355793401E+03  0.00000000000E+00 0. -1.
         -1    1    3    3    0  502  0.46922299711E+01  0.10637218610E+03  0.76041989243E+00  0.10647834163E+03  0.00000000000E+00 0.  1.
         13    1    5    5    0    0 -0.61070807972E+02 -0.16867746289E+02 -0.84567117522E+03  0.84804121424E+03  0.00000000000E+00 0.  1.
        -13    1    5    5    0    0 -0.58855063910E+02 -0.15006240716E+03 -0.24184198398E+04  0.24237857097E+04  0.00000000000E+00 0. -1.
          3    1    6    6  503    0  0.29871355367E+02 -0.13196577472E+02  0.47702545654E+02  0.57809864126E+02  0.00000000000E+00 0. -1.
         -3    1    6    6    0  503  0.15767947964E+02 -0.38018051305E+02 -0.37270096866E+02  0.55525314303E+02  0.00000000000E+00 0.  1.
<mgrwt>
<rscale>  0 0.15026262E+04</rscale>
<asrwt>0</asrwt>
<pdfrwt beam="1">  1        2 0.25007337E-01 0.15026262E+04</pdfrwt>
<pdfrwt beam="2">  1       -1 0.53425394E+00 0.15026262E+04</pdfrwt>
<totfact> 0.22135707E-01</totfact>
</mgrwt>
</event>
<event>
12    7  0.1729738E-007  0.1656407E+04  0.7818608E-02  0.8786625E-01
          2   -1    0    0  501    0  0.00000000000E+00  0.00000000000E+00  0.22737282037E+04  0.22737282037E+04  0.00000000000E+00 0. -1.
         -1   -1    0    0    0  501 -0.00000000000E+00 -0.00000000000E+00 -0.30167237201E+03  0.30167237201E+03  0.00000000000E+00 0.  1.
         24    2    1    2    0    0 -0.26929797902E+03  0.61707416004E+02  0.14763629113E+04  0.15053703266E+04  0.10081253742E+03 0.  0.
        254    2    1    2    0    0  0.26929797902E+03 -0.61707416004E+02  0.49569292038E+03  0.10700302491E+04  0.90715161685E+03 0.  0.
         23    2    4    4    0    0 -0.22191693131E+03  0.25736653592E+03  0.23213674434E+03  0.42117041323E+03  0.89511958370E+02 0.  0.
         23    2    4    4    0    0  0.49121491033E+03 -0.31907395192E+03  0.26355617604E+03  0.64885983586E+03  0.91961697099E+02 0.  0.
          2    1    3    3  502    0 -0.17322779972E+03  0.79447457575E+02  0.82527925563E+03  0.84699800406E+03  0.00000000000E+00 0. -1.
         -1    1    3    3    0  502 -0.96070179300E+02 -0.17740041572E+02  0.65108365570E+03  0.65837232258E+03  0.00000000000E+00 0.  1.
         13    1    5    5    0    0 -0.42091260014E+02  0.79106952712E+02  0.10435240404E+03  0.13754638623E+03  0.00000000000E+00 0. -1.
        -13    1    5    5    0    0 -0.17982567130E+03  0.17825958321E+03  0.12778434031E+03  0.28362402700E+03  0.00000000000E+00 0.  1.
          4    1    6    6  503    0  0.85248988476E+02 -0.27433846261E+02  0.15694748937E+02  0.90919365929E+02  0.00000000000E+00 0. -1.
         -4    1    6    6    0  503  0.40596592186E+03 -0.29164010566E+03  0.24786142711E+03  0.55794046993E+03  0.00000000000E+00 0.  1.
<mgrwt>
<rscale>  0 0.16564069E+04</rscale>
<asrwt>0</asrwt>
<pdfrwt beam="1">  1        2 0.34980433E+00 0.16564069E+04</pdfrwt>
<pdfrwt beam="2">  1       -1 0.46411136E-01 0.16564069E+04</pdfrwt>
<totfact> 0.23599471E+01</totfact>
</mgrwt>
</event>
<event>
12    7  0.1729738E-007  0.1177244E+04  0.7818608E-02  0.9133011E-01
         -1   -1    0    0    0  501 -0.00000000000E+00  0.00000000000E+00  0.28693498747E+03  0.28693498747E+03  0.00000000000E+00 0.  1.
          2   -1    0    0  501    0  0.00000000000E+00 -0.00000000000E+00 -0.12075074661E+04  0.12075074661E+04  0.00000000000E+00 0. -1.
         24    2    1    2    0    0 -0.49931377787E+01  0.13611466332E+03 -0.41626754120E+03  0.44504612281E+03  0.78963615539E+02 0.  0.
        254    2    1    2    0    0  0.49931377787E+01 -0.13611466332E+03 -0.50430493742E+03  0.10493963307E+04  0.91014122864E+03 0.  0.
         23    2    4    4    0    0 -0.24956831734E+03 -0.39163861546E+03 -0.69946745391E+02  0.47761651328E+03  0.86947319880E+02 0.  0.
         23    2    4    4    0    0  0.25456145512E+03  0.25552395214E+03 -0.43435819203E+03  0.57177981745E+03  0.90394115496E+02 0.  0.
          2    1    3    3  502    0 -0.18629730970E+02  0.58696997121E+02 -0.28876389415E+03  0.29525749933E+03  0.00000000000E+00 0. -1.
         -1    1    3    3    0  502  0.13636593191E+02  0.77417666197E+02 -0.12750364705E+03  0.14978862348E+03  0.00000000000E+00 0.  1.
         13    1    5    5    0    0 -0.53634330775E+02 -0.15575031095E+03 -0.39968242055E+02  0.16950593256E+03  0.00000000000E+00 0.  1.
        -13    1    5    5    0    0 -0.19593398657E+03 -0.23588830450E+03 -0.29978503336E+02  0.30811058073E+03  0.00000000000E+00 0. -1.
          2    1    6    6  503    0  0.25862876940E+03  0.25923644968E+03 -0.42971112297E+03  0.56457419921E+03  0.00000000000E+00 0. -1.
         -2    1    6    6    0  503 -0.40673142784E+01 -0.37124975472E+01 -0.46470690518E+01  0.72056182420E+01  0.00000000000E+00 0.  1.
<mgrwt>
<rscale>  0 0.11772445E+04</rscale>
<asrwt>0</asrwt>
<pdfrwt beam="1">  1        2 0.18577038E+00 0.11772445E+04</pdfrwt>
<pdfrwt beam="2">  1       -1 0.44143845E-01 0.11772445E+04</pdfrwt>
<totfact> 0.10714023E+02</totfact>
</mgrwt>
</event>
<event>
12    7  0.1729738E-007  0.2176235E+04  0.7818608E-02  0.8528385E-01
          2   -1    0    0  501    0  0.00000000000E+00  0.00000000000E+00  0.18847209918E+04  0.18847209918E+04  0.00000000000E+00 0. -1.
         -3   -1    0    0    0  501 -0.00000000000E+00 -0.00000000000E+00 -0.62820944440E+03  0.62820944440E+03  0.00000000000E+00 0.  1.
         24    2    1    2    0    0 -0.79717002628E+03  0.88764385272E+02  0.62495585829E+02  0.80839066493E+03  0.78934162474E+02 0.  0.
        254    2    1    2    0    0  0.79717002628E+03 -0.88764385272E+02  0.11940159615E+04  0.17045397712E+04  0.91456139676E+03 0.  0.
         23    2    4    4    0    0  0.43934390890E+03 -0.39789301206E+03  0.10368916748E+04  0.11979105845E+04  0.92214445151E+02 0.  0.
         23    2    4    4    0    0  0.35782611738E+03  0.30912862679E+03  0.15712428673E+03  0.50662918672E+03  0.91569935974E+02 0.  0.
          2    1    3    3  502    0 -0.17728466098E+03  0.30303967899E+02 -0.17193248322E+02  0.18067592334E+03  0.00000000000E+00 0. -1.
         -1    1    3    3    0  502 -0.61988536530E+03  0.58460417373E+02  0.79688834152E+02  0.62771474159E+03  0.00000000000E+00 0.  1.
         13    1    5    5    0    0  0.29921053237E+02 -0.18153364492E+02  0.11375992098E+03  0.11902156818E+03  0.00000000000E+00 0.  1.
        -13    1    5    5    0    0  0.40942285566E+03 -0.37973964757E+03  0.92313175381E+03  0.10788890163E+04  0.00000000000E+00 0. -1.
          1    1    6    6  503    0  0.32129246672E+03  0.23408062960E+03  0.13976642523E+03  0.42137541925E+03  0.00000000000E+00 0. -1.
         -1    1    6    6    0  503  0.36533650668E+02  0.75047997185E+02  0.17357861504E+02  0.85253767475E+02  0.00000000000E+00 0.  1.
<mgrwt>
<rscale>  0 0.21762348E+04</rscale>
<asrwt>0</asrwt>
<pdfrwt beam="1">  1        2 0.28995707E+00 0.21762348E+04</pdfrwt>
<pdfrwt beam="2">  1       -3 0.96647608E-01 0.21762348E+04</pdfrwt>
<totfact> 0.42785841E+00</totfact>
</mgrwt>
</event>
<event>
12    7  0.1729738E-007  0.1715458E+04  0.7818608E-02  0.8752597E-01
          2   -1    0    0  501    0  0.00000000000E+00  0.00000000000E+00  0.68084185942E+03  0.68084185942E+03  0.00000000000E+00 0. -1.
         -1   -1    0    0    0  501 -0.00000000000E+00 -0.00000000000E+00 -0.10805727878E+04  0.10805727878E+04  0.00000000000E+00 0.  1.
         24    2    1    2    0    0  0.60024709880E+03  0.15849807778E+03 -0.12198945533E+03  0.63712002508E+03  0.74981856951E+02 0.  0.
        254    2    1    2    0    0 -0.60024709880E+03 -0.15849807778E+03 -0.27774147303E+03  0.11242946221E+04  0.89525407077E+03 0.  0.
         23    2    4    4    0    0  0.10234609805E+03  0.74629292342E+02  0.18710954805E+03  0.24540095356E+03  0.95746488065E+02 0.  0.
         23    2    4    4    0    0 -0.70259319685E+03 -0.23312737012E+03 -0.46485102108E+03  0.87889366856E+03  0.91553470085E+02 0.  0.
          2    1    3    3  502    0  0.35426938273E+03  0.11076597090E+03 -0.10611190849E+03  0.38605133463E+03  0.00000000000E+00 0. -1.
         -1    1    3    3    0  502  0.24597771607E+03  0.47732106875E+02 -0.15877546847E+02  0.25106869045E+03  0.00000000000E+00 0.  1.
         13    1    5    5    0    0  0.58569747288E+02  0.18985140654E+02  0.21370678481E+02  0.65173282577E+02  0.00000000000E+00 0. -1.
        -13    1    5    5    0    0  0.43776350760E+02  0.55644151687E+02  0.16573886957E+03  0.18022767099E+03  0.00000000000E+00 0.  1.
          3    1    6    6  503    0 -0.27137855519E+02 -0.29637673358E+02 -0.30587560717E+02  0.50502017334E+02  0.00000000000E+00 0. -1.
         -3    1    6    6    0  503 -0.67545534133E+03 -0.20348969676E+03 -0.43426346036E+03  0.82839165123E+03  0.00000000000E+00 0.  1.
<mgrwt>
<rscale>  0 0.17154582E+04</rscale>
<asrwt>0</asrwt>
<pdfrwt beam="1">  1        2 0.10474490E+00 0.17154582E+04</pdfrwt>
<pdfrwt beam="2">  1       -1 0.16624197E+00 0.17154582E+04</pdfrwt>
<totfact> 0.12082137E+01</totfact>
</mgrwt>
</event>
<event>
12    7  0.1729738E-007  0.1419193E+04  0.7818608E-02  0.8940042E-01
         -1   -1    0    0    0  501 -0.00000000000E+00  0.00000000000E+00  0.19380485965E+03  0.19380485965E+03  0.00000000000E+00 0.  1.
          2   -1    0    0  501    0  0.00000000000E+00 -0.00000000000E+00 -0.25981133431E+04  0.25981133431E+04  0.00000000000E+00 0. -1.
         24    2    1    2    0    0 -0.21161065205E+03  0.18825540040E+03 -0.13111888715E+04  0.13437518424E+04  0.78953109650E+02 0.  0.
        254    2    1    2    0    0  0.21161065205E+03 -0.18825540040E+03 -0.10931196119E+04  0.14481663603E+04  0.90667312589E+03 0.  0.
         23    2    4    4    0    0 -0.51074696863E+02 -0.37158847092E+03 -0.10437657536E+04  0.11129104498E+04  0.91848269477E+02 0.  0.
         23    2    4    4    0    0  0.26268534892E+03  0.18333307052E+03 -0.49353858358E+02  0.33525591046E+03  0.85709479520E+02 0.  0.
          2    1    3    3  502    0 -0.17498809587E+03  0.18459723648E+03 -0.10729646465E+04  0.11027012769E+04  0.00000000000E+00 0. -1.
         -1    1    3    3    0  502 -0.36622556181E+02  0.36581639168E+01 -0.23822422499E+03  0.24105056556E+03  0.00000000000E+00 0.  1.
         13    1    5    5    0    0 -0.10835540935E+02 -0.25798313226E+03 -0.60287533731E+03  0.65584401943E+03  0.00000000000E+00 0. -1.
        -13    1    5    5    0    0 -0.40239155928E+02 -0.11360533866E+03 -0.44089041626E+03  0.45706643039E+03  0.00000000000E+00 0.  1.
          1    1    6    6  503    0  0.31728362216E+02  0.62707858588E+02 -0.12272904114E+01  0.70288482266E+02  0.00000000000E+00 0. -1.
         -1    1    6    6    0  503  0.23095698670E+03  0.12062521193E+03 -0.48126567946E+02  0.26496742819E+03  0.00000000000E+00 0.  1.
<mgrwt>
<rscale>  0 0.14191927E+04</rscale>
<asrwt>0</asrwt>
<pdfrwt beam="1">  1        2 0.39970972E+00 0.14191927E+04</pdfrwt>
<pdfrwt beam="2">  1       -1 0.29816134E-01 0.14191927E+04</pdfrwt>
<totfact> 0.34987387E+01</totfact>
</mgrwt>
</event>
<event>
12    7  0.1729738E-007  0.1435971E+04  0.7818608E-02  0.8928184E-01
         -1   -1    0    0    0  501 -0.00000000000E+00  0.00000000000E+00  0.35170014617E+03  0.35170014617E+03  0.00000000000E+00 0.  1.
          2   -1    0    0  501    0  0.00000000000E+00 -0.00000000000E+00 -0.14657472044E+04  0.14657472044E+04  0.00000000000E+00 0. -1.
         24    2    1    2    0    0 -0.31026777498E+03 -0.50911668510E+02 -0.71210124605E+03  0.78229825726E+03  0.77745022369E+02 0.  0.
        254    2    1    2    0    0  0.31026777498E+03  0.50911668510E+02 -0.40194581217E+03  0.10351490933E+04  0.90061929764E+03 0.  0.
         23    2    4    4    0    0  0.28990340695E+03  0.34059315057E+03 -0.53347999207E+03  0.70231726557E+03  0.92741360836E+02 0.  0.
         23    2    4    4    0    0  0.20364368031E+02 -0.28968148206E+03  0.13153417990E+03  0.33283182773E+03  0.95633239710E+02 0.  0.
          4    1    3    3  502    0 -0.22929598394E+03 -0.12092451448E+02 -0.56608140882E+03  0.61087726840E+03  0.00000000000E+00 0. -1.
         -3    1    3    3    0  502 -0.80971791041E+02 -0.38819217062E+02 -0.14601983723E+03  0.17142098886E+03  0.00000000000E+00 0.  1.
         13    1    5    5    0    0  0.16743843925E+03  0.13122313884E+03 -0.27768043636E+03  0.34980218387E+03  0.00000000000E+00 0.  1.
        -13    1    5    5    0    0  0.12246496770E+03  0.20937001173E+03 -0.25579955571E+03  0.35251508171E+03  0.00000000000E+00 0. -1.
          2    1    6    6  503    0  0.23621276648E+02 -0.65247740577E+02 -0.58984054477E+01  0.69642110448E+02  0.00000000000E+00 0. -1.
         -2    1    6    6    0  503 -0.32569086175E+01 -0.22443374148E+03  0.13743258535E+03  0.26318971729E+03  0.00000000000E+00 0.  1.
<mgrwt>
<rscale>  0 0.14359715E+04</rscale>
<asrwt>0</asrwt>
<pdfrwt beam="1">  1        2 0.22549957E+00 0.14359715E+04</pdfrwt>
<pdfrwt beam="2">  1       -1 0.54107715E-01 0.14359715E+04</pdfrwt>
<totfact> 0.50638055E+01</totfact>
</mgrwt>
</event>
<event>
12    7  0.1729738E-007  0.2413684E+04  0.7818608E-02  0.8434398E-01
         -1   -1    0    0    0  501 -0.00000000000E+00  0.00000000000E+00  0.13194269124E+04  0.13194269124E+04  0.00000000000E+00 0.  1.
          2   -1    0    0  501    0  0.00000000000E+00 -0.00000000000E+00 -0.11038638027E+04  0.11038638027E+04  0.00000000000E+00 0. -1.
         24    2    1    2    0    0 -0.82241669348E+02  0.25641014696E+03  0.11017942413E+04  0.11369810542E+04  0.79154985194E+02 0.  0.
        254    2    1    2    0    0  0.82241669348E+02 -0.25641014696E+03 -0.88623113161E+03  0.12863096610E+04  0.89256768349E+03 0.  0.
         23    2    4    4    0    0 -0.33807026634E+03 -0.28362870784E+03 -0.66213316408E+03  0.80040092479E+03  0.86513377846E+02 0.  0.
         23    2    4    4    0    0  0.42031193568E+03  0.27218560878E+02 -0.22409796753E+03  0.48590873617E+03  0.92110952129E+02 0.  0.
          4    1    3    3  502    0 -0.73172424882E+01 -0.33669714638E+01  0.65705611479E+02  0.66197476646E+02  0.00000000000E+00 0. -1.
         -3    1    3    3    0  502 -0.74924426860E+02  0.25977711842E+03  0.10360886299E+04  0.10707835775E+04  0.00000000000E+00 0.  1.
         13    1    5    5    0    0 -0.22619862708E+03 -0.21063381126E+03 -0.52314039495E+03  0.60762512635E+03  0.00000000000E+00 0. -1.
        -13    1    5    5    0    0 -0.11187163926E+03 -0.72994896579E+02 -0.13899276913E+03  0.19277579845E+03  0.00000000000E+00 0.  1.
          3    1    6    6  503    0  0.90506140487E+01 -0.86996036126E+00  0.86253003897E+01  0.12532607570E+02  0.00000000000E+00 0. -1.
         -3    1    6    6    0  503  0.41126132164E+03  0.28088521239E+02 -0.23272326792E+03  0.47337612860E+03  0.00000000000E+00 0.  1.
<mgrwt>
<rscale>  0 0.24136840E+04</rscale>
<asrwt>0</asrwt>
<pdfrwt beam="1">  1        2 0.16982520E+00 0.24136840E+04</pdfrwt>
<pdfrwt beam="2">  1       -1 0.20298876E+00 0.24136840E+04</pdfrwt>
<totfact> 0.31844913E+00</totfact>
</mgrwt>
</event>
<event>
12    7  0.1729738E-007  0.1414252E+04  0.7818608E-02  0.8943566E-01
          2   -1    0    0  501    0  0.00000000000E+00  0.00000000000E+00  0.20301071100E+04  0.20301071100E+04  0.00000000000E+00 0. -1.
         -1   -1    0    0    0  501 -0.00000000000E+00 -0.00000000000E+00 -0.24630586484E+03  0.24630586484E+03  0.00000000000E+00 0.  1.
         24    2    1    2    0    0 -0.14044949916E+03  0.37345438763E+03  0.33316367958E+03  0.52614592768E+03  0.81469370739E+02 0.  0.
        254    2    1    2    0    0  0.14044949916E+03 -0.37345438763E+03  0.14506375655E+04  0.17502670471E+04  0.89436633892E+03 0.  0.
         23    2    4    4    0    0  0.10996451688E+03  0.11780806378E+03  0.11513921394E+04  0.11663646796E+04  0.93443952575E+02 0.  0.
         23    2    4    4    0    0  0.30484982281E+02 -0.49126245141E+03  0.29924542616E+03  0.58390236754E+03  0.95530201624E+02 0.  0.
          4    1    3    3  502    0 -0.45053471663E+02  0.19325665574E+03  0.20503804840E+03  0.28533936214E+03  0.00000000000E+00 0. -1.
         -3    1    3    3    0  502 -0.95396027496E+02  0.18019773189E+03  0.12812563118E+03  0.24080656554E+03  0.00000000000E+00 0.  1.
         13    1    5    5    0    0  0.68883762580E+01  0.41387742209E+02  0.12215254469E+03  0.12915741987E+03  0.00000000000E+00 0.  1.
        -13    1    5    5    0    0  0.10307614062E+03  0.76420321574E+02  0.10292395947E+04  0.10372072597E+04  0.00000000000E+00 0. -1.
          1    1    6    6  503    0  0.49831999687E+02 -0.46935918557E+03  0.27813232921E+03  0.54784930942E+03  0.00000000000E+00 0. -1.
         -1    1    6    6    0  503 -0.19347017406E+02 -0.21903265839E+02  0.21113096949E+02  0.36053058119E+02  0.00000000000E+00 0.  1.
<mgrwt>
<rscale>  0 0.14142522E+04</rscale>
<asrwt>0</asrwt>
<pdfrwt beam="1">  1        2 0.31232416E+00 0.14142522E+04</pdfrwt>
<pdfrwt beam="2">  1       -1 0.37893211E-01 0.14142522E+04</pdfrwt>
<totfact> 0.47897335E+01</totfact>
</mgrwt>
</event>
<event>
12    7  0.1729738E-007  0.1711889E+04  0.7818608E-02  0.8754613E-01
          2   -1    0    0  501    0  0.00000000000E+00  0.00000000000E+00  0.28156429421E+04  0.28156429421E+04  0.00000000000E+00 0. -1.
         -1   -1    0    0    0  501 -0.00000000000E+00 -0.00000000000E+00 -0.26020377133E+03  0.26020377133E+03  0.00000000000E+00 0.  1.
         24    2    1    2    0    0  0.60281891104E+03 -0.94545066010E+02  0.88914989793E+03  0.10818693522E+04  0.86742983758E+02 0.  0.
        254    2    1    2    0    0 -0.60281891104E+03  0.94545066010E+02  0.16662892728E+04  0.19939773612E+04  0.90944838626E+03 0.  0.
         23    2    4    4    0    0  0.10752196114E+03 -0.25409482848E+03  0.54685851654E+03  0.62011702316E+03  0.96776708486E+02 0.  0.
         23    2    4    4    0    0 -0.71034087218E+03  0.34863989449E+03  0.11194307563E+04  0.13738603380E+04  0.90736319396E+02 0.  0.
          4    1    3    3  502    0  0.58268837340E+03 -0.80310658087E+02  0.87200064630E+03  0.10518368074E+04  0.00000000000E+00 0. -1.
         -1    1    3    3    0  502  0.20130537648E+02 -0.14234407924E+02  0.17149251636E+02  0.30032544791E+02  0.00000000000E+00 0.  1.
         13    1    5    5    0    0  0.11925458742E+03 -0.18192485922E+03  0.37827593126E+03  0.43636107892E+03  0.00000000000E+00 0.  1.
        -13    1    5    5    0    0 -0.11732626283E+02 -0.72169969257E+02  0.16858258528E+03  0.18375594424E+03  0.00000000000E+00 0. -1.
          1    1    6    6  503    0 -0.62560594914E+03  0.33707382051E+03  0.10108318542E+04  0.12356304470E+04  0.00000000000E+00 0. -1.
         -1    1    6    6    0  503 -0.84734923045E+02  0.11566073980E+02  0.10859890208E+03  0.13822989106E+03  0.00000000000E+00 0.  1.
<mgrwt>
<rscale>  0 0.17118889E+04</rscale>
<asrwt>0</asrwt>
<pdfrwt beam="1">  1        2 0.43317582E+00 0.17118889E+04</pdfrwt>
<pdfrwt beam="2">  1       -1 0.40031351E-01 0.17118889E+04</pdfrwt>
<totfact> 0.14945259E+01</totfact>
</mgrwt>
</event>
<event>
12    7  0.1729738E-007  0.1596391E+04  0.7818608E-02  0.8822768E-01
         -1   -1    0    0    0  501 -0.00000000000E+00  0.00000000000E+00  0.18017776501E+03  0.18017776501E+03  0.00000000000E+00 0.  1.
          2   -1    0    0  501    0  0.00000000000E+00 -0.00000000000E+00 -0.35360428536E+04  0.35360428536E+04  0.00000000000E+00 0. -1.
         24    2    1    2    0    0 -0.48380616465E+02  0.17468731757E+03  0.37016741318E+02  0.20142799941E+03  0.79665907614E+02 0.  0.
        254    2    1    2    0    0  0.48380616465E+02 -0.17468731757E+03 -0.33928818299E+04  0.35147926192E+04  0.89959085215E+03 0.  0.
         23    2    4    4    0    0  0.21544990174E+03 -0.17629664911E+03 -0.31183282312E+03  0.42787494782E+03  0.91313157606E+02 0.  0.
         23    2    4    4    0    0 -0.16706928527E+03  0.16093315360E+01 -0.30810490068E+04  0.30869176714E+04  0.91010942126E+02 0.  0.
          2    1    3    3  502    0 -0.14373512991E+01  0.73497829672E+02  0.50326760711E+02  0.89088606393E+02  0.00000000000E+00 0. -1.
         -1    1    3    3    0  502 -0.46943265166E+02  0.10118948790E+03 -0.13310019393E+02  0.11233939301E+03  0.00000000000E+00 0.  1.
         13    1    5    5    0    0  0.75312612855E+02 -0.78959682279E+02 -0.62499281709E+02  0.12574888188E+03  0.00000000000E+00 0. -1.
        -13    1    5    5    0    0  0.14013728888E+03 -0.97336966832E+02 -0.24933354141E+03  0.30212606594E+03  0.00000000000E+00 0.  1.
          4    1    6    6  503    0 -0.21420206763E+02  0.10301079215E+02 -0.12318414944E+03  0.12545625598E+03  0.00000000000E+00 0.  1.
         -4    1    6    6    0  503 -0.14564907851E+03 -0.86917476795E+01 -0.29578648574E+04  0.29614614154E+04  0.00000000000E+00 0. -1.
<mgrwt>
<rscale>  0 0.15963913E+04</rscale>
<asrwt>0</asrwt>
<pdfrwt beam="1">  1        2 0.54400654E+00 0.15963913E+04</pdfrwt>
<pdfrwt beam="2">  1       -1 0.27719659E-01 0.15963913E+04</pdfrwt>
<totfact> 0.99366078E+00</totfact>
</mgrwt>
</event>
<event>
12    7  0.1729738E-007  0.2489751E+04  0.7818608E-02  0.8406646E-01
          2   -1    0    0  501    0  0.00000000000E+00  0.00000000000E+00  0.28253554793E+04  0.28253554793E+04  0.00000000000E+00 0. -1.
         -1   -1    0    0    0  501 -0.00000000000E+00 -0.00000000000E+00 -0.54850261254E+03  0.54850261254E+03  0.00000000000E+00 0.  1.
         24    2    1    2    0    0  0.39411286070E+03 -0.60170120399E+03  0.20816147420E+04  0.22037760693E+04  0.78356516168E+02 0.  0.
        254    2    1    2    0    0 -0.39411286070E+03  0.60170120399E+03  0.19523812475E+03  0.11700820225E+04  0.90200040368E+03 0.  0.
         23    2    4    4    0    0 -0.54494986612E+02  0.74869870981E+03  0.22043474510E+03  0.78777195134E+03  0.92052750268E+02 0.  0.
         23    2    4    4    0    0 -0.33961787409E+03 -0.14699750582E+03 -0.25196620351E+02  0.38231007119E+03  0.92615083744E+02 0.  0.
          2    1    3    3  502    0  0.13428270246E+03 -0.26454616142E+03  0.91812113202E+03  0.96486420224E+03  0.00000000000E+00 0. -1.
         -1    1    3    3    0  502  0.25983015824E+03 -0.33715504257E+03  0.11634936100E+04  0.12389118670E+04  0.00000000000E+00 0.  1.
         13    1    5    5    0    0 -0.67947807434E+01  0.20098956763E+03  0.10152126591E+03  0.22527659172E+03  0.00000000000E+00 0. -1.
        -13    1    5    5    0    0 -0.47700205868E+02  0.54770914218E+03  0.11891347918E+03  0.56249535962E+03  0.00000000000E+00 0.  1.
          1    1    6    6  503    0 -0.26960298230E+03 -0.10112488218E+03 -0.55584952824E+02  0.29326045905E+03  0.00000000000E+00 0. -1.
         -1    1    6    6    0  503 -0.70014891790E+02 -0.45872623638E+02  0.30388332473E+02  0.89049612140E+02  0.00000000000E+00 0.  1.
<mgrwt>
<rscale>  0 0.24897509E+04</rscale>
<asrwt>0</asrwt>
<pdfrwt beam="1">  1        2 0.43467007E+00 0.24897509E+04</pdfrwt>
<pdfrwt beam="2">  1       -1 0.84385019E-01 0.24897509E+04</pdfrwt>
<totfact> 0.31512845E+00</totfact>
</mgrwt>
</event>
<event>
12    7  0.1729738E-007  0.1895242E+04  0.7818608E-02  0.8657228E-01
          2   -1    0    0  501    0  0.00000000000E+00  0.00000000000E+00  0.11618625778E+04  0.11618625778E+04  0.00000000000E+00 0. -1.
         -1   -1    0    0    0  501 -0.00000000000E+00 -0.00000000000E+00 -0.77288442182E+03  0.77288442182E+03  0.00000000000E+00 0.  1.
         24    2    1    2    0    0  0.30719909201E+03 -0.79259397761E+01  0.83043430248E+03  0.88894270441E+03  0.78510498320E+02 0.  0.
        254    2    1    2    0    0 -0.30719909201E+03  0.79259397761E+01 -0.44145614646E+03  0.10458042952E+04  0.89687735620E+03 0.  0.
         23    2    4    4    0    0 -0.11092532585E+03  0.40116783241E+03 -0.41662183087E+03  0.59639064568E+03  0.94170030402E+02 0.  0.
         23    2    4    4    0    0 -0.19627376615E+03 -0.39324189263E+03 -0.24834315584E+02  0.44941364956E+03  0.90516892241E+02 0.  0.
          2    1    3    3  502    0  0.22329603421E+03 -0.36503625974E+02  0.54620999061E+03  0.59121822320E+03  0.00000000000E+00 0. -1.
         -3    1    3    3    0  502  0.83903057795E+02  0.28577686198E+02  0.28422431186E+03  0.29772448121E+03  0.00000000000E+00 0.  1.
         13    1    5    5    0    0 -0.39888266145E+01  0.43580487592E+01  0.49071769742E+01  0.76800854555E+01  0.00000000000E+00 0. -1.
        -13    1    5    5    0    0 -0.10693649924E+03  0.39680978365E+03 -0.42152900785E+03  0.58871056023E+03  0.00000000000E+00 0.  1.
          1    1    6    6  503    0 -0.48194145282E+02 -0.18929089457E+03  0.64781663509E+01  0.19543716393E+03  0.00000000000E+00 0.  1.
         -1    1    6    6    0  503 -0.14807962087E+03 -0.20395099806E+03 -0.31312481935E+02  0.25397648563E+03  0.00000000000E+00 0. -1.
<mgrwt>
<rscale>  0 0.18952419E+04</rscale>
<asrwt>0</asrwt>
<pdfrwt beam="1">  1        2 0.17874809E+00 0.18952419E+04</pdfrwt>
<pdfrwt beam="2">  1       -1 0.11890530E+00 0.18952419E+04</pdfrwt>
<totfact> 0.13509210E+01</totfact>
</mgrwt>
</event>
<event>
12    7  0.1729738E-007  0.1542972E+04  0.7818608E-02  0.8856369E-01
          2   -1    0    0  501    0  0.00000000000E+00  0.00000000000E+00  0.58017685160E+03  0.58017685160E+03  0.00000000000E+00 0. -1.
         -1   -1    0    0    0  501 -0.00000000000E+00 -0.00000000000E+00 -0.10258782138E+04  0.10258782138E+04  0.00000000000E+00 0.  1.
         24    2    1    2    0    0 -0.11199876432E+02 -0.34091842442E+03  0.24008196082E+03  0.42486650028E+03  0.80755097692E+02 0.  0.
        254    2    1    2    0    0  0.11199876432E+02  0.34091842442E+03 -0.68578332304E+03  0.11811885651E+04  0.89919789307E+03 0.  0.
         23    2    4    4    0    0  0.14850090883E+03  0.59564708929E+03 -0.29723398381E+03  0.68788273649E+03  0.89368020720E+02 0.  0.
         23    2    4    4    0    0 -0.13730103240E+03 -0.25472866487E+03 -0.38854933923E+03  0.49330582864E+03  0.92961203508E+02 0.  0.
          4    1    3    3  502    0 -0.21350248357E+02 -0.33294970250E+03  0.21572350826E+03  0.39730085517E+03  0.00000000000E+00 0. -1.
         -3    1    3    3    0  502  0.10150371925E+02 -0.79687219242E+01  0.24358452559E+02  0.27565645112E+02  0.00000000000E+00 0.  1.
         13    1    5    5    0    0  0.10988839876E+03  0.44864058079E+03 -0.26495935479E+03  0.53250097709E+03  0.00000000000E+00 0. -1.
        -13    1    5    5    0    0  0.38612510064E+02  0.14700650850E+03 -0.32274629020E+02  0.15538175940E+03  0.00000000000E+00 0.  1.
          2    1    6    6  503    0 -0.74671769553E+02 -0.88542102032E+02 -0.93172071681E+02  0.14864929176E+03  0.00000000000E+00 0. -1.
         -2    1    6    6    0  503 -0.62629262843E+02 -0.16618656283E+03 -0.29537726754E+03  0.34465653688E+03  0.00000000000E+00 0.  1.
<mgrwt>
<rscale>  0 0.15429722E+04</rscale>
<asrwt>0</asrwt>
<pdfrwt beam="1">  1        2 0.89257977E-01 0.15429722E+04</pdfrwt>
<pdfrwt beam="2">  1       -1 0.15782742E+00 0.15429722E+04</pdfrwt>
<totfact> 0.17256190E+01</totfact>
</mgrwt>
</event>
<event>
12    7  0.1729738E-007  0.2825899E+04  0.7818608E-02  0.8295272E-01
         -1   -1    0    0    0  501 -0.00000000000E+00  0.00000000000E+00  0.87844321941E+03  0.87844321941E+03  0.00000000000E+00 0.  1.
          2   -1    0    0  501    0  0.00000000000E+00 -0.00000000000E+00 -0.22726874112E+04  0.22726874112E+04  0.00000000000E+00 0. -1.
         24    2    1    2    0    0 -0.13427089963E+03 -0.12614095984E+04 -0.78190536632E+03  0.14922783708E+04  0.79598269540E+02 0.  0.
        254    2    1    2    0    0  0.13427089963E+03  0.12614095984E+04 -0.61233882550E+03  0.16588522599E+04  0.87615588418E+03 0.  0.
         23    2    4    4    0    0  0.19145527612E+03  0.13699166479E+04 -0.57215428614E+03  0.14996987817E+04  0.91701492844E+02 0.  0.
         23    2    4    4    0    0 -0.57184376488E+02 -0.10850704947E+03 -0.40184539362E+02  0.15915347816E+03  0.93119276788E+02 0.  0.
          2    1    3    3  502    0 -0.96175551166E+02 -0.10344574343E+04 -0.60718461576E+03  0.12033391366E+04  0.00000000000E+00 0. -1.
         -1    1    3    3    0  502 -0.38095348466E+02 -0.22695216407E+03 -0.17472075055E+03  0.28893923414E+03  0.00000000000E+00 0.  1.
         13    1    5    5    0    0  0.17386613012E+03  0.13393188131E+04 -0.56322849073E+03  0.14632944499E+04  0.00000000000E+00 0. -1.
        -13    1    5    5    0    0  0.17589146004E+02  0.30597834776E+02 -0.89257954100E+01  0.36404331801E+02  0.00000000000E+00 0.  1.
          4    1    6    6  503    0 -0.67464083768E+02 -0.43565440811E+02  0.32138061275E+01  0.80372126895E+02  0.00000000000E+00 0. -1.
         -4    1    6    6    0  503  0.10279707280E+02 -0.64941608656E+02 -0.43398345489E+02  0.78781351270E+02  0.00000000000E+00 0.  1.
<mgrwt>
<rscale>  0 0.28258994E+04</rscale>
<asrwt>0</asrwt>
<pdfrwt beam="1">  1        2 0.34964421E+00 0.28258994E+04</pdfrwt>
<pdfrwt beam="2">  1       -1 0.13514511E+00 0.28258994E+04</pdfrwt>
<totfact> 0.21307013E+00</totfact>
</mgrwt>
</event>
<event>
12    7  0.1729738E-007  0.1879652E+04  0.7818608E-02  0.8665052E-01
          4   -1    0    0  501    0  0.00000000000E+00  0.00000000000E+00  0.10665159324E+04  0.10665159324E+04  0.00000000000E+00 0. -1.
         -3   -1    0    0    0  501 -0.00000000000E+00 -0.00000000000E+00 -0.82818559625E+03  0.82818559625E+03  0.00000000000E+00 0.  1.
         24    2    1    2    0    0  0.21900561671E+02  0.11193801903E+02  0.81160547010E+03  0.81588652922E+03  0.79764990186E+02 0.  0.
        254    2    1    2    0    0 -0.21900561671E+02 -0.11193801903E+02 -0.57327513398E+03  0.10788149994E+04  0.91356033622E+03 0.  0.
         23    2    4    4    0    0  0.27829333629E+02 -0.22713530518E+03  0.16970070335E+03  0.29818746756E+03  0.88048386834E+02 0.  0.
         23    2    4    4    0    0 -0.49729895300E+02  0.21594150327E+03 -0.74297583732E+03  0.78062753186E+03  0.90898038048E+02 0.  0.
          4    1    3    3  502    0  0.14290867556E+02 -0.30790107039E+02  0.52792564780E+03  0.52901583076E+03  0.00000000000E+00 0. -1.
         -3    1    3    3    0  502  0.76096941149E+01  0.41983908942E+02  0.28367982230E+03  0.28687069846E+03  0.00000000000E+00 0.  1.
         13    1    5    5    0    0  0.96571255315E+01 -0.26567006815E+02 -0.82442553933E+01  0.29445435497E+02  0.00000000000E+00 0.  1.
        -13    1    5    5    0    0  0.18172208097E+02 -0.20056829836E+03  0.17794495874E+03  0.26874203206E+03  0.00000000000E+00 0. -1.
          3    1    6    6  503    0 -0.48524231462E+02  0.20641304632E+03 -0.58298476532E+03  0.62034843703E+03  0.00000000000E+00 0. -1.
         -3    1    6    6    0  503 -0.12056638383E+01  0.95284569542E+01 -0.15999107201E+03  0.16027909483E+03  0.00000000000E+00 0.  1.
<mgrwt>
<rscale>  0 0.18796522E+04</rscale>
<asrwt>0</asrwt>
<pdfrwt beam="1">  1        4 0.16407938E+00 0.18796522E+04</pdfrwt>
<pdfrwt beam="2">  1       -3 0.12741317E+00 0.18796522E+04</pdfrwt>
<totfact> 0.24412535E-01</totfact>
</mgrwt>
</event>
<event>
12    7  0.1729738E-007  0.1538905E+04  0.7818608E-02  0.8858986E-01
         -1   -1    0    0    0  501 -0.00000000000E+00  0.00000000000E+00  0.20970176186E+03  0.20970176186E+03  0.00000000000E+00 0.  1.
          2   -1    0    0  501    0  0.00000000000E+00 -0.00000000000E+00 -0.28233284339E+04  0.28233284339E+04  0.00000000000E+00 0. -1.
         24    2    1    2    0    0 -0.14619168114E+02 -0.18250488978E+03 -0.17670954534E+04  0.17783295230E+04  0.79421635734E+02 0.  0.
        254    2    1    2    0    0  0.14619168114E+02  0.18250488978E+03 -0.84653121871E+03  0.12547006728E+04  0.90781987156E+03 0.  0.
         23    2    4    4    0    0 -0.10409514883E+03  0.39809159442E+03 -0.58585710821E+02  0.42408373191E+03  0.84273415754E+02 0.  0.
         23    2    4    4    0    0  0.11871431694E+03 -0.21558670464E+03 -0.78794550789E+03  0.83061694088E+03  0.92171919873E+02 0.  0.
          4    1    3    3  502    0  0.11009502498E+02 -0.94402428300E+02 -0.58417995452E+03  0.59186083404E+03  0.00000000000E+00 0. -1.
         -3    1    3    3    0  502 -0.25628670611E+02 -0.88102461477E+02 -0.11829154988E+04  0.11864686890E+04  0.00000000000E+00 0.  1.
         13    1    5    5    0    0 -0.86904050940E+01  0.18176039616E+03 -0.43929062033E+02  0.18719542527E+03  0.00000000000E+00 0. -1.
        -13    1    5    5    0    0 -0.95404743736E+02  0.21633119826E+03 -0.14656648788E+02  0.23688830664E+03  0.00000000000E+00 0.  1.
          4    1    6    6  503    0  0.13425897580E+03 -0.19791238782E+03 -0.71010639385E+03  0.74929692140E+03  0.00000000000E+00 0.  1.
         -4    1    6    6    0  503 -0.15544658855E+02 -0.17674316824E+02 -0.77839114041E+02  0.81320019483E+02  0.00000000000E+00 0. -1.
<mgrwt>
<rscale>  0 0.15389047E+04</rscale>
<asrwt>0</asrwt>
<pdfrwt beam="1">  1        2 0.43435823E+00 0.15389047E+04</pdfrwt>
<pdfrwt beam="2">  1       -1 0.32261809E-01 0.15389047E+04</pdfrwt>
<totfact> 0.22147160E+01</totfact>
</mgrwt>
</event>
<event>
12    7  0.1729738E-007  0.2995984E+04  0.7818608E-02  0.8244879E-01
         -1   -1    0    0    0  501 -0.00000000000E+00  0.00000000000E+00  0.15387581666E+04  0.15387581666E+04  0.00000000000E+00 0.  1.
          2   -1    0    0  501    0  0.00000000000E+00 -0.00000000000E+00 -0.14583060284E+04  0.14583060284E+04  0.00000000000E+00 0. -1.
         24    2    1    2    0    0 -0.10924913150E+04  0.81479231786E+03  0.10266041269E+02  0.13652129724E+04  0.79229248051E+02 0.  0.
        254    2    1    2    0    0  0.10924913150E+04 -0.81479231786E+03  0.70186096949E+02  0.16318512226E+04  0.89475612868E+03 0.  0.
         23    2    4    4    0    0  0.65720906882E+03 -0.90952055030E+03  0.23416529970E+03  0.11497909242E+04  0.89634760188E+02 0.  0.
         23    2    4    4    0    0  0.43528224622E+03  0.94728232446E+02 -0.16397920275E+03  0.48206029839E+03  0.83957611085E+02 0.  0.
          4    1    3    3  502    0 -0.29524023899E+03  0.24331930490E+03 -0.27511170605E+02  0.38357261029E+03  0.00000000000E+00 0. -1.
         -3    1    3    3    0  502 -0.79725107605E+03  0.57147301296E+03  0.37777211874E+02  0.98164036212E+03  0.00000000000E+00 0.  1.
         13    1    5    5    0    0  0.87655211125E+02 -0.17931608042E+03  0.37917114326E+02  0.20316348169E+03  0.00000000000E+00 0.  1.
        -13    1    5    5    0    0  0.56955385769E+03 -0.73020446989E+03  0.19624818537E+03  0.94662744251E+03  0.00000000000E+00 0. -1.
          4    1    6    6  503    0  0.66265303882E+02  0.32035181095E+02 -0.56023595219E+02  0.92498575922E+02  0.00000000000E+00 0. -1.
         -4    1    6    6    0  503  0.36901694233E+03  0.62693051351E+02 -0.10795560753E+03  0.38956172247E+03  0.00000000000E+00 0.  1.
<mgrwt>
<rscale>  0 0.29959842E+04</rscale>
<asrwt>0</asrwt>
<pdfrwt beam="1">  1        2 0.22435477E+00 0.29959842E+04</pdfrwt>
<pdfrwt beam="2">  1       -1 0.23673202E+00 0.29959842E+04</pdfrwt>
<totfact> 0.11134466E+00</totfact>
</mgrwt>
</event>
<event>
12    7  0.1729738E-007  0.1358035E+04  0.7818608E-02  0.8984768E-01
          2   -1    0    0  501    0  0.00000000000E+00  0.00000000000E+00  0.41415878558E+03  0.41415878558E+03  0.00000000000E+00 0. -1.
         -1   -1    0    0    0  501 -0.00000000000E+00 -0.00000000000E+00 -0.11132560649E+04  0.11132560649E+04  0.00000000000E+00 0.  1.
         24    2    1    2    0    0  0.18411572915E+03 -0.50697341864E+02  0.16551019178E+03  0.26522345055E+03  0.80504862858E+02 0.  0.
        254    2    1    2    0    0 -0.18411572915E+03  0.50697341864E+02 -0.86460747114E+03  0.12621914000E+04  0.89950665856E+03 0.  0.
         23    2    4    4    0    0 -0.44273910496E+03  0.18327680021E+03 -0.81984278384E+03  0.95456560297E+03  0.97185387868E+02 0.  0.
         23    2    4    4    0    0  0.25862337581E+03 -0.13257945835E+03 -0.44764687305E+02  0.30762579699E+03  0.90368083157E+02 0.  0.
          2    1    3    3  502    0  0.11340292189E+03 -0.70088343284E+02  0.11634182337E+03  0.17694072008E+03  0.00000000000E+00 0. -1.
         -3    1    3    3    0  502  0.70712807252E+02  0.19391001419E+02  0.49168368415E+02  0.88282730463E+02  0.00000000000E+00 0.  1.
         13    1    5    5    0    0 -0.12564441489E+03  0.21084892712E+02 -0.28252587936E+03  0.30992251322E+03  0.00000000000E+00 0.  1.
        -13    1    5    5    0    0 -0.31709469006E+03  0.16219190750E+03 -0.53731690448E+03  0.64464308975E+03  0.00000000000E+00 0. -1.
          2    1    6    6  503    0  0.96248847160E+01 -0.15436071734E+02 -0.26102506721E+02  0.31815901268E+02  0.00000000000E+00 0.  1.
         -2    1    6    6    0  503  0.24899849109E+03 -0.11714338661E+03 -0.18662180584E+02  0.27580989572E+03  0.00000000000E+00 0. -1.
<mgrwt>
<rscale>  0 0.13580350E+04</rscale>
<asrwt>0</asrwt>
<pdfrwt beam="1">  1        2 0.63716736E-01 0.13580350E+04</pdfrwt>
<pdfrwt beam="2">  1       -1 0.17127016E+00 0.13580350E+04</pdfrwt>
<totfact> 0.20563393E+01</totfact>
</mgrwt>
</event>
<event>
12    7  0.1729738E-007  0.1618044E+04  0.7818608E-02  0.8809539E-01
          2   -1    0    0  501    0  0.00000000000E+00  0.00000000000E+00  0.23986734938E+04  0.23986734938E+04  0.00000000000E+00 0. -1.
         -3   -1    0    0    0  501 -0.00000000000E+00 -0.00000000000E+00 -0.27286605553E+03  0.27286605553E+03  0.00000000000E+00 0.  1.
         24    2    1    2    0    0  0.18871626368E+03 -0.25755595447E+03 -0.22640059155E+02  0.32531883052E+03  0.58059205549E+02 0.  0.
        254    2    1    2    0    0 -0.18871626368E+03  0.25755595447E+03  0.21484474974E+04  0.23462207188E+04  0.88711674220E+03 0.  0.
         23    2    4    4    0    0 -0.36649806703E+03  0.18791201133E+03  0.38850378785E+03  0.57359646981E+03  0.91901903538E+02 0.  0.
         23    2    4    4    0    0  0.17778180335E+03  0.69643943144E+02  0.17599437095E+04  0.17726242490E+04  0.91313847933E+02 0.  0.
          2    1    3    3  502    0  0.11951286737E+02 -0.25950712535E+02  0.13740263134E+02  0.31702800614E+02  0.00000000000E+00 0. -1.
         -3    1    3    3    0  502  0.17676497694E+03 -0.23160524194E+03 -0.36380322289E+02  0.29361602990E+03  0.00000000000E+00 0.  1.
         13    1    5    5    0    0 -0.13097336304E+03  0.82165524870E+02  0.89867040904E+02  0.17883310752E+03  0.00000000000E+00 0. -1.
        -13    1    5    5    0    0 -0.23552470399E+03  0.10574648646E+03  0.29863674694E+03  0.39476336230E+03  0.00000000000E+00 0.  1.
          1    1    6    6  503    0  0.43866990874E+01  0.33659037877E+02  0.33625421587E+03  0.33796312173E+03  0.00000000000E+00 0. -1.
         -1    1    6    6    0  503  0.17339510426E+03  0.35984905267E+02  0.14236894937E+04  0.14346611272E+04  0.00000000000E+00 0.  1.
<mgrwt>
<rscale>  0 0.16180440E+04</rscale>
<asrwt>0</asrwt>
<pdfrwt beam="1">  1        2 0.36902668E+00 0.16180440E+04</pdfrwt>
<pdfrwt beam="2">  1       -3 0.41979395E-01 0.16180440E+04</pdfrwt>
<totfact> 0.13917184E+01</totfact>
</mgrwt>
</event>
<event>
12    7  0.1729738E-007  0.2113928E+04  0.7818608E-02  0.8555132E-01
         -1   -1    0    0    0  501 -0.00000000000E+00  0.00000000000E+00  0.49212229968E+03  0.49212229968E+03  0.00000000000E+00 0.  1.
          2   -1    0    0  501    0  0.00000000000E+00 -0.00000000000E+00 -0.22701133718E+04  0.22701133718E+04  0.00000000000E+00 0. -1.
         24    2    1    2    0    0 -0.43750063473E+03 -0.19808846689E+03  0.20991204481E+03  0.53012465300E+03  0.79518771760E+02 0.  0.
        254    2    1    2    0    0  0.43750063473E+03  0.19808846689E+03 -0.19879031169E+04  0.22321110184E+04  0.89437964558E+03 0.  0.
         23    2    4    4    0    0  0.12685613017E+03  0.46979689350E+03 -0.15327354797E+04  0.16109277393E+04  0.94913283890E+02 0.  0.
         23    2    4    4    0    0  0.31064450456E+03 -0.27170842661E+03 -0.45516763714E+03  0.62118327915E+03  0.91463714599E+02 0.  0.
          2    1    3    3  502    0 -0.37189794158E+02  0.68892104208E+00  0.32009932612E+02  0.49073324603E+02  0.00000000000E+00 0. -1.
         -1    1    3    3    0  502 -0.40031084057E+03 -0.19877738793E+03  0.17790211220E+03  0.48105132840E+03  0.00000000000E+00 0.  1.
         13    1    5    5    0    0  0.11995505970E+03  0.33524488559E+03 -0.10028909794E+04  0.10642220944E+04  0.00000000000E+00 0. -1.
        -13    1    5    5    0    0  0.69010704726E+01  0.13455200791E+03 -0.52984450038E+03  0.54670564492E+03  0.00000000000E+00 0.  1.
          3    1    6    6  503    0  0.27119821017E+03 -0.27032074802E+03 -0.41955533973E+03  0.56802153049E+03  0.00000000000E+00 0. -1.
         -3    1    6    6    0  503  0.39446294392E+02 -0.13876785911E+01 -0.35612297411E+02  0.53161748654E+02  0.00000000000E+00 0.  1.
<mgrwt>
<rscale>  0 0.21139285E+04</rscale>
<asrwt>0</asrwt>
<pdfrwt beam="1">  1        2 0.34924822E+00 0.21139285E+04</pdfrwt>
<pdfrwt beam="2">  1       -1 0.75711122E-01 0.21139285E+04</pdfrwt>
<totfact> 0.86572931E+00</totfact>
</mgrwt>
</event>
<event>
12    7  0.1729738E-007  0.2162461E+04  0.7818608E-02  0.8534217E-01
          2   -1    0    0  501    0  0.00000000000E+00  0.00000000000E+00  0.10184658605E+04  0.10184658605E+04  0.00000000000E+00 0. -1.
         -1   -1    0    0    0  501 -0.00000000000E+00 -0.00000000000E+00 -0.11478633793E+04  0.11478633793E+04  0.00000000000E+00 0.  1.
         24    2    1    2    0    0 -0.48756206753E+03  0.41791401564E+03 -0.67574935925E+03  0.93562139236E+03  0.79883034225E+02 0.  0.
        254    2    1    2    0    0  0.48756206753E+03 -0.41791401564E+03  0.54635184039E+03  0.12307078474E+04  0.89653364576E+03 0.  0.
         23    2    4    4    0    0  0.38766337519E+03 -0.62701017648E+03  0.14312881180E+03  0.75646954051E+03  0.91299808824E+02 0.  0.
         23    2    4    4    0    0  0.99898692345E+02  0.20909616083E+03  0.40322302859E+03  0.47423830688E+03  0.92801981243E+02 0.  0.
          2    1    3    3  502    0 -0.10227517751E+03  0.11201811551E+03 -0.12000587940E+03  0.19341582465E+03  0.00000000000E+00 0. -1.
         -1    1    3    3    0  502 -0.38528689003E+03  0.30589590014E+03 -0.55574347985E+03  0.74220556771E+03  0.00000000000E+00 0.  1.
         13    1    5    5    0    0  0.99507256335E+02 -0.13102939917E+03 -0.29187737829E+01  0.16455672806E+03  0.00000000000E+00 0. -1.
        -13    1    5    5    0    0  0.28815611885E+03 -0.49598077731E+03  0.14604758558E+03  0.59191281245E+03  0.00000000000E+00 0.  1.
          3    1    6    6  503    0  0.51124868070E+02  0.11364993521E+03  0.30245523402E+03  0.32712265053E+03  0.00000000000E+00 0. -1.
         -3    1    6    6    0  503  0.48773824275E+02  0.95446225621E+02  0.10076779458E+03  0.14711565635E+03  0.00000000000E+00 0.  1.
<mgrwt>
<rscale>  0 0.21624612E+04</rscale>
<asrwt>0</asrwt>
<pdfrwt beam="1">  1        2 0.15668706E+00 0.21624612E+04</pdfrwt>
<pdfrwt beam="2">  1       -1 0.17659437E+00 0.21624612E+04</pdfrwt>
<totfact> 0.56446607E+00</totfact>
</mgrwt>
</event>
<event>
12    7  0.1729738E-007  0.1336083E+04  0.7818608E-02  0.9001430E-01
         -3   -1    0    0    0  501 -0.00000000000E+00  0.00000000000E+00  0.18273356164E+04  0.18273356164E+04  0.00000000000E+00 0.  1.
          4   -1    0    0  501    0  0.00000000000E+00 -0.00000000000E+00 -0.24422421244E+03  0.24422421244E+03  0.00000000000E+00 0. -1.
         24    2    1    2    0    0 -0.16965736837E+03 -0.31235959832E+03  0.50949553490E+03  0.62628392094E+03  0.79332895123E+02 0.  0.
        254    2    1    2    0    0  0.16965736837E+03  0.31235959832E+03  0.10736158691E+04  0.14452759079E+04  0.89989959126E+03 0.  0.
         23    2    4    4    0    0 -0.34307714838E+03  0.28611487814E+02  0.27301879987E+03  0.44881495529E+03  0.91515310380E+02 0.  0.
         23    2    4    4    0    0  0.51273451675E+03  0.28374811051E+03  0.80059706919E+03  0.99646095261E+03  0.92569368563E+02 0.  0.
          4    1    3    3  502    0 -0.15600332096E+03 -0.26587327702E+03  0.38845136312E+03  0.49590331426E+03  0.00000000000E+00 0. -1.
         -3    1    3    3    0  502 -0.13654047409E+02 -0.46486321306E+02  0.12104417177E+03  0.13038060668E+03  0.00000000000E+00 0.  1.
         13    1    5    5    0    0 -0.14650480019E+03  0.41135382890E+01  0.17353203094E+03  0.22714300218E+03  0.00000000000E+00 0. -1.
        -13    1    5    5    0    0 -0.19657234820E+03  0.24497949525E+02  0.99486768928E+02  0.22167195312E+03  0.00000000000E+00 0.  1.
          2    1    6    6  503    0  0.42037828288E+00 -0.41220092396E+01  0.13936926724E+02  0.14539793829E+02  0.00000000000E+00 0. -1.
         -2    1    6    6    0  503  0.51231413847E+03  0.28787011975E+03  0.78666014246E+03  0.98192115878E+03  0.00000000000E+00 0.  1.
<mgrwt>
<rscale>  0 0.13360832E+04</rscale>
<asrwt>0</asrwt>
<pdfrwt beam="1">  1        4 0.37572957E-01 0.13360832E+04</pdfrwt>
<pdfrwt beam="2">  1       -3 0.28112855E+00 0.13360832E+04</pdfrwt>
<totfact> 0.75583518E-01</totfact>
</mgrwt>
</event>
<event>
12    7  0.1729738E-007  0.1258349E+04  0.7818608E-02  0.9063263E-01
         -1   -1    0    0    0  501 -0.00000000000E+00  0.00000000000E+00  0.31806623874E+03  0.31806623874E+03  0.00000000000E+00 0.  1.
          2   -1    0    0  501    0  0.00000000000E+00 -0.00000000000E+00 -0.12445862164E+04  0.12445862164E+04  0.00000000000E+00 0. -1.
         24    2    1    2    0    0 -0.16613642453E+03 -0.15329569243E+03 -0.47619251476E+03  0.53320832960E+03  0.80317686489E+02 0.  0.
        254    2    1    2    0    0  0.16613642453E+03  0.15329569243E+03 -0.45032746291E+03  0.10294441256E+04  0.89769677671E+03 0.  0.
         23    2    4    4    0    0  0.80721078910E+02  0.31361686719E+03  0.16943217620E+03  0.37678089395E+03  0.91570452367E+02 0.  0.
         23    2    4    4    0    0  0.85415345616E+02 -0.16032117476E+03 -0.61975963911E+03  0.65266323160E+03  0.94173368131E+02 0.  0.
          4    1    3    3  502    0 -0.16883291457E+03 -0.12342726179E+03 -0.42953404290E+03  0.47774296018E+03  0.00000000000E+00 0. -1.
         -3    1    3    3    0  502  0.26964900411E+01 -0.29868430646E+02 -0.46658471864E+02  0.55465369417E+02  0.00000000000E+00 0.  1.
         13    1    5    5    0    0  0.15994230545E+02  0.10821898783E+03  0.10588440565E+03  0.15224543375E+03  0.00000000000E+00 0. -1.
        -13    1    5    5    0    0  0.64726848366E+02  0.20539787936E+03  0.63547770551E+02  0.22453546020E+03  0.00000000000E+00 0.  1.
          2    1    6    6  503    0  0.48319527078E+02 -0.44527922951E+02 -0.10601891588E+03  0.12472980054E+03  0.00000000000E+00 0. -1.
         -2    1    6    6    0  503  0.37095818538E+02 -0.11579325181E+03 -0.51374072324E+03  0.52793343106E+03  0.00000000000E+00 0.  1.
<mgrwt>
<rscale>  0 0.12583495E+04</rscale>
<asrwt>0</asrwt>
<pdfrwt beam="1">  1        2 0.19147480E+00 0.12583495E+04</pdfrwt>
<pdfrwt beam="2">  1       -1 0.48933268E-01 0.12583495E+04</pdfrwt>
<totfact> 0.83473000E+01</totfact>
</mgrwt>
</event>
<event>
12    7  0.1729738E-007  0.1381248E+04  0.7818608E-02  0.8967505E-01
         -1   -1    0    0    0  501 -0.00000000000E+00  0.00000000000E+00  0.13615453771E+04  0.13615453771E+04  0.00000000000E+00 0.  1.
          2   -1    0    0  501    0  0.00000000000E+00 -0.00000000000E+00 -0.35030875278E+03  0.35030875278E+03  0.00000000000E+00 0. -1.
         24    2    1    2    0    0  0.34713727849E+03 -0.17137032480E+03  0.35109492599E+03  0.52894460639E+03  0.81502584212E+02 0.  0.
        254    2    1    2    0    0 -0.34713727849E+03  0.17137032480E+03  0.66014169832E+03  0.11829095235E+04  0.90200654129E+03 0.  0.
         23    2    4    4    0    0  0.21135697798E+03  0.11645464308E+03  0.54278792635E+03  0.60045558235E+03  0.87719538004E+02 0.  0.
         23    2    4    4    0    0 -0.55849425647E+03  0.54915681720E+02  0.11735377198E+03  0.58245394113E+03  0.10270890481E+03 0.  0.
          4    1    3    3  502    0  0.56941881689E+02 -0.36694943410E+02  0.10655613810E+03  0.12626601811E+03  0.00000000000E+00 0. -1.
         -3    1    3    3    0  502  0.29019539680E+03 -0.13467538139E+03  0.24453878789E+03  0.40267858828E+03  0.00000000000E+00 0.  1.
         13    1    5    5    0    0  0.11446619635E+03  0.24106741749E+02  0.31802232052E+03  0.33885371690E+03  0.00000000000E+00 0.  1.
        -13    1    5    5    0    0  0.96890781629E+02  0.92347901333E+02  0.22476560583E+03  0.26160186545E+03  0.00000000000E+00 0. -1.
          2    1    6    6  503    0 -0.46184458015E+03  0.16776495846E+02  0.12351130946E+03  0.47836901090E+03  0.00000000000E+00 0. -1.
         -2    1    6    6    0  503 -0.96649676327E+02  0.38139185874E+02 -0.61575374867E+01  0.10408493023E+03  0.00000000000E+00 0.  1.
<mgrwt>
<rscale>  0 0.13812476E+04</rscale>
<asrwt>0</asrwt>
<pdfrwt beam="1">  1        2 0.53893655E-01 0.13812476E+04</pdfrwt>
<pdfrwt beam="2">  1       -1 0.20946852E+00 0.13812476E+04</pdfrwt>
<totfact> 0.13353114E+01</totfact>
</mgrwt>
</event>
<event>
12    7  0.1729738E-007  0.1940016E+04  0.7818608E-02  0.8635190E-01
         -1   -1    0    0    0  501 -0.00000000000E+00  0.00000000000E+00  0.27043621317E+03  0.27043621317E+03  0.00000000000E+00 0.  1.
          2   -1    0    0  501    0  0.00000000000E+00 -0.00000000000E+00 -0.34792515703E+04  0.34792515703E+04  0.00000000000E+00 0. -1.
         24    2    1    2    0    0  0.95155860294E+02 -0.15453762712E+03  0.16233570798E+03  0.25674951706E+03  0.81430439507E+02 0.  0.
        254    2    1    2    0    0 -0.95155860294E+02  0.15453762712E+03 -0.33711510651E+04  0.34929382664E+04  0.89611478793E+03 0.  0.
         23    2    4    4    0    0 -0.44232993461E+03 -0.31305607388E+02 -0.11604215847E+04  0.12455973262E+04  0.91096830374E+02 0.  0.
         23    2    4    4    0    0  0.34717407432E+03  0.18584323451E+03 -0.22107294804E+04  0.22473409402E+04  0.90271371965E+02 0.  0.
          4    1    3    3  502    0  0.22524915387E+02 -0.37751418150E+02  0.92700461237E+02  0.10259589124E+03  0.00000000000E+00 0. -1.
         -3    1    3    3    0  502  0.72630944907E+02 -0.11678620897E+03  0.69635246747E+02  0.15415362582E+03  0.00000000000E+00 0.  1.
         13    1    5    5    0    0 -0.34290906092E+03 -0.15281470190E+01 -0.96844560929E+03  0.10273635469E+04  0.00000000000E+00 0. -1.
        -13    1    5    5    0    0 -0.99420873697E+02 -0.29777460369E+02 -0.19197597545E+03  0.21823377929E+03  0.00000000000E+00 0.  1.
          1    1    6    6  503    0  0.13877074437E+02  0.73854968297E+01 -0.27997050871E+02  0.32108466420E+02  0.00000000000E+00 0.  1.
         -1    1    6    6    0  503  0.33329699988E+03  0.17845773768E+03 -0.21827324295E+04  0.22152324738E+04  0.00000000000E+00 0. -1.
<mgrwt>
<rscale>  0 0.19400161E+04</rscale>
<asrwt>0</asrwt>
<pdfrwt beam="1">  1        2 0.53526944E+00 0.19400161E+04</pdfrwt>
<pdfrwt beam="2">  1       -1 0.41605574E-01 0.19400161E+04</pdfrwt>
<totfact> 0.50920293E+00</totfact>
</mgrwt>
</event>
<event>
12    7  0.1729738E-007  0.1488545E+04  0.7818608E-02  0.8892107E-01
         -1   -1    0    0    0  501 -0.00000000000E+00  0.00000000000E+00  0.16759360223E+03  0.16759360223E+03  0.00000000000E+00 0.  1.
          2   -1    0    0  501    0  0.00000000000E+00 -0.00000000000E+00 -0.33052645614E+04  0.33052645614E+04  0.00000000000E+00 0. -1.
         24    2    1    2    0    0  0.39408078970E+03  0.17225001528E+03 -0.58308116908E+03  0.72905951256E+03  0.81082590836E+02 0.  0.
        254    2    1    2    0    0 -0.39408078970E+03 -0.17225001528E+03 -0.25545897901E+04  0.27437986511E+04  0.90417493077E+03 0.  0.
         23    2    4    4    0    0 -0.29999795763E+03  0.34526594959E+03 -0.11316516341E+04  0.12240407213E+04  0.91830908648E+02 0.  0.
         23    2    4    4    0    0 -0.94082832071E+02 -0.51751596487E+03 -0.14229381560E+04  0.15197579298E+04  0.90756907821E+02 0.  0.
          2    1    3    3  502    0  0.16106846734E+03  0.60155687030E+02 -0.29909215621E+03  0.34498967486E+03  0.00000000000E+00 0. -1.
         -3    1    3    3    0  502  0.23301232235E+03  0.11209432825E+03 -0.28398901287E+03  0.38406983769E+03  0.00000000000E+00 0.  1.
         13    1    5    5    0    0 -0.67720699879E+01  0.32765480217E+02 -0.46054408838E+02  0.56924917208E+02  0.00000000000E+00 0.  1.
        -13    1    5    5    0    0 -0.29322588764E+03  0.31250046938E+03 -0.10855972253E+04  0.11671158041E+04  0.00000000000E+00 0. -1.
          1    1    6    6  503    0 -0.91987672993E+02 -0.47371180465E+03 -0.12165533649E+04  0.13087653325E+04  0.00000000000E+00 0. -1.
         -1    1    6    6    0  503 -0.20951590786E+01 -0.43804160220E+02 -0.20638479104E+03  0.21099259731E+03  0.00000000000E+00 0.  1.
<mgrwt>
<rscale>  0 0.14885445E+04</rscale>
<asrwt>0</asrwt>
<pdfrwt beam="1">  1        2 0.50850220E+00 0.14885445E+04</pdfrwt>
<pdfrwt beam="2">  1       -1 0.25783633E-01 0.14885445E+04</pdfrwt>
<totfact> 0.16347408E+01</totfact>
</mgrwt>
</event>
<event>
12    7  0.1729738E-007  0.1898873E+04  0.7818608E-02  0.8655417E-01
          2   -1    0    0  501    0  0.00000000000E+00  0.00000000000E+00  0.20293574678E+04  0.20293574678E+04  0.00000000000E+00 0. -1.
         -3   -1    0    0    0  501 -0.00000000000E+00 -0.00000000000E+00 -0.44419469200E+03  0.44419469200E+03  0.00000000000E+00 0.  1.
         24    2    1    2    0    0 -0.62007293134E+03 -0.93892438009E+02  0.10777391285E+04  0.12493977524E+04  0.78529513441E+02 0.  0.
        254    2    1    2    0    0  0.62007293134E+03  0.93892438009E+02  0.50742364731E+03  0.12241544074E+04  0.92074373486E+03 0.  0.
         23    2    4    4    0    0  0.18321432047E+03 -0.19299903160E+03 -0.19632361862E+03  0.34302816415E+03  0.91155058836E+02 0.  0.
         23    2    4    4    0    0  0.43685861087E+03  0.28689146961E+03  0.70374726593E+03  0.88112624328E+03  0.89280910994E+02 0.  0.
          4    1    3    3  502    0 -0.38901254813E+03 -0.26023963464E+02  0.70512841087E+03  0.80573822368E+03  0.00000000000E+00 0. -1.
         -3    1    3    3    0  502 -0.23106038321E+03 -0.67868474545E+02  0.37261071765E+03  0.44365952873E+03  0.00000000000E+00 0.  1.
         13    1    5    5    0    0  0.62256426714E+01 -0.85301653322E+01  0.99754438364E+01  0.14526934535E+02  0.00000000000E+00 0.  1.
        -13    1    5    5    0    0  0.17698867780E+03 -0.18446886627E+03 -0.20629906245E+03  0.32850122962E+03  0.00000000000E+00 0. -1.
          3    1    6    6  503    0  0.39533833088E+03  0.27033308254E+03  0.67618206934E+03  0.82861001821E+03  0.00000000000E+00 0. -1.
         -3    1    6    6    0  503  0.41520279989E+02  0.16558387067E+02  0.27565196590E+02  0.52516225071E+02  0.00000000000E+00 0.  1.
<mgrwt>
<rscale>  0 0.18988732E+04</rscale>
<asrwt>0</asrwt>
<pdfrwt beam="1">  1        2 0.31220884E+00 0.18988732E+04</pdfrwt>
<pdfrwt beam="2">  1       -3 0.68337646E-01 0.18988732E+04</pdfrwt>
<totfact> 0.79349573E+00</totfact>
</mgrwt>
</event>
<event>
12    7  0.1729738E-007  0.2022278E+04  0.7818608E-02  0.8596275E-01
          2   -1    0    0  501    0  0.00000000000E+00  0.00000000000E+00  0.87859217818E+03  0.87859217818E+03  0.00000000000E+00 0. -1.
         -1   -1    0    0    0  501 -0.00000000000E+00 -0.00000000000E+00 -0.11636827647E+04  0.11636827647E+04  0.00000000000E+00 0.  1.
         24    2    1    2    0    0 -0.52905976146E+03  0.45651324580E+03 -0.52670984970E+03  0.87883916649E+03  0.81402948408E+02 0.  0.
        254    2    1    2    0    0  0.52905976146E+03 -0.45651324580E+03  0.24161926314E+03  0.11634357764E+04  0.89827298901E+03 0.  0.
         23    2    4    4    0    0  0.47714814443E+03  0.16060378559E+03  0.85666089294E+02  0.51838007410E+03  0.88967941957E+02 0.  0.
         23    2    4    4    0    0  0.51911617028E+02 -0.61711703139E+03  0.15595317384E+03  0.64505570233E+03  0.90814207434E+02 0.  0.
          2    1    3    3  502    0 -0.36374096793E+03  0.33231677898E+03 -0.32672412826E+03  0.59117729095E+03  0.00000000000E+00 0. -1.
         -1    1    3    3    0  502 -0.16531879352E+03  0.12419646682E+03 -0.19998572145E+03  0.28766187555E+03  0.00000000000E+00 0.  1.
         13    1    5    5    0    0  0.14313439750E+03  0.41405674291E+02  0.66635819003E+02  0.16322444053E+03  0.00000000000E+00 0. -1.
        -13    1    5    5    0    0  0.33401374693E+03  0.11919811130E+03  0.19030270291E+02  0.35515563358E+03  0.00000000000E+00 0.  1.
          2    1    6    6  503    0  0.42533130111E+02 -0.10434896388E+03  0.19496989978E+02  0.11435867278E+03  0.00000000000E+00 0. -1.
         -2    1    6    6    0  503  0.93784869163E+01 -0.51276806750E+03  0.13645618386E+03  0.53069702956E+03  0.00000000000E+00 0.  1.
<mgrwt>
<rscale>  0 0.20222785E+04</rscale>
<asrwt>0</asrwt>
<pdfrwt beam="1">  1        2 0.13516803E+00 0.20222785E+04</pdfrwt>
<pdfrwt beam="2">  1       -1 0.17902812E+00 0.20222785E+04</pdfrwt>
<totfact> 0.67859640E+00</totfact>
</mgrwt>
</event>
<event>
12    7  0.1729738E-007  0.2843845E+04  0.7818608E-02  0.8289784E-01
         -1   -1    0    0    0  501 -0.00000000000E+00  0.00000000000E+00  0.12043854900E+04  0.12043854900E+04  0.00000000000E+00 0.  1.
          2   -1    0    0  501    0  0.00000000000E+00 -0.00000000000E+00 -0.16787513653E+04  0.16787513653E+04  0.00000000000E+00 0. -1.
         24    2    1    2    0    0  0.61990489683E+03 -0.86041810091E+03  0.49468612501E+03  0.11742248521E+04  0.97407656549E+02 0.  0.
        254    2    1    2    0    0 -0.61990489683E+03  0.86041810091E+03 -0.96905200035E+03  0.17089120032E+04  0.92559011756E+03 0.  0.
         23    2    4    4    0    0 -0.24969612871E+03  0.21040760256E+03 -0.88692205499E+03  0.94950792672E+03  0.91186925503E+02 0.  0.
         23    2    4    4    0    0 -0.37020876812E+03  0.65001049835E+03 -0.82129945363E+02  0.75940407645E+03  0.10188740570E+03 0.  0.
          2    1    3    3  502    0  0.19454930270E+03 -0.22411058923E+03  0.17683514724E+03  0.34546440726E+03  0.00000000000E+00 0. -1.
         -1    1    3    3    0  502  0.42535559413E+03 -0.63630751168E+03  0.31785097777E+03  0.82876044485E+03  0.00000000000E+00 0.  1.
         13    1    5    5    0    0 -0.10100179121E+03  0.14467698181E+03 -0.46240925211E+03  0.49492939631E+03  0.00000000000E+00 0. -1.
        -13    1    5    5    0    0 -0.14869433749E+03  0.65730620741E+02 -0.42451280288E+03  0.45457853041E+03  0.00000000000E+00 0.  1.
          1    1    6    6  503    0 -0.33210633900E+03  0.51953697253E+03 -0.90514712382E+02  0.62322243171E+03  0.00000000000E+00 0. -1.
         -1    1    6    6    0  503 -0.38102429115E+02  0.13047352582E+03  0.83847670189E+01  0.13618164474E+03  0.00000000000E+00 0.  1.
<mgrwt>
<rscale>  0 0.28438451E+04</rscale>
<asrwt>0</asrwt>
<pdfrwt beam="1">  1        2 0.25826944E+00 0.28438451E+04</pdfrwt>
<pdfrwt beam="2">  1       -1 0.18529008E+00 0.28438451E+04</pdfrwt>
<totfact> 0.18975499E+00</totfact>
</mgrwt>
</event>
<event>
12    7  0.1729738E-007  0.2088650E+04  0.7818608E-02  0.8566260E-01
          2   -1    0    0  501    0  0.00000000000E+00  0.00000000000E+00  0.10810909631E+04  0.10810909631E+04  0.00000000000E+00 0. -1.
         -1   -1    0    0    0  501 -0.00000000000E+00 -0.00000000000E+00 -0.10088095005E+04  0.10088095005E+04  0.00000000000E+00 0.  1.
         24    2    1    2    0    0 -0.78853661731E+03 -0.30353227207E+03 -0.24767828003E+02  0.84911856741E+03  0.80418027720E+02 0.  0.
        254    2    1    2    0    0  0.78853661731E+03  0.30353227207E+03  0.97049290656E+02  0.12407818962E+04  0.90343749756E+03 0.  0.
         23    2    4    4    0    0  0.74248194044E+03  0.77609694696E+02 -0.26906636779E+03  0.79831772799E+03  0.87245561306E+02 0.  0.
         23    2    4    4    0    0  0.46054676876E+02  0.22592257737E+03  0.36611565844E+03  0.44246416817E+03  0.92584126759E+02 0.  0.
          2    1    3    3  502    0 -0.41851984825E+01 -0.98849335235E+01  0.29831409670E+01  0.11141226464E+02  0.00000000000E+00 0. -1.
         -1    1    3    3    0  502 -0.78435141883E+03 -0.29364733854E+03 -0.27750968970E+02  0.83797734094E+03  0.00000000000E+00 0.  1.
         13    1    5    5    0    0  0.20420279652E+03 -0.11447565279E+02 -0.51233758365E+02  0.21084289614E+03  0.00000000000E+00 0. -1.
        -13    1    5    5    0    0  0.53827914392E+03  0.89057259975E+02 -0.21783260942E+03  0.58747483185E+03  0.00000000000E+00 0.  1.
          2    1    6    6  503    0 -0.20228468083E+02  0.34870835013E+02  0.30181438308E+02  0.50359559905E+02  0.00000000000E+00 0. -1.
         -2    1    6    6    0  503  0.66283144959E+02  0.19105174236E+03  0.33593422013E+03  0.39210460826E+03  0.00000000000E+00 0.  1.
<mgrwt>
<rscale>  0 0.20886501E+04</rscale>
<asrwt>0</asrwt>
<pdfrwt beam="1">  1        2 0.16632169E+00 0.20886501E+04</pdfrwt>
<pdfrwt beam="2">  1       -1 0.15520146E+00 0.20886501E+04</pdfrwt>
<totfact> 0.74871865E+00</totfact>
</mgrwt>
</event>
<event>
12    7  0.1729738E-007  0.1623671E+04  0.7818608E-02  0.8806137E-01
         -1   -1    0    0    0  501 -0.00000000000E+00  0.00000000000E+00  0.55722846549E+03  0.55722846549E+03  0.00000000000E+00 0.  1.
          2   -1    0    0  501    0  0.00000000000E+00 -0.00000000000E+00 -0.11827766080E+04  0.11827766080E+04  0.00000000000E+00 0. -1.
         24    2    1    2    0    0 -0.53138279259E+03 -0.74840741809E+02 -0.38139132714E+03  0.66308218681E+03  0.79055886239E+02 0.  0.
        254    2    1    2    0    0  0.53138279259E+03  0.74840741809E+02 -0.24415681537E+03  0.10769228867E+04  0.90121115420E+03 0.  0.
         23    2    4    4    0    0 -0.17468555621E+03 -0.12584581892E+03 -0.24282472521E+03  0.33707932705E+03  0.91139518701E+02 0.  0.
         23    2    4    4    0    0  0.70606834880E+03  0.20068656073E+03 -0.13320901687E+01  0.73984355962E+03  0.92515455044E+02 0.  0.
          2    1    3    3  502    0 -0.17507077209E+03 -0.39845331155E+02 -0.17026109970E+03  0.24743942233E+03  0.00000000000E+00 0. -1.
         -1    1    3    3    0  502 -0.35631202050E+03 -0.34995410654E+02 -0.21113022745E+03  0.41564276448E+03  0.00000000000E+00 0.  1.
         13    1    5    5    0    0 -0.51723434803E+02  0.58681983227E+01 -0.39119459664E+02  0.65115908838E+02  0.00000000000E+00 0. -1.
        -13    1    5    5    0    0 -0.12296212140E+03 -0.13171401724E+03 -0.20370526554E+03  0.27196341821E+03  0.00000000000E+00 0.  1.
          4    1    6    6  503    0  0.13131004230E+02  0.93631192999E+01  0.13186407253E+02  0.20832009297E+02  0.00000000000E+00 0. -1.
         -4    1    6    6    0  503  0.69293734457E+03  0.19132344143E+03 -0.14518497421E+02  0.71901155033E+03  0.00000000000E+00 0.  1.
<mgrwt>
<rscale>  0 0.16236709E+04</rscale>
<asrwt>0</asrwt>
<pdfrwt beam="1">  1        2 0.18196563E+00 0.16236709E+04</pdfrwt>
<pdfrwt beam="2">  1       -1 0.85727456E-01 0.16236709E+04</pdfrwt>
<totfact> 0.28458013E+01</totfact>
</mgrwt>
</event>
<event>
12    7  0.1729738E-007  0.1386036E+04  0.7818608E-02  0.8963989E-01
          2   -1    0    0  501    0  0.00000000000E+00  0.00000000000E+00  0.10548510207E+04  0.10548510207E+04  0.00000000000E+00 0. -1.
         -1   -1    0    0    0  501 -0.00000000000E+00 -0.00000000000E+00 -0.45529996703E+03  0.45529996703E+03  0.00000000000E+00 0.  1.
         24    2    1    2    0    0 -0.99988071794E+02 -0.15149855151E+03 -0.20970579089E+03  0.28824191467E+03  0.78469465565E+02 0.  0.
        254    2    1    2    0    0  0.99988071794E+02  0.15149855151E+03  0.80925684458E+03  0.12219090731E+04  0.89733812844E+03 0.  0.
         23    2    4    4    0    0  0.23491636595E+03  0.13386833208E+03 -0.97144991917E+02  0.30096238449E+03  0.89636923738E+02 0.  0.
         23    2    4    4    0    0 -0.13492829416E+03  0.17630219425E+02  0.90640183650E+03  0.92094668858E+03  0.89788890187E+02 0.  0.
          4    1    3    3  502    0 -0.74896391189E+02 -0.53110113839E+02 -0.13001304344E+03  0.15916515030E+03  0.00000000000E+00 0. -1.
         -1    1    3    3    0  502 -0.25091680606E+02 -0.98388437670E+02 -0.79692747449E+02  0.12907676436E+03  0.00000000000E+00 0.  1.
         13    1    5    5    0    0  0.14004912607E+03  0.10531632246E+03 -0.21974802093E+02  0.17660174806E+03  0.00000000000E+00 0. -1.
        -13    1    5    5    0    0  0.94867239881E+02  0.28552009624E+02 -0.75170189824E+02  0.12436063643E+03  0.00000000000E+00 0.  1.
          4    1    6    6  503    0  0.13513797421E+02  0.29655763424E+01  0.72216422050E+02  0.73529782928E+02  0.00000000000E+00 0.  1.
         -4    1    6    6    0  503 -0.14844209158E+03  0.14664643083E+02  0.83418541445E+03  0.84741690565E+03  0.00000000000E+00 0. -1.
<mgrwt>
<rscale>  0 0.13860355E+04</rscale>
<asrwt>0</asrwt>
<pdfrwt beam="1">  1        2 0.16228477E+00 0.13860355E+04</pdfrwt>
<pdfrwt beam="2">  1       -1 0.70046149E-01 0.13860355E+04</pdfrwt>
<totfact> 0.53233959E+01</totfact>
</mgrwt>
</event>
<event>
12    7  0.1729738E-007  0.1491809E+04  0.7818608E-02  0.8889918E-01
          2   -1    0    0  501    0  0.00000000000E+00  0.00000000000E+00  0.80321961945E+03  0.80321961945E+03  0.00000000000E+00 0. -1.
         -1   -1    0    0    0  501 -0.00000000000E+00 -0.00000000000E+00 -0.69267876855E+03  0.69267876855E+03  0.00000000000E+00 0.  1.
         24    2    1    2    0    0 -0.45696490793E+03 -0.95485291009E+02  0.89525732095E+02  0.48232012536E+03  0.81752545796E+02 0.  0.
        254    2    1    2    0    0  0.45696490793E+03  0.95485291009E+02  0.21015118805E+02  0.10135782626E+04  0.89942475584E+03 0.  0.
         23    2    4    4    0    0  0.13213159947E+03  0.47187649760E+03 -0.58478090758E+02  0.50168040858E+03  0.90207298466E+02 0.  0.
         23    2    4    4    0    0  0.32483330846E+03 -0.37639120659E+03  0.79493209563E+02  0.51189785406E+03  0.92375450987E+02 0.  0.
          4    1    3    3  502    0 -0.23110338497E+03 -0.20131924991E+02  0.74903686476E+02  0.24377167841E+03  0.00000000000E+00 0. -1.
         -3    1    3    3    0  502 -0.22586152296E+03 -0.75353366018E+02  0.14622045618E+02  0.23854844695E+03  0.00000000000E+00 0.  1.
         13    1    5    5    0    0  0.11964185908E+03  0.44292096228E+03 -0.30978984167E+02  0.45984002733E+03  0.00000000000E+00 0. -1.
        -13    1    5    5    0    0  0.12489740391E+02  0.28955535312E+02 -0.27499106591E+02  0.41840381254E+02  0.00000000000E+00 0.  1.
          4    1    6    6  503    0  0.62258398758E+01  0.45646594928E+01  0.61802290407E+01  0.98890054828E+01  0.00000000000E+00 0.  1.
         -4    1    6    6    0  503  0.31860746858E+03 -0.38095586608E+03  0.73312980522E+02  0.50200884858E+03  0.00000000000E+00 0. -1.
<mgrwt>
<rscale>  0 0.14918085E+04</rscale>
<asrwt>0</asrwt>
<pdfrwt beam="1">  1        2 0.12357225E+00 0.14918085E+04</pdfrwt>
<pdfrwt beam="2">  1       -1 0.10656596E+00 0.14918085E+04</pdfrwt>
<totfact> 0.31111829E+01</totfact>
</mgrwt>
</event>
<event>
12    7  0.1729738E-007  0.1297492E+04  0.7818608E-02  0.9031557E-01
         -1   -1    0    0    0  501 -0.00000000000E+00  0.00000000000E+00  0.30398678120E+03  0.30398678120E+03  0.00000000000E+00 0.  1.
          2   -1    0    0  501    0  0.00000000000E+00 -0.00000000000E+00 -0.13845046071E+04  0.13845046071E+04  0.00000000000E+00 0. -1.
         24    2    1    2    0    0 -0.29336307311E+03 -0.16856908947E+03 -0.38526197030E+03  0.51897301096E+03  0.80179609411E+02 0.  0.
        254    2    1    2    0    0  0.29336307311E+03  0.16856908947E+03 -0.69525585560E+03  0.11695183773E+04  0.87744806090E+03 0.  0.
         23    2    4    4    0    0  0.25312988600E+03  0.88935860841E+02 -0.89149554651E+03  0.93539351597E+03  0.90622258466E+02 0.  0.
         23    2    4    4    0    0  0.40233187107E+02  0.79633228625E+02  0.19623969092E+03  0.23412486136E+03  0.91346997598E+02 0.  0.
          2    1    3    3  502    0 -0.18777811038E+03 -0.11363385385E+03 -0.30360997312E+03  0.37463620654E+03  0.00000000000E+00 0. -1.
         -1    1    3    3    0  502 -0.10558496273E+03 -0.54935235618E+02 -0.81651997181E+02  0.14433680442E+03  0.00000000000E+00 0.  1.
         13    1    5    5    0    0  0.80292783089E+02  0.18032704371E+02 -0.42477395917E+03  0.43267196099E+03  0.00000000000E+00 0. -1.
        -13    1    5    5    0    0  0.17283710291E+03  0.70903156470E+02 -0.46672158735E+03  0.50272155498E+03  0.00000000000E+00 0.  1.
          2    1    6    6  503    0  0.43417986179E+02 -0.40190936626E+01  0.75868974933E+02  0.87506434021E+02  0.00000000000E+00 0. -1.
         -2    1    6    6    0  503 -0.31847990712E+01  0.83652322287E+02  0.12037071598E+03  0.14661842734E+03  0.00000000000E+00 0.  1.
<mgrwt>
<rscale>  0 0.12974916E+04</rscale>
<asrwt>0</asrwt>
<pdfrwt beam="1">  1        2 0.21300071E+00 0.12974916E+04</pdfrwt>
<pdfrwt beam="2">  1       -1 0.46767197E-01 0.12974916E+04</pdfrwt>
<totfact> 0.75158614E+01</totfact>
</mgrwt>
</event>
<event>
12    7  0.1729738E-007  0.1560930E+04  0.7818608E-02  0.8844916E-01
         -1   -1    0    0    0  501 -0.00000000000E+00  0.00000000000E+00  0.30699376583E+03  0.30699376583E+03  0.00000000000E+00 0.  1.
          2   -1    0    0  501    0  0.00000000000E+00 -0.00000000000E+00 -0.19841635229E+04  0.19841635229E+04  0.00000000000E+00 0. -1.
         24    2    1    2    0    0  0.20612497829E+03  0.11111524507E+02 -0.11935155934E+04  0.12139795623E+04  0.81583904019E+02 0.  0.
        254    2    1    2    0    0 -0.20612497829E+03 -0.11111524507E+02 -0.48365416365E+03  0.10771777264E+04  0.94009549066E+03 0.  0.
         23    2    4    4    0    0 -0.23203160291E+03 -0.79446796676E+02 -0.74610865108E+03  0.79061910702E+03  0.90829482670E+02 0.  0.
         23    2    4    4    0    0  0.25906624616E+02  0.68335272170E+02  0.26245448743E+03  0.28655861937E+03  0.88840428533E+02 0.  0.
          4    1    3    3  502    0  0.75836028222E+02 -0.23462412244E+02 -0.60725129855E+03  0.61241793536E+03  0.00000000000E+00 0. -1.
         -3    1    3    3    0  502  0.13028895007E+03  0.34573936751E+02 -0.58626429484E+03  0.60156162695E+03  0.00000000000E+00 0.  1.
         13    1    5    5    0    0 -0.20432485452E+03 -0.39772979739E+02 -0.53579733237E+03  0.57481241937E+03  0.00000000000E+00 0.  1.
        -13    1    5    5    0    0 -0.27706748393E+02 -0.39673816937E+02 -0.21031131871E+03  0.21580668765E+03  0.00000000000E+00 0. -1.
          1    1    6    6  503    0 -0.26184860181E+01  0.82306478364E+02  0.20476179031E+03  0.22070025741E+03  0.00000000000E+00 0. -1.
         -1    1    6    6    0  503  0.28525110634E+02 -0.13971206194E+02  0.57692697120E+02  0.65858361961E+02  0.00000000000E+00 0.  1.
<mgrwt>
<rscale>  0 0.15609303E+04</rscale>
<asrwt>0</asrwt>
<pdfrwt beam="1">  1        2 0.30525592E+00 0.15609303E+04</pdfrwt>
<pdfrwt beam="2">  1       -1 0.47229811E-01 0.15609303E+04</pdfrwt>
<totfact> 0.33412810E+01</totfact>
</mgrwt>
</event>
<event>
12    7  0.1729738E-007  0.2885031E+04  0.7818608E-02  0.8277345E-01
          2   -1    0    0  501    0  0.00000000000E+00  0.00000000000E+00  0.14733485180E+04  0.14733485180E+04  0.00000000000E+00 0. -1.
         -1   -1    0    0    0  501 -0.00000000000E+00 -0.00000000000E+00 -0.14123277073E+04  0.14123277073E+04  0.00000000000E+00 0.  1.
         24    2    1    2    0    0  0.52657352564E+03  0.12020616906E+04  0.27102993305E+03  0.13423678408E+04  0.79134123048E+02 0.  0.
        254    2    1    2    0    0 -0.52657352564E+03 -0.12020616906E+04 -0.21000912231E+03  0.15433083845E+04  0.78451574371E+03 0.  0.
         23    2    4    4    0    0 -0.25724345987E+03 -0.11811029412E+04 -0.28951340562E+03  0.12455491939E+04  0.79977665146E+02 0.  0.
         23    2    4    4    0    0 -0.26933006576E+03 -0.20958749429E+02  0.79504283310E+02  0.29775919061E+03  0.96755625283E+02 0.  0.
          4    1    3    3  502    0  0.18892401190E+03  0.42542065240E+03  0.57687750433E+02  0.46904465705E+03  0.00000000000E+00 0. -1.
         -3    1    3    3    0  502  0.33764951374E+03  0.77664103825E+03  0.21334218262E+03  0.87332318377E+03  0.00000000000E+00 0.  1.
         13    1    5    5    0    0 -0.16682627914E+03 -0.76690490485E+03 -0.22703348215E+03  0.81701795728E+03  0.00000000000E+00 0.  1.
        -13    1    5    5    0    0 -0.90417180735E+02 -0.41419803636E+03 -0.62479923476E+02  0.42853123660E+03  0.00000000000E+00 0. -1.
          3    1    6    6  503    0 -0.12112129347E+03  0.21709816813E+02 -0.25160008589E+01  0.12307726897E+03  0.00000000000E+00 0. -1.
         -3    1    6    6    0  503 -0.14820877230E+03 -0.42668566242E+02  0.82020284168E+02  0.17468192163E+03  0.00000000000E+00 0.  1.
<mgrwt>
<rscale>  0 0.28850310E+04</rscale>
<asrwt>0</asrwt>
<pdfrwt beam="1">  1        2 0.22666900E+00 0.28850310E+04</pdfrwt>
<pdfrwt beam="2">  1       -1 0.21728118E+00 0.28850310E+04</pdfrwt>
<totfact> 0.14844227E+00</totfact>
</mgrwt>
</event>
<event>
12    7  0.1729738E-007  0.1437688E+04  0.7818608E-02  0.8926981E-01
          2   -1    0    0  501    0  0.00000000000E+00  0.00000000000E+00  0.20652291376E+04  0.20652291376E+04  0.00000000000E+00 0. -1.
         -1   -1    0    0    0  501 -0.00000000000E+00 -0.00000000000E+00 -0.25020800988E+03  0.25020800988E+03  0.00000000000E+00 0.  1.
         24    2    1    2    0    0 -0.86493770188E+01 -0.22630878081E+03 -0.41526605588E+02  0.24335158716E+03  0.78772203261E+02 0.  0.
        254    2    1    2    0    0  0.86493770188E+01  0.22630878081E+03  0.18565477333E+04  0.20720855603E+04  0.89189607424E+03 0.  0.
         23    2    4    4    0    0 -0.18518371401E+03  0.51819985839E+03  0.10947913467E+04  0.12288007232E+04  0.92514989174E+02 0.  0.
         23    2    4    4    0    0  0.19383309102E+03 -0.29189107759E+03  0.76175638658E+03  0.84328483715E+03  0.89915825742E+02 0.  0.
          2    1    3    3  502    0 -0.34135412207E+02 -0.13894775384E+03  0.57799518687E+00  0.14308053236E+03  0.00000000000E+00 0. -1.
         -1    1    3    3    0  502  0.25486035188E+02 -0.87361026970E+02 -0.42104600775E+02  0.10027105479E+03  0.00000000000E+00 0.  1.
         13    1    5    5    0    0 -0.16881542235E+03  0.36287371357E+03  0.74413808971E+03  0.84493637357E+03  0.00000000000E+00 0. -1.
        -13    1    5    5    0    0 -0.16368291655E+02  0.15532614482E+03  0.35065325701E+03  0.38386434959E+03  0.00000000000E+00 0.  1.
          2    1    6    6  503    0  0.19357702433E+03 -0.24881426437E+03  0.62665717725E+03  0.70148401286E+03  0.00000000000E+00 0. -1.
         -2    1    6    6    0  503  0.25606669664E+00 -0.43076813219E+02  0.13509920932E+03  0.14180082428E+03  0.00000000000E+00 0.  1.
<mgrwt>
<rscale>  0 0.14376882E+04</rscale>
<asrwt>0</asrwt>
<pdfrwt beam="1">  1        2 0.31772755E+00 0.14376882E+04</pdfrwt>
<pdfrwt beam="2">  1       -1 0.38493541E-01 0.14376882E+04</pdfrwt>
<totfact> 0.44420680E+01</totfact>
</mgrwt>
</event>
<event>
12    7  0.1729738E-007  0.1044231E+04  0.7818608E-02  0.9261321E-01
         -1   -1    0    0    0  501 -0.00000000000E+00  0.00000000000E+00  0.10418699875E+04  0.10418699875E+04  0.00000000000E+00 0.  1.
          2   -1    0    0  501    0  0.00000000000E+00 -0.00000000000E+00 -0.26164929985E+03  0.26164929985E+03  0.00000000000E+00 0. -1.
         24    2    1    2    0    0  0.63249139422E+02 -0.76293330511E+02  0.91716543790E+02  0.15933582147E+03  0.84586368172E+02 0.  0.
        254    2    1    2    0    0 -0.63249139422E+02  0.76293330511E+02  0.68850414387E+03  0.11441834659E+04  0.90845843139E+03 0.  0.
         23    2    4    4    0    0  0.29828118013E+03  0.70500048031E+02 -0.43413368969E+02  0.32283569527E+03  0.91631033709E+02 0.  0.
         23    2    4    4    0    0 -0.36153031956E+03  0.57932824807E+01  0.73191751284E+03  0.82134777062E+03  0.90394582931E+02 0.  0.
          4    1    3    3  502    0  0.68824615863E+02 -0.85094386211E+02  0.57623670725E+02  0.12368657866E+03  0.00000000000E+00 0. -1.
         -3    1    3    3    0  502 -0.55754764404E+01  0.88010556997E+01  0.34092873065E+02  0.35649242808E+02  0.00000000000E+00 0.  1.
         13    1    5    5    0    0  0.15111746415E+03  0.26705117370E+02  0.23679124418E+02  0.15527508557E+03  0.00000000000E+00 0.  1.
        -13    1    5    5    0    0  0.14716371599E+03  0.43794930661E+02 -0.67092493387E+02  0.16756060970E+03  0.00000000000E+00 0. -1.
          1    1    6    6  503    0 -0.21587648319E+03  0.32447764057E+02  0.50776641181E+03  0.55270448012E+03  0.00000000000E+00 0. -1.
         -1    1    6    6    0  503 -0.14565383637E+03 -0.26654481576E+02  0.22415110103E+03  0.26864329050E+03  0.00000000000E+00 0.  1.
<mgrwt>
<rscale>  0 0.10442309E+04</rscale>
<asrwt>0</asrwt>
<pdfrwt beam="1">  1        2 0.40253739E-01 0.10442309E+04</pdfrwt>
<pdfrwt beam="2">  1       -1 0.16028769E+00 0.10442309E+04</pdfrwt>
<totfact> 0.42488649E+01</totfact>
</mgrwt>
</event>
<event>
12    7  0.1729738E-007  0.1715722E+04  0.7818608E-02  0.8752448E-01
          2   -1    0    0  501    0  0.00000000000E+00  0.00000000000E+00  0.17785947274E+04  0.17785947274E+04  0.00000000000E+00 0. -1.
         -1   -1    0    0    0  501 -0.00000000000E+00 -0.00000000000E+00 -0.41376817025E+03  0.41376817025E+03  0.00000000000E+00 0.  1.
         24    2    1    2    0    0  0.31352037275E+03 -0.75000359635E+02  0.11701015455E+04  0.12185025744E+04  0.10812408989E+03 0.  0.
        254    2    1    2    0    0 -0.31352037275E+03  0.75000359635E+02  0.19472501164E+03  0.97386032330E+03  0.89809020765E+03 0.  0.
         23    2    4    4    0    0 -0.25596640901E+03 -0.39008540216E+03  0.77498405411E+02  0.48170549207E+03  0.91371520322E+02 0.  0.
         23    2    4    4    0    0 -0.57553963736E+02  0.46508576180E+03  0.11722660623E+03  0.49215483123E+03  0.94112040314E+02 0.  0.
          2    1    3    3  502    0  0.19417575320E+03 -0.60377871348E+02  0.90257942864E+03  0.92520232138E+03  0.00000000000E+00 0. -1.
         -1    1    3    3    0  502  0.11934461955E+03 -0.14622488287E+02  0.26752211690E+03  0.29330025300E+03  0.00000000000E+00 0.  1.
         13    1    5    5    0    0 -0.11776597845E+03 -0.22005896581E+03  0.88976528588E+00  0.24959079669E+03  0.00000000000E+00 0.  1.
        -13    1    5    5    0    0 -0.13820043056E+03 -0.17002643636E+03  0.76608640125E+02  0.23211469537E+03  0.00000000000E+00 0. -1.
          3    1    6    6  503    0 -0.38318496056E+02  0.10110088198E+03 -0.35382540246E+01  0.10817677532E+03  0.00000000000E+00 0. -1.
         -3    1    6    6    0  503 -0.19235467680E+02  0.36398487982E+03  0.12076486025E+03  0.38397805591E+03  0.00000000000E+00 0.  1.
<mgrwt>
<rscale>  0 0.17157225E+04</rscale>
<asrwt>0</asrwt>
<pdfrwt beam="1">  1        2 0.27362995E+00 0.17157225E+04</pdfrwt>
<pdfrwt beam="2">  1       -1 0.63656642E-01 0.17157225E+04</pdfrwt>
<totfact> 0.24026958E+01</totfact>
</mgrwt>
</event>
<event>
12    7  0.1729738E-007  0.2205024E+04  0.7818608E-02  0.8516340E-01
          2   -1    0    0  501    0  0.00000000000E+00  0.00000000000E+00  0.13426170864E+04  0.13426170864E+04  0.00000000000E+00 0. -1.
         -1   -1    0    0    0  501 -0.00000000000E+00 -0.00000000000E+00 -0.90534562014E+03  0.90534562014E+03  0.00000000000E+00 0.  1.
         24    2    1    2    0    0 -0.12626064780E+03  0.70703629946E+03 -0.39824111845E+03  0.82417216542E+03  0.69438389156E+02 0.  0.
        254    2    1    2    0    0  0.12626064780E+03 -0.70703629946E+03  0.83551258474E+03  0.14237905412E+04  0.90180715559E+03 0.  0.
         23    2    4    4    0    0 -0.30164869517E+03 -0.57463485769E+03  0.67266837206E+03  0.93929444172E+03  0.92704662796E+02 0.  0.
         23    2    4    4    0    0  0.42790934297E+03 -0.13240144177E+03  0.16284421267E+03  0.48449609943E+03  0.87072872767E+02 0.  0.
          2    1    3    3  502    0 -0.69367544064E+02  0.48060855114E+03 -0.30066573262E+03  0.57113598939E+03  0.00000000000E+00 0. -1.
         -1    1    3    3    0  502 -0.56893103736E+02  0.22642774832E+03 -0.97575385832E+02  0.25303617604E+03  0.00000000000E+00 0.  1.
         13    1    5    5    0    0 -0.19276131064E+03 -0.45158737325E+03  0.49219934296E+03  0.69523253072E+03  0.00000000000E+00 0. -1.
        -13    1    5    5    0    0 -0.10888738453E+03 -0.12304748444E+03  0.18046902910E+03  0.24406191100E+03  0.00000000000E+00 0.  1.
          3    1    6    6  503    0  0.14390083472E+03 -0.50581885805E+01  0.36229759461E+02  0.14847771205E+03  0.00000000000E+00 0. -1.
         -3    1    6    6    0  503  0.28400850825E+03 -0.12734325319E+03  0.12661445321E+03  0.33601838738E+03  0.00000000000E+00 0.  1.
<mgrwt>
<rscale>  0 0.22050238E+04</rscale>
<asrwt>0</asrwt>
<pdfrwt beam="1">  1        2 0.20655647E+00 0.22050238E+04</pdfrwt>
<pdfrwt beam="2">  1       -1 0.13928394E+00 0.22050238E+04</pdfrwt>
<totfact> 0.69073756E+00</totfact>
</mgrwt>
</event>
<event>
12    7  0.1729738E-007  0.2380088E+04  0.7818608E-02  0.8446996E-01
         -1   -1    0    0    0  501 -0.00000000000E+00  0.00000000000E+00  0.51037236945E+03  0.51037236945E+03  0.00000000000E+00 0.  1.
          2   -1    0    0  501    0  0.00000000000E+00 -0.00000000000E+00 -0.27748455380E+04  0.27748455380E+04  0.00000000000E+00 0. -1.
         24    2    1    2    0    0  0.87295483544E+03  0.33805467536E+03 -0.41121953722E+03  0.10255890995E+04  0.80002406204E+02 0.  0.
        254    2    1    2    0    0 -0.87295483544E+03 -0.33805467536E+03 -0.18532536314E+04  0.22596288080E+04  0.89165140014E+03 0.  0.
         23    2    4    4    0    0 -0.40482536671E+03 -0.28749353311E+03 -0.20847591369E+03  0.54645697281E+03  0.92827298949E+02 0.  0.
         23    2    4    4    0    0 -0.46812946873E+03 -0.50561142250E+02 -0.16447777177E+04  0.17131718352E+04  0.89232099659E+02 0.  0.
          4    1    3    3  502    0  0.79006669727E+03  0.29514251178E+03 -0.34541462474E+03  0.91138671890E+03  0.00000000000E+00 0. -1.
         -3    1    3    3    0  502  0.82888138171E+02  0.42912163579E+02 -0.65804912478E+02  0.11420238062E+03  0.00000000000E+00 0.  1.
         13    1    5    5    0    0 -0.36834699146E+03 -0.25326643081E+03 -0.21496266493E+03  0.49601646990E+03  0.00000000000E+00 0. -1.
        -13    1    5    5    0    0 -0.36478375246E+02 -0.34227102304E+02  0.64867512355E+01  0.50440502915E+02  0.00000000000E+00 0.  1.
          3    1    6    6  503    0 -0.25241756717E+02  0.90352569124E+01 -0.17239192570E+03  0.17446420319E+03  0.00000000000E+00 0. -1.
         -3    1    6    6    0  503 -0.44288771202E+03 -0.59596399163E+02 -0.14723857920E+04  0.15387076320E+04  0.00000000000E+00 0.  1.
<mgrwt>
<rscale>  0 0.23800878E+04</rscale>
<asrwt>0</asrwt>
<pdfrwt beam="1">  1        2 0.42689931E+00 0.23800878E+04</pdfrwt>
<pdfrwt beam="2">  1       -1 0.78518826E-01 0.23800878E+04</pdfrwt>
<totfact> 0.39832500E+00</totfact>
</mgrwt>
</event>
<event>
12    7  0.1729738E-007  0.1609936E+04  0.7818608E-02  0.8814467E-01
          2   -1    0    0  501    0  0.00000000000E+00  0.00000000000E+00  0.35338703312E+03  0.35338703312E+03  0.00000000000E+00 0. -1.
         -1   -1    0    0    0  501 -0.00000000000E+00 -0.00000000000E+00 -0.18336086923E+04  0.18336086923E+04  0.00000000000E+00 0.  1.
         24    2    1    2    0    0  0.57256816061E+02  0.43411379952E+02  0.22973090015E+03  0.25322323468E+03  0.78630968463E+02 0.  0.
        254    2    1    2    0    0 -0.57256816061E+02 -0.43411379952E+02 -0.17099525594E+04  0.19337724908E+04  0.90020853133E+03 0.  0.
         23    2    4    4    0    0  0.11812102565E+03 -0.16807686084E+03 -0.17240125719E+02  0.22498238888E+03  0.90096867428E+02 0.  0.
         23    2    4    4    0    0 -0.17537784171E+03  0.12466548089E+03 -0.16927124337E+04  0.17087901019E+04  0.91593448347E+02 0.  0.
          2    1    3    3  502    0  0.29130320873E+02  0.62942235380E+02  0.17947886772E+03  0.19241352485E+03  0.00000000000E+00 0. -1.
         -1    1    3    3    0  502  0.28126495188E+02 -0.19530855428E+02  0.50252032436E+02  0.60809709827E+02  0.00000000000E+00 0.  1.
         13    1    5    5    0    0  0.44527862925E+02 -0.10237248178E+03 -0.48177617062E+02  0.12158921987E+03  0.00000000000E+00 0.  1.
        -13    1    5    5    0    0  0.73593162728E+02 -0.65704379067E+02  0.30937491343E+02  0.10339316902E+03  0.00000000000E+00 0. -1.
          1    1    6    6  503    0 -0.17978730627E+03  0.12990111345E+03 -0.15364325440E+04  0.15523603760E+04  0.00000000000E+00 0. -1.
         -1    1    6    6    0  503  0.44094645553E+01 -0.52356325534E+01 -0.15627988968E+03  0.15642972590E+03  0.00000000000E+00 0.  1.
<mgrwt>
<rscale>  0 0.16099361E+04</rscale>
<asrwt>0</asrwt>
<pdfrwt beam="1">  1        2 0.54367235E-01 0.16099361E+04</pdfrwt>
<pdfrwt beam="2">  1       -1 0.28209365E+00 0.16099361E+04</pdfrwt>
<totfact> 0.43293882E+00</totfact>
</mgrwt>
</event>
<event>
12    7  0.1729738E-007  0.2966427E+04  0.7818608E-02  0.8253383E-01
          2   -1    0    0  501    0  0.00000000000E+00  0.00000000000E+00  0.16954687251E+04  0.16954687251E+04  0.00000000000E+00 0. -1.
         -1   -1    0    0    0  501 -0.00000000000E+00 -0.00000000000E+00 -0.12975307909E+04  0.12975307909E+04  0.00000000000E+00 0.  1.
         24    2    1    2    0    0  0.12381067304E+04 -0.19776296684E+03 -0.31825559184E+03  0.12962310224E+04  0.83125055624E+02 0.  0.
        254    2    1    2    0    0 -0.12381067304E+04  0.19776296684E+03  0.71619352605E+03  0.16967684936E+04  0.89110700100E+03 0.  0.
         23    2    4    4    0    0 -0.12578440196E+04  0.32443311829E+03  0.79094467721E+03  0.15235961063E+04  0.91231501485E+02 0.  0.
         23    2    4    4    0    0  0.19737289211E+02 -0.12667015145E+03 -0.74751151155E+02  0.17317238730E+03  0.89252749364E+02 0.  0.
          4    1    3    3  502    0  0.25393897307E+02 -0.16494967593E+02 -0.53389544259E+01  0.30747982222E+02  0.00000000000E+00 0. -1.
         -3    1    3    3    0  502  0.12127128331E+04 -0.18126799924E+03 -0.31291663741E+03  0.12654830402E+04  0.00000000000E+00 0.  1.
         13    1    5    5    0    0 -0.81763528462E+01  0.96753900799E+01  0.27275000702E+01  0.12957822954E+02  0.00000000000E+00 0. -1.
        -13    1    5    5    0    0 -0.12496676667E+04  0.31475772821E+03  0.78821717714E+03  0.15106382833E+04  0.00000000000E+00 0.  1.
          1    1    6    6  503    0  0.68614416076E+01 -0.10048065002E+03 -0.88550705941E+01  0.10110317841E+03  0.00000000000E+00 0. -1.
         -1    1    6    6    0  503  0.12875847603E+02 -0.26189501436E+02 -0.65896080560E+02  0.72069208891E+02  0.00000000000E+00 0.  1.
<mgrwt>
<rscale>  0 0.29664274E+04</rscale>
<asrwt>0</asrwt>
<pdfrwt beam="1">  1        2 0.26084134E+00 0.29664274E+04</pdfrwt>
<pdfrwt beam="2">  1       -1 0.19962012E+00 0.29664274E+04</pdfrwt>
<totfact> 0.14593267E+00</totfact>
</mgrwt>
</event>
<event>
12    7  0.1729738E-007  0.1546159E+04  0.7818608E-02  0.8854325E-01
         -1   -1    0    0    0  501 -0.00000000000E+00  0.00000000000E+00  0.54844070056E+03  0.54844070056E+03  0.00000000000E+00 0.  1.
          2   -1    0    0  501    0  0.00000000000E+00 -0.00000000000E+00 -0.10897292484E+04  0.10897292484E+04  0.00000000000E+00 0. -1.
         24    2    1    2    0    0 -0.14862762551E+03 -0.22012400230E+03 -0.64297096664E+03  0.70028857572E+03  0.80297433863E+02 0.  0.
        254    2    1    2    0    0  0.14862762551E+03  0.22012400230E+03  0.10168241885E+03  0.93788137321E+03  0.89372110216E+03 0.  0.
         23    2    4    4    0    0 -0.12223339042E+03 -0.30126341473E+03  0.25315101666E+02  0.33852936904E+03  0.90888021999E+02 0.  0.
         23    2    4    4    0    0  0.27086101593E+03  0.52138741703E+03  0.76367317182E+02  0.59935200416E+03  0.90445172196E+02 0.  0.
          2    1    3    3  502    0 -0.14638794606E+03 -0.17243978489E+03 -0.56831323578E+03  0.61167380533E+03  0.00000000000E+00 0. -1.
         -1    1    3    3    0  502 -0.22396794527E+01 -0.47684217402E+02 -0.74657730860E+02  0.88614770385E+02  0.00000000000E+00 0.  1.
         13    1    5    5    0    0 -0.11490240355E+03 -0.30524270613E+03  0.16763546442E+02  0.32658335610E+03  0.00000000000E+00 0. -1.
        -13    1    5    5    0    0 -0.73309868734E+01  0.39792914027E+01  0.85515552236E+01  0.11946012948E+02  0.00000000000E+00 0.  1.
          2    1    6    6  503    0  0.24925608555E+03  0.46603828571E+03  0.95219077496E+02  0.53701671543E+03  0.00000000000E+00 0. -1.
         -2    1    6    6    0  503  0.21604930377E+02  0.55349131323E+02 -0.18851760314E+02  0.62335288736E+02  0.00000000000E+00 0.  1.
<mgrwt>
<rscale>  0 0.15461589E+04</rscale>
<asrwt>0</asrwt>
<pdfrwt beam="1">  1        2 0.16765065E+00 0.15461589E+04</pdfrwt>
<pdfrwt beam="2">  1       -1 0.84375492E-01 0.15461589E+04</pdfrwt>
<totfact> 0.33782926E+01</totfact>
</mgrwt>
</event>
<event>
12    7  0.1729738E-007  0.1621185E+04  0.7818608E-02  0.8807638E-01
          2   -1    0    0  501    0  0.00000000000E+00  0.00000000000E+00  0.73552808844E+03  0.73552808844E+03  0.00000000000E+00 0. -1.
         -1   -1    0    0    0  501 -0.00000000000E+00 -0.00000000000E+00 -0.89331795469E+03  0.89331795469E+03  0.00000000000E+00 0.  1.
         24    2    1    2    0    0  0.12152524517E+03  0.50607871968E+03  0.14746805605E+03  0.54658596328E+03  0.78264500112E+02 0.  0.
        254    2    1    2    0    0 -0.12152524517E+03 -0.50607871968E+03 -0.30525792230E+03  0.10822600799E+04  0.89845446495E+03 0.  0.
         23    2    4    4    0    0  0.33546083241E+03 -0.40798621425E+03 -0.38675865801E+02  0.53729712504E+03  0.90585080876E+02 0.  0.
         23    2    4    4    0    0 -0.45698607758E+03 -0.98092505434E+02 -0.26658205650E+03  0.54496295482E+03  0.86372533555E+02 0.  0.
          4    1    3    3  502    0  0.11198200903E+03  0.38350806651E+03  0.84116564806E+02  0.40828177023E+03  0.00000000000E+00 0. -1.
         -3    1    3    3    0  502  0.95432361388E+01  0.12257065317E+03  0.63351491243E+02  0.13830419306E+03  0.00000000000E+00 0.  1.
         13    1    5    5    0    0  0.31960250250E+03 -0.37742887793E+03 -0.57766534659E+02  0.49793100930E+03  0.00000000000E+00 0. -1.
        -13    1    5    5    0    0  0.15858329916E+02 -0.30557336321E+02  0.19090668858E+02  0.39366115736E+02  0.00000000000E+00 0.  1.
          2    1    6    6  503    0 -0.45006521859E+03 -0.10784160755E+03 -0.25543471606E+03  0.52861650322E+03  0.00000000000E+00 0. -1.
         -2    1    6    6    0  503 -0.69208589873E+01  0.97491021117E+01 -0.11147340435E+02  0.16346451599E+02  0.00000000000E+00 0.  1.
<mgrwt>
<rscale>  0 0.16211853E+04</rscale>
<asrwt>0</asrwt>
<pdfrwt beam="1">  1        2 0.11315817E+00 0.16211853E+04</pdfrwt>
<pdfrwt beam="2">  1       -1 0.13743353E+00 0.16211853E+04</pdfrwt>
<totfact> 0.18497576E+01</totfact>
</mgrwt>
</event>
<event>
12    7  0.1729738E-007  0.1456666E+04  0.7818608E-02  0.8913792E-01
          2   -1    0    0  501    0  0.00000000000E+00  0.00000000000E+00  0.20691018867E+04  0.20691018867E+04  0.00000000000E+00 0. -1.
         -1   -1    0    0    0  501 -0.00000000000E+00 -0.00000000000E+00 -0.25637660155E+03  0.25637660155E+03  0.00000000000E+00 0.  1.
         24    2    1    2    0    0  0.26872454243E+03  0.11642642902E+03  0.25472072452E+02  0.30321436770E+03  0.74311057222E+02 0.  0.
        254    2    1    2    0    0 -0.26872454243E+03 -0.11642642902E+03  0.17872532127E+04  0.20222641206E+04  0.89972781100E+03 0.  0.
         23    2    4    4    0    0 -0.58519396313E+03 -0.87834043769E+02  0.13261716082E+04  0.14547661022E+04  0.86293011981E+02 0.  0.
         23    2    4    4    0    0  0.31646942070E+03 -0.28592385251E+02  0.46108160449E+03  0.56749801836E+03  0.92126739440E+02 0.  0.
          2    1    3    3  502    0  0.12049937630E+03  0.78989159835E+02  0.40316468777E+02  0.14961552297E+03  0.00000000000E+00 0. -1.
         -1    1    3    3    0  502  0.14822516614E+03  0.37437269186E+02 -0.14844396326E+02  0.15359884473E+03  0.00000000000E+00 0.  1.
         13    1    5    5    0    0 -0.41512294669E+03 -0.91187175931E+02  0.87984242382E+03  0.97712069504E+03  0.00000000000E+00 0. -1.
        -13    1    5    5    0    0 -0.17007101644E+03  0.33531321617E+01  0.44632918441E+03  0.47764540716E+03  0.00000000000E+00 0.  1.
          4    1    6    6  503    0  0.23921167169E+03 -0.30055791916E+00  0.39579348519E+03  0.46246599564E+03  0.00000000000E+00 0. -1.
         -4    1    6    6    0  503  0.77257749008E+02 -0.28291827332E+02  0.65288119299E+02  0.10503202272E+03  0.00000000000E+00 0.  1.
<mgrwt>
<rscale>  0 0.14566665E+04</rscale>
<asrwt>0</asrwt>
<pdfrwt beam="1">  1        2 0.31832336E+00 0.14566665E+04</pdfrwt>
<pdfrwt beam="2">  1       -1 0.39442555E-01 0.14566665E+04</pdfrwt>
<totfact> 0.42218109E+01</totfact>
</mgrwt>
</event>
<event>
12    7  0.1729738E-007  0.2229851E+04  0.7818608E-02  0.8506105E-01
          2   -1    0    0  501    0  0.00000000000E+00  0.00000000000E+00  0.14255282363E+04  0.14255282363E+04  0.00000000000E+00 0. -1.
         -1   -1    0    0    0  501 -0.00000000000E+00 -0.00000000000E+00 -0.87199850463E+03  0.87199850463E+03  0.00000000000E+00 0.  1.
         24    2    1    2    0    0 -0.79684563322E+03 -0.27162781342E+03 -0.17181548295E+03  0.86319915075E+03  0.82750114627E+02 0.  0.
        254    2    1    2    0    0  0.79684563322E+03  0.27162781342E+03  0.72534521463E+03  0.14343275902E+04  0.90687668590E+03 0.  0.
         23    2    4    4    0    0  0.47568699667E+03  0.57105334567E+03  0.62237520069E+03  0.97380140039E+03  0.92510726805E+02 0.  0.
         23    2    4    4    0    0  0.32115863655E+03 -0.29942553225E+03  0.10297001394E+03  0.46052618981E+03  0.93182769520E+02 0.  0.
          2    1    3    3  502    0  0.18259270706E+01  0.83784294979E+00  0.39276152078E-01  0.20093613642E+01  0.00000000000E+00 0. -1.
         -1    1    3    3    0  502 -0.79867156029E+03 -0.27246565637E+03 -0.17185475910E+03  0.86118978938E+03  0.00000000000E+00 0.  1.
         13    1    5    5    0    0  0.19796762243E+03  0.28436567089E+03  0.24371012943E+03  0.42361496846E+03  0.00000000000E+00 0. -1.
        -13    1    5    5    0    0  0.27771937424E+03  0.28668767478E+03  0.37866507126E+03  0.55018643194E+03  0.00000000000E+00 0.  1.
          2    1    6    6  503    0  0.30097061930E+02 -0.22293985387E+02  0.38106077180E+02  0.53431526642E+02  0.00000000000E+00 0. -1.
         -2    1    6    6    0  503  0.29106157462E+03 -0.27713154686E+03  0.64863936760E+02  0.40709466317E+03  0.00000000000E+00 0.  1.
<mgrwt>
<rscale>  0 0.22298507E+04</rscale>
<asrwt>0</asrwt>
<pdfrwt beam="1">  1        2 0.21931204E+00 0.22298507E+04</pdfrwt>
<pdfrwt beam="2">  1       -1 0.13415362E+00 0.22298507E+04</pdfrwt>
<totfact> 0.68053402E+00</totfact>
</mgrwt>
</event>
<event>
12    7  0.1729738E-007  0.2681569E+04  0.7818608E-02  0.8341010E-01
         -1   -1    0    0    0  501 -0.00000000000E+00  0.00000000000E+00  0.69608150692E+03  0.69608150692E+03  0.00000000000E+00 0.  1.
          2   -1    0    0  501    0  0.00000000000E+00 -0.00000000000E+00 -0.25826038145E+04  0.25826038145E+04  0.00000000000E+00 0. -1.
         24    2    1    2    0    0  0.74554877726E+02 -0.56251233925E+03 -0.21084785679E+04  0.21849915719E+04  0.80794409074E+02 0.  0.
        254    2    1    2    0    0 -0.74554877726E+02  0.56251233925E+03  0.22195626024E+03  0.10936937496E+04  0.90825264920E+03 0.  0.
         23    2    4    4    0    0  0.32252058533E+03  0.57017143867E+03  0.13635010427E+03  0.67530810570E+03  0.91294519317E+02 0.  0.
         23    2    4    4    0    0 -0.39707546305E+03 -0.76590994167E+01  0.85606155973E+02  0.41838564386E+03  0.99952728263E+02 0.  0.
          4    1    3    3  502    0  0.26770709268E+02 -0.41154721547E+03 -0.14302670090E+04  0.14885400560E+04  0.00000000000E+00 0. -1.
         -3    1    3    3    0  502  0.47784168458E+02 -0.15096512378E+03 -0.67821155888E+03  0.69645151586E+03  0.00000000000E+00 0.  1.
         13    1    5    5    0    0  0.19400127939E+03  0.32399341358E+03  0.33307498541E+02  0.37910106556E+03  0.00000000000E+00 0. -1.
        -13    1    5    5    0    0  0.12851930594E+03  0.24617802509E+03  0.10304260573E+03  0.29620704014E+03  0.00000000000E+00 0.  1.
          2    1    6    6  503    0 -0.27926473295E+03  0.12356530254E+02  0.15783186553E+02  0.27998318500E+03  0.00000000000E+00 0.  1.
         -2    1    6    6    0  503 -0.11781073011E+03 -0.20015629670E+02  0.69822969420E+02  0.13840245886E+03  0.00000000000E+00 0. -1.
<mgrwt>
<rscale>  0 0.26815688E+04</rscale>
<asrwt>0</asrwt>
<pdfrwt beam="1">  1        2 0.39732366E+00 0.26815688E+04</pdfrwt>
<pdfrwt beam="2">  1       -1 0.10708946E+00 0.26815688E+04</pdfrwt>
<totfact> 0.25296630E+00</totfact>
</mgrwt>
</event>
<event>
12    7  0.1729738E-007  0.2790569E+04  0.7818608E-02  0.8306202E-01
         -1   -1    0    0    0  501 -0.00000000000E+00  0.00000000000E+00  0.10254425394E+04  0.10254425394E+04  0.00000000000E+00 0.  1.
          2   -1    0    0  501    0  0.00000000000E+00 -0.00000000000E+00 -0.18985159994E+04  0.18985159994E+04  0.00000000000E+00 0. -1.
         24    2    1    2    0    0 -0.77829732257E+03 -0.40377522569E+03 -0.12976861940E+04  0.15681025098E+04  0.78580328488E+02 0.  0.
        254    2    1    2    0    0  0.77829732257E+03  0.40377522569E+03  0.42461273395E+03  0.13558560290E+04  0.94301030865E+03 0.  0.
         23    2    4    4    0    0  0.10381226530E+03 -0.11801771129E+03  0.46190248657E+03  0.49681177729E+03  0.93610193626E+02 0.  0.
         23    2    4    4    0    0  0.67448505727E+03  0.52179293698E+03 -0.37289752614E+02  0.85904425167E+03  0.96791214005E+02 0.  0.
          2    1    3    3  502    0 -0.77724966150E+03 -0.39698352045E+03 -0.12921226302E+04  0.15592606720E+04  0.00000000000E+00 0. -1.
         -1    1    3    3    0  502 -0.10476610668E+01 -0.67917052440E+01 -0.55635638213E+01  0.88418378308E+01  0.00000000000E+00 0.  1.
         13    1    5    5    0    0  0.22124726852E+02 -0.37117575737E+02  0.37829059240E+02  0.57430442188E+02  0.00000000000E+00 0. -1.
        -13    1    5    5    0    0  0.81687538444E+02 -0.80900135554E+02  0.42407342733E+03  0.43938133510E+03  0.00000000000E+00 0.  1.
          1    1    6    6  503    0  0.12434905316E+03  0.10161660230E+03  0.30614986417E+02  0.16348057462E+03  0.00000000000E+00 0. -1.
         -1    1    6    6    0  503  0.55013600411E+03  0.42017633468E+03 -0.67904739031E+02  0.69556367705E+03  0.00000000000E+00 0.  1.
<mgrwt>
<rscale>  0 0.27905692E+04</rscale>
<asrwt>0</asrwt>
<pdfrwt beam="1">  1        2 0.29207938E+00 0.27905692E+04</pdfrwt>
<pdfrwt beam="2">  1       -1 0.15776039E+00 0.27905692E+04</pdfrwt>
<totfact> 0.22912667E+00</totfact>
</mgrwt>
</event>
<event>
12    7  0.1729738E-007  0.1844926E+04  0.7818608E-02  0.8682767E-01
          2   -1    0    0  501    0  0.00000000000E+00  0.00000000000E+00  0.59195162672E+03  0.59195162672E+03  0.00000000000E+00 0. -1.
         -1   -1    0    0    0  501 -0.00000000000E+00 -0.00000000000E+00 -0.14375123813E+04  0.14375123813E+04  0.00000000000E+00 0.  1.
         24    2    1    2    0    0  0.47613704179E+02 -0.23591330723E+02 -0.11420238308E+04  0.11459969910E+04  0.79164749680E+02 0.  0.
        254    2    1    2    0    0 -0.47613704179E+02  0.23591330723E+02  0.29646307621E+03  0.88346701702E+03  0.83054199105E+03 0.  0.
         23    2    4    4    0    0 -0.35952901031E+03 -0.99432037855E+02  0.36478244302E+03  0.53016666778E+03  0.94141518401E+02 0.  0.
         23    2    4    4    0    0  0.31191530613E+03  0.12302336858E+03 -0.68319366807E+02  0.35330034924E+03  0.87907300512E+02 0.  0.
          2    1    3    3  502    0 -0.11562699322E+02  0.93899586071E+00 -0.30546158228E+02  0.32674845238E+02  0.00000000000E+00 0. -1.
         -1    1    3    3    0  502  0.59176403502E+02 -0.24530326584E+02 -0.11114776725E+04  0.11133221457E+04  0.00000000000E+00 0.  1.
         13    1    5    5    0    0 -0.16676555529E+03 -0.88352966347E+02  0.14777302959E+03  0.23969535951E+03  0.00000000000E+00 0. -1.
        -13    1    5    5    0    0 -0.19276345501E+03 -0.11079071508E+02  0.21700941342E+03  0.29047130827E+03  0.00000000000E+00 0.  1.
          2    1    6    6  503    0  0.26210902807E+03  0.13054505107E+03 -0.40069040194E+02  0.29554810258E+03  0.00000000000E+00 0.  1.
         -2    1    6    6    0  503  0.49806278053E+02 -0.75216824938E+01 -0.28250326612E+02  0.57752246664E+02  0.00000000000E+00 0. -1.
<mgrwt>
<rscale>  0 0.18449258E+04</rscale>
<asrwt>0</asrwt>
<pdfrwt beam="1">  1        2 0.91069483E-01 0.18449258E+04</pdfrwt>
<pdfrwt beam="2">  1       -1 0.22115575E+00 0.18449258E+04</pdfrwt>
<totfact> 0.58549987E+00</totfact>
</mgrwt>
</event>
<event>
12    7  0.1729738E-007  0.4800703E+04  0.7818608E-02  0.7860008E-01
         -1   -1    0    0    0  501 -0.00000000000E+00  0.00000000000E+00  0.23507991799E+04  0.23507991799E+04  0.00000000000E+00 0.  1.
          2   -1    0    0  501    0  0.00000000000E+00 -0.00000000000E+00 -0.24509483808E+04  0.24509483808E+04  0.00000000000E+00 0. -1.
         24    2    1    2    0    0 -0.15216596644E+04 -0.12148723105E+04  0.12047231986E+04  0.22910117639E+04  0.77550318526E+02 0.  0.
        254    2    1    2    0    0  0.15216596644E+04  0.12148723105E+04 -0.13048723995E+04  0.25107357969E+04  0.89985520919E+03 0.  0.
         23    2    4    4    0    0  0.70984926802E+03  0.35518495649E+03 -0.10118601597E+04  0.12891931001E+04  0.90086237104E+02 0.  0.
         23    2    4    4    0    0  0.81181039639E+03  0.85968735399E+03 -0.29301223989E+03  0.12215426967E+04  0.90619649690E+02 0.  0.
          2    1    3    3  502    0 -0.17925131223E+03 -0.15407162413E+03  0.11882359089E+03  0.26455272452E+03  0.00000000000E+00 0. -1.
         -1    1    3    3    0  502 -0.13424083522E+04 -0.10608006863E+04  0.10858996077E+04  0.20264590394E+04  0.00000000000E+00 0.  1.
         13    1    5    5    0    0  0.19635431631E+03  0.93767490843E+02 -0.34487653600E+03  0.40778325733E+03  0.00000000000E+00 0. -1.
        -13    1    5    5    0    0  0.51349495171E+03  0.26141746564E+03 -0.66698362365E+03  0.88140984280E+03  0.00000000000E+00 0.  1.
          4    1    6    6  503    0  0.52184063417E+03  0.50316077673E+03 -0.20832705326E+03  0.75424702573E+03  0.00000000000E+00 0. -1.
         -4    1    6    6    0  503  0.28996976222E+03  0.35652657726E+03 -0.84685186625E+02  0.46729567099E+03  0.00000000000E+00 0.  1.
<mgrwt>
<rscale>  0 0.48007031E+04</rscale>
<asrwt>0</asrwt>
<pdfrwt beam="1">  1        2 0.37706898E+00 0.48007031E+04</pdfrwt>
<pdfrwt beam="2">  1       -1 0.36166141E+00 0.48007031E+04</pdfrwt>
<totfact> 0.40631968E-02</totfact>
</mgrwt>
</event>
<event>
12    7  0.1729738E-007  0.1992687E+04  0.7818608E-02  0.8610048E-01
         -1   -1    0    0    0  501 -0.00000000000E+00  0.00000000000E+00  0.10343394383E+04  0.10343394383E+04  0.00000000000E+00 0.  1.
          2   -1    0    0  501    0  0.00000000000E+00 -0.00000000000E+00 -0.95974302567E+03  0.95974302567E+03  0.00000000000E+00 0. -1.
         24    2    1    2    0    0  0.14394171201E+03  0.21708198362E+03  0.77527937133E+03  0.82166401595E+03  0.78929382547E+02 0.  0.
        254    2    1    2    0    0 -0.14394171201E+03 -0.21708198362E+03 -0.70068295870E+03  0.11724184480E+04  0.90319688029E+03 0.  0.
         23    2    4    4    0    0 -0.27609828898E+03 -0.44928617494E+03 -0.71085545328E+03  0.88974094729E+03  0.90747703306E+02 0.  0.
         23    2    4    4    0    0  0.13215657696E+03  0.23220419131E+03  0.10172494585E+02  0.28267750073E+03  0.91754795379E+02 0.  0.
          2    1    3    3  502    0  0.72703078982E+02  0.10570297208E+03  0.26334504722E+03  0.29293253472E+03  0.00000000000E+00 0. -1.
         -1    1    3    3    0  502  0.71238633032E+02  0.11137901155E+03  0.51193432410E+03  0.52873148123E+03  0.00000000000E+00 0.  1.
         13    1    5    5    0    0 -0.80320946139E+02 -0.64968667577E+02 -0.15254575694E+03  0.18423514897E+03  0.00000000000E+00 0.  1.
        -13    1    5    5    0    0 -0.19577734284E+03 -0.38431750736E+03 -0.55830969634E+03  0.70550579832E+03  0.00000000000E+00 0. -1.
          2    1    6    6  503    0  0.34628123144E+02  0.14130876211E+03  0.28039987161E+02  0.14816718274E+03  0.00000000000E+00 0. -1.
         -2    1    6    6    0  503  0.97528453821E+02  0.90895429202E+02 -0.17867492575E+02  0.13451031799E+03  0.00000000000E+00 0.  1.
<mgrwt>
<rscale>  0 0.19926867E+04</rscale>
<asrwt>0</asrwt>
<pdfrwt beam="1">  1        2 0.14765277E+00 0.19926867E+04</pdfrwt>
<pdfrwt beam="2">  1       -1 0.15912915E+00 0.19926867E+04</pdfrwt>
<totfact> 0.84186850E+00</totfact>
</mgrwt>
</event>
<event>
12    7  0.1729738E-007  0.1313463E+04  0.7818608E-02  0.9018957E-01
          4   -1    0    0  501    0  0.00000000000E+00  0.00000000000E+00  0.37889139495E+03  0.37889139495E+03  0.00000000000E+00 0. -1.
         -3   -1    0    0    0  501 -0.00000000000E+00 -0.00000000000E+00 -0.11383109269E+04  0.11383109269E+04  0.00000000000E+00 0.  1.
         24    2    1    2    0    0 -0.94193293103E+02  0.12366247878E+03 -0.55082564824E+03  0.57918460794E+03  0.88775729778E+02 0.  0.
        254    2    1    2    0    0  0.94193293103E+02 -0.12366247878E+03 -0.20859388372E+03  0.93801771391E+03  0.90122196942E+03 0.  0.
         23    2    4    4    0    0 -0.31768597326E+03  0.19622628183E+03 -0.11198394769E+03  0.40006512856E+03  0.89903121524E+02 0.  0.
         23    2    4    4    0    0  0.41187926637E+03 -0.31988876061E+03 -0.96609936027E+02  0.53795258535E+03  0.89923051095E+02 0.  0.
          4    1    3    3  502    0 -0.31200581700E+02  0.98238671798E+02 -0.24307535765E+03  0.26402640480E+03  0.00000000000E+00 0. -1.
         -3    1    3    3    0  502 -0.62992711403E+02  0.25423806984E+02 -0.30775029059E+03  0.31515820314E+03  0.00000000000E+00 0.  1.
         13    1    5    5    0    0 -0.26376130971E+02  0.47440601458E+01  0.12927974983E+02  0.29754645500E+02  0.00000000000E+00 0. -1.
        -13    1    5    5    0    0 -0.29130984229E+03  0.19148222168E+03 -0.12491192268E+03  0.37031048306E+03  0.00000000000E+00 0.  1.
          1    1    6    6  503    0  0.32084628254E+02 -0.38238856683E+00  0.11238366044E+01  0.32106581878E+02  0.00000000000E+00 0. -1.
         -1    1    6    6    0  503  0.37979463811E+03 -0.31950637204E+03 -0.97733772631E+02  0.50584600347E+03  0.00000000000E+00 0.  1.
<mgrwt>
<rscale>  0 0.13134629E+04</rscale>
<asrwt>0</asrwt>
<pdfrwt beam="1">  1        4 0.58290986E-01 0.13134629E+04</pdfrwt>
<pdfrwt beam="2">  1       -3 0.17512475E+00 0.13134629E+04</pdfrwt>
<totfact> 0.13337484E+00</totfact>
</mgrwt>
</event>
<event>
12    7  0.1729738E-007  0.1826235E+04  0.7818608E-02  0.8692471E-01
          2   -1    0    0  501    0  0.00000000000E+00  0.00000000000E+00  0.75434419274E+03  0.75434419274E+03  0.00000000000E+00 0. -1.
         -1   -1    0    0    0  501 -0.00000000000E+00 -0.00000000000E+00 -0.11053092098E+04  0.11053092098E+04  0.00000000000E+00 0.  1.
         24    2    1    2    0    0  0.39930535101E+03 -0.22299826349E+03 -0.65612074254E+03  0.80402196899E+03  0.82364488526E+02 0.  0.
        254    2    1    2    0    0 -0.39930535101E+03  0.22299826349E+03  0.30515572548E+03  0.10556314336E+04  0.90114633543E+03 0.  0.
         23    2    4    4    0    0 -0.36890261647E+03  0.25651192431E+03  0.59338168748E+03  0.75000264300E+03  0.92274751198E+02 0.  0.
         23    2    4    4    0    0 -0.30402734538E+02 -0.33513660821E+02 -0.28822596201E+03  0.30562879056E+03  0.91034393024E+02 0.  0.
          2    1    3    3  502    0  0.56407952567E+02 -0.56046834188E+02 -0.77637671051E+02  0.11113376040E+03  0.00000000000E+00 0. -1.
         -1    1    3    3    0  502  0.34289739844E+03 -0.16695142930E+03 -0.57848307148E+03  0.69288820859E+03  0.00000000000E+00 0.  1.
         13    1    5    5    0    0 -0.16484074234E+03  0.89702614168E+02  0.31484229471E+03  0.36653062609E+03  0.00000000000E+00 0. -1.
        -13    1    5    5    0    0 -0.20406187413E+03  0.16680931015E+03  0.27853939278E+03  0.38347201691E+03  0.00000000000E+00 0.  1.
          2    1    6    6  503    0 -0.38024603149E+02  0.31196293353E+01 -0.24710035151E+03  0.25002837089E+03  0.00000000000E+00 0. -1.
         -2    1    6    6    0  503  0.76218686109E+01 -0.36633290156E+02 -0.41125610498E+02  0.55600419671E+02  0.00000000000E+00 0.  1.
<mgrwt>
<rscale>  0 0.18262350E+04</rscale>
<asrwt>0</asrwt>
<pdfrwt beam="1">  1        2 0.11605295E+00 0.18262350E+04</pdfrwt>
<pdfrwt beam="2">  1       -1 0.17004757E+00 0.18262350E+04</pdfrwt>
<totfact> 0.98415247E+00</totfact>
</mgrwt>
</event>
<event>
12    7  0.1729738E-007  0.2543181E+04  0.7818608E-02  0.8387762E-01
         -1   -1    0    0    0  501 -0.00000000000E+00  0.00000000000E+00  0.43059602752E+03  0.43059602752E+03  0.00000000000E+00 0.  1.
          2   -1    0    0  501    0  0.00000000000E+00 -0.00000000000E+00 -0.37551249630E+04  0.37551249630E+04  0.00000000000E+00 0. -1.
         24    2    1    2    0    0  0.10639050328E+04 -0.11277795624E+03 -0.18890615518E+04  0.21724520445E+04  0.79884623189E+02 0.  0.
        254    2    1    2    0    0 -0.10639050328E+04  0.11277795624E+03 -0.14354673837E+04  0.20132689460E+04  0.92090849336E+03 0.  0.
         23    2    4    4    0    0 -0.47876005366E+03  0.16636014654E+03 -0.13071186195E+04  0.14048484347E+04  0.90294805447E+02 0.  0.
         23    2    4    4    0    0 -0.58514497913E+03 -0.53582190299E+02 -0.12834876425E+03  0.60842051129E+03  0.91849962249E+02 0.  0.
          4    1    3    3  502    0  0.10632798985E+04 -0.11357499525E+03 -0.18896864041E+04  0.21712618746E+04  0.00000000000E+00 0. -1.
         -3    1    3    3    0  502  0.62513423620E+00  0.79703901031E+00  0.62485231634E+00  0.11901699099E+01  0.00000000000E+00 0.  1.
         13    1    5    5    0    0 -0.24259732028E+03  0.13193039091E+03 -0.69664695138E+03  0.74938378867E+03  0.00000000000E+00 0.  1.
        -13    1    5    5    0    0 -0.23616273338E+03  0.34429755635E+02 -0.61047166808E+03  0.65546464606E+03  0.00000000000E+00 0. -1.
          1    1    6    6  503    0 -0.80897162281E+01  0.11225134048E+02 -0.54712129493E+01  0.14878888204E+02  0.00000000000E+00 0. -1.
         -1    1    6    6    0  503 -0.57705526290E+03 -0.64807324346E+02 -0.12287755130E+03  0.59354162309E+03  0.00000000000E+00 0.  1.
<mgrwt>
<rscale>  0 0.25431806E+04</rscale>
<asrwt>0</asrwt>
<pdfrwt beam="1">  1        2 0.57771153E+00 0.25431806E+04</pdfrwt>
<pdfrwt beam="2">  1       -1 0.66245543E-01 0.25431806E+04</pdfrwt>
<totfact> 0.12416356E+00</totfact>
</mgrwt>
</event>
<event>
12    7  0.1729738E-007  0.2085270E+04  0.7818608E-02  0.8567760E-01
          2   -1    0    0  501    0  0.00000000000E+00  0.00000000000E+00  0.52844769319E+03  0.52844769319E+03  0.00000000000E+00 0. -1.
         -1   -1    0    0    0  501 -0.00000000000E+00 -0.00000000000E+00 -0.20571333331E+04  0.20571333331E+04  0.00000000000E+00 0.  1.
         24    2    1    2    0    0  0.14837455212E+03 -0.82629389715E+03 -0.79461800504E+03  0.11585943067E+04  0.78398861715E+02 0.  0.
        254    2    1    2    0    0 -0.14837455212E+03  0.82629389715E+03 -0.73406763486E+03  0.14269867195E+04  0.89031409793E+03 0.  0.
         23    2    4    4    0    0 -0.20238261000E+03  0.46802965361E+02  0.12722802865E+03  0.26054590280E+03  0.92455166393E+02 0.  0.
         23    2    4    4    0    0  0.54008057882E+02  0.77949093179E+03 -0.86129566351E+03  0.11664408167E+04  0.90724726001E+02 0.  0.
          4    1    3    3  502    0  0.83695471767E+02 -0.47776309600E+03 -0.40542444499E+03  0.63216413098E+03  0.00000000000E+00 0. -1.
         -3    1    3    3    0  502  0.64679080356E+02 -0.34853080115E+03 -0.38919356004E+03  0.52643017577E+03  0.00000000000E+00 0.  1.
         13    1    5    5    0    0 -0.17743926635E+03  0.72052048095E+02  0.11258252756E+03  0.22215088654E+03  0.00000000000E+00 0. -1.
        -13    1    5    5    0    0 -0.24943343655E+02 -0.25249082734E+02  0.14645501087E+02  0.38395016262E+02  0.00000000000E+00 0.  1.
          4    1    6    6  503    0  0.44070530306E+02  0.68641861311E+03 -0.71006677252E+03  0.98858866345E+03  0.00000000000E+00 0.  1.
         -4    1    6    6    0  503  0.99375275758E+01  0.93072318684E+02 -0.15122889099E+03  0.17785215329E+03  0.00000000000E+00 0. -1.
<mgrwt>
<rscale>  0 0.20852696E+04</rscale>
<asrwt>0</asrwt>
<pdfrwt beam="1">  1        2 0.81299643E-01 0.20852696E+04</pdfrwt>
<pdfrwt beam="2">  1       -1 0.31648206E+00 0.20852696E+04</pdfrwt>
<totfact> 0.15705309E+00</totfact>
</mgrwt>
</event>
<event>
12    7  0.1729738E-007  0.1693295E+04  0.7818608E-02  0.8765198E-01
         -1   -1    0    0    0  501 -0.00000000000E+00  0.00000000000E+00  0.47021354827E+03  0.47021354827E+03  0.00000000000E+00 0.  1.
          2   -1    0    0  501    0  0.00000000000E+00 -0.00000000000E+00 -0.15244397739E+04  0.15244397739E+04  0.00000000000E+00 0. -1.
         24    2    1    2    0    0 -0.48821677806E+03  0.94520805608E+02  0.20855363039E+02  0.50283969471E+03  0.71575186611E+02 0.  0.
        254    2    1    2    0    0  0.48821677806E+03 -0.94520805608E+02 -0.10750815887E+04  0.14918136275E+04  0.90687246718E+03 0.  0.
         23    2    4    4    0    0  0.40932711094E+03 -0.35513094260E+03 -0.10707256586E+04  0.12035486187E+04  0.91701535350E+02 0.  0.
         23    2    4    4    0    0  0.78889667119E+02  0.26061013699E+03 -0.43559301263E+01  0.28826500875E+03  0.94533158540E+02 0.  0.
          4    1    3    3  502    0 -0.41877128625E+03  0.89165577907E+02 -0.59714056003E+01  0.42820035982E+03  0.00000000000E+00 0. -1.
         -3    1    3    3    0  502 -0.69445491813E+02  0.53552277009E+01  0.26826768640E+02  0.74639334888E+02  0.00000000000E+00 0.  1.
         13    1    5    5    0    0  0.85882822961E+02 -0.60799687966E+02 -0.13937804477E+03  0.17463877204E+03  0.00000000000E+00 0. -1.
        -13    1    5    5    0    0  0.32344428798E+03 -0.29433125463E+03 -0.93134761382E+03  0.10289098467E+04  0.00000000000E+00 0.  1.
          1    1    6    6  503    0  0.23540648685E+02  0.13010599237E+03 -0.46854873717E+02  0.14027512460E+03  0.00000000000E+00 0. -1.
         -1    1    6    6    0  503  0.55349018433E+02  0.13050414462E+03  0.42498943590E+02  0.14798988415E+03  0.00000000000E+00 0.  1.
<mgrwt>
<rscale>  0 0.16932953E+04</rscale>
<asrwt>0</asrwt>
<pdfrwt beam="1">  1        2 0.23452919E+00 0.16932953E+04</pdfrwt>
<pdfrwt beam="2">  1       -1 0.72340547E-01 0.16932953E+04</pdfrwt>
<totfact> 0.25714595E+01</totfact>
</mgrwt>
</event>
<event>
12    7  0.1729738E-007  0.1100872E+04  0.7818608E-02  0.9204343E-01
          2   -1    0    0  501    0  0.00000000000E+00  0.00000000000E+00  0.19689378425E+04  0.19689378425E+04  0.00000000000E+00 0. -1.
         -1   -1    0    0    0  501 -0.00000000000E+00 -0.00000000000E+00 -0.15387968509E+03  0.15387968509E+03  0.00000000000E+00 0.  1.
         24    2    1    2    0    0  0.97563543459E+02  0.13092347300E+03  0.36110713821E+03  0.40051350175E+03  0.57905949827E+02 0.  0.
        254    2    1    2    0    0 -0.97563543459E+02 -0.13092347300E+03  0.14539510191E+04  0.17223040258E+04  0.90867925606E+03 0.  0.
         23    2    4    4    0    0  0.16982107930E+03  0.24765157346E+03  0.17539855461E+03  0.35957021486E+03  0.91408892597E+02 0.  0.
         23    2    4    4    0    0 -0.26738462275E+03 -0.37857504646E+03  0.12785524645E+04  0.13627338109E+04  0.86795348918E+02 0.  0.
          2    1    3    3  502    0  0.18046007712E+02  0.27602310483E+02  0.29691057438E+02  0.44374596676E+02  0.00000000000E+00 0. -1.
         -1    1    3    3    0  502  0.79517535747E+02  0.10332116252E+03  0.33141608077E+03  0.35613890508E+03  0.00000000000E+00 0.  1.
         13    1    5    5    0    0 -0.38494694638E+01  0.28711805362E+02  0.39058146949E+02  0.48628438443E+02  0.00000000000E+00 0.  1.
        -13    1    5    5    0    0  0.17367054876E+03  0.21893976810E+03  0.13634040766E+03  0.31094177642E+03  0.00000000000E+00 0. -1.
          3    1    6    6  503    0 -0.27261893963E+03 -0.35903328801E+03  0.12096078873E+04  0.12908823452E+04  0.00000000000E+00 0. -1.
         -3    1    6    6    0  503  0.52343168782E+01 -0.19541758450E+02  0.68944577239E+02  0.71851465727E+02  0.00000000000E+00 0.  1.
<mgrwt>
<rscale>  0 0.11008715E+04</rscale>
<asrwt>0</asrwt>
<pdfrwt beam="1">  1        2 0.30291350E+00 0.11008715E+04</pdfrwt>
<pdfrwt beam="2">  1       -1 0.23673799E-01 0.11008715E+04</pdfrwt>
<totfact> 0.12114563E+02</totfact>
</mgrwt>
</event>
<event>
12    7  0.1729738E-007  0.1770298E+04  0.7818608E-02  0.8722256E-01
         -1   -1    0    0    0  501 -0.00000000000E+00  0.00000000000E+00  0.27217956183E+03  0.27217956183E+03  0.00000000000E+00 0.  1.
          2   -1    0    0  501    0  0.00000000000E+00 -0.00000000000E+00 -0.28785735001E+04  0.28785735001E+04  0.00000000000E+00 0. -1.
         24    2    1    2    0    0 -0.24404178444E+03  0.43076958595E+03 -0.17251405282E+04  0.17968074740E+04  0.85372290698E+02 0.  0.
        254    2    1    2    0    0  0.24404178444E+03 -0.43076958595E+03 -0.88125341005E+03  0.13539455879E+04  0.90080089555E+03 0.  0.
         23    2    4    4    0    0 -0.15824565198E+02 -0.45578050465E+03 -0.38188746207E+02  0.46666448315E+03  0.91274718358E+02 0.  0.
         23    2    4    4    0    0  0.25986634963E+03  0.25010918699E+02 -0.84306466385E+03  0.88728110472E+03  0.91398389643E+02 0.  0.
          4    1    3    3  502    0 -0.10791529678E+03  0.23392946914E+03 -0.76169536956E+03  0.80408242352E+03  0.00000000000E+00 0. -1.
         -3    1    3    3    0  502 -0.13612648766E+03  0.19684011681E+03 -0.96344515864E+03  0.99272505053E+03  0.00000000000E+00 0.  1.
         13    1    5    5    0    0  0.41446373196E+01 -0.42339732535E+03 -0.51095845772E+02  0.42648945894E+03  0.00000000000E+00 0.  1.
        -13    1    5    5    0    0 -0.19969202518E+02 -0.32383179295E+02  0.12907099565E+02  0.40175024202E+02  0.00000000000E+00 0. -1.
          2    1    6    6  503    0  0.20825135443E+03  0.15042312082E+02 -0.52664492107E+03  0.56652428956E+03  0.00000000000E+00 0.  1.
         -2    1    6    6    0  503  0.51614995205E+02  0.99686066178E+01 -0.31641974278E+03  0.32075681515E+03  0.00000000000E+00 0. -1.
<mgrwt>
<rscale>  0 0.17702981E+04</rscale>
<asrwt>0</asrwt>
<pdfrwt beam="1">  1        2 0.44285746E+00 0.17702981E+04</pdfrwt>
<pdfrwt beam="2">  1       -1 0.41873779E-01 0.17702981E+04</pdfrwt>
<totfact> 0.12533462E+01</totfact>
</mgrwt>
</event>
<event>
12    7  0.1729738E-007  0.2672124E+04  0.7818608E-02  0.8344107E-01
          2   -1    0    0  501    0  0.00000000000E+00  0.00000000000E+00  0.31468299435E+04  0.31468299435E+04  0.00000000000E+00 0. -1.
         -1   -1    0    0    0  501 -0.00000000000E+00 -0.00000000000E+00 -0.56725705525E+03  0.56725705525E+03  0.00000000000E+00 0.  1.
         24    2    1    2    0    0 -0.42356146654E+03 -0.10276156501E+04  0.55853008873E+03  0.12464944880E+04  0.79965044432E+02 0.  0.
        254    2    1    2    0    0  0.42356146654E+03  0.10276156501E+04  0.20210427995E+04  0.24675925108E+04  0.87692677085E+03 0.  0.
         23    2    4    4    0    0  0.26143997971E+03  0.36710294151E+02  0.99071828377E+02  0.29721469829E+03  0.93929979313E+02 0.  0.
         23    2    4    4    0    0  0.16212148684E+03  0.99090535593E+03  0.19219709712E+04  0.21703778125E+04  0.91600404143E+02 0.  0.
          4    1    3    3  502    0 -0.13299551280E+03 -0.28375775923E+03  0.12124479340E+03  0.33601573219E+03  0.00000000000E+00 0. -1.
         -3    1    3    3    0  502 -0.29056595375E+03 -0.74385789085E+03  0.43728529533E+03  0.91047875580E+03  0.00000000000E+00 0.  1.
         13    1    5    5    0    0  0.13058780659E+02  0.32491478971E+01 -0.16444959177E+02  0.21249126963E+02  0.00000000000E+00 0. -1.
        -13    1    5    5    0    0  0.24838119905E+03  0.33461146254E+02  0.11551678755E+03  0.27596557132E+03  0.00000000000E+00 0.  1.
          4    1    6    6  503    0 -0.34348251403E+01  0.28326093037E+02  0.31488083617E+02  0.42493116859E+02  0.00000000000E+00 0. -1.
         -4    1    6    6    0  503  0.16555631198E+03  0.96257926289E+03  0.18904828876E+04  0.21278846956E+04  0.00000000000E+00 0.  1.
<mgrwt>
<rscale>  0 0.26721239E+04</rscale>
<asrwt>0</asrwt>
<pdfrwt beam="1">  1        2 0.48412767E+00 0.26721239E+04</pdfrwt>
<pdfrwt beam="2">  1       -1 0.87270318E-01 0.26721239E+04</pdfrwt>
<totfact> 0.18139771E+00</totfact>
</mgrwt>
</event>
<event>
12    7  0.1729738E-007  0.1780001E+04  0.7818608E-02  0.8717008E-01
          2   -1    0    0  501    0  0.00000000000E+00  0.00000000000E+00  0.15062091188E+04  0.15062091188E+04  0.00000000000E+00 0. -1.
         -1   -1    0    0    0  501 -0.00000000000E+00 -0.00000000000E+00 -0.52589023262E+03  0.52589023262E+03  0.00000000000E+00 0.  1.
         24    2    1    2    0    0  0.52550535911E+03 -0.12442355675E+03 -0.53313588791E+02  0.54858965210E+03  0.80443543629E+02 0.  0.
        254    2    1    2    0    0 -0.52550535911E+03  0.12442355675E+03  0.10336324750E+04  0.14835096993E+04  0.91693392933E+03 0.  0.
         23    2    4    4    0    0 -0.38437668301E+03  0.43127266935E+03  0.27017032248E+03  0.64376104054E+03  0.87719578123E+02 0.  0.
         23    2    4    4    0    0 -0.14112867610E+03 -0.30684911260E+03  0.76346215251E+03  0.83974865881E+03  0.90717531540E+02 0.  0.
          4    1    3    3  502    0  0.38771355173E+03 -0.90590560534E+02 -0.74697413307E+02  0.40510264305E+03  0.00000000000E+00 0. -1.
         -3    1    3    3    0  502  0.13779180739E+03 -0.33832996217E+02  0.21383824517E+02  0.14348700905E+03  0.00000000000E+00 0.  1.
         13    1    5    5    0    0 -0.77725048952E+02  0.58030114762E+02  0.17333978317E+02  0.98534990020E+02  0.00000000000E+00 0. -1.
        -13    1    5    5    0    0 -0.30665163406E+03  0.37324255459E+03  0.25283634417E+03  0.54522605052E+03  0.00000000000E+00 0.  1.
          3    1    6    6  503    0 -0.57602014997E+02 -0.62916403407E+02  0.26745868604E+03  0.28073228294E+03  0.00000000000E+00 0. -1.
         -3    1    6    6    0  503 -0.83526661104E+02 -0.24393270920E+03  0.49600346647E+03  0.55901637586E+03  0.00000000000E+00 0.  1.
<mgrwt>
<rscale>  0 0.17800007E+04</rscale>
<asrwt>0</asrwt>
<pdfrwt beam="1">  1        2 0.23172448E+00 0.17800007E+04</pdfrwt>
<pdfrwt beam="2">  1       -1 0.80906190E-01 0.17800007E+04</pdfrwt>
<totfact> 0.20659568E+01</totfact>
</mgrwt>
</event>
<event>
12    7  0.1729738E-007  0.1888457E+04  0.7818608E-02  0.8660623E-01
         -1   -1    0    0    0  501 -0.00000000000E+00  0.00000000000E+00  0.10282661593E+04  0.10282661593E+04  0.00000000000E+00 0.  1.
          2   -1    0    0  501    0  0.00000000000E+00 -0.00000000000E+00 -0.86705910051E+03  0.86705910051E+03  0.00000000000E+00 0. -1.
         24    2    1    2    0    0  0.19599247753E+03  0.44399398655E+03  0.60199654116E+03  0.77732587633E+03  0.79321945984E+02 0.  0.
        254    2    1    2    0    0 -0.19599247753E+03 -0.44399398655E+03 -0.44078948237E+03  0.11179993835E+04  0.90558464118E+03 0.  0.
         23    2    4    4    0    0 -0.44980098986E+03  0.21036624187E+01 -0.37492676340E+03  0.59262934509E+03  0.91181724417E+02 0.  0.
         23    2    4    4    0    0  0.25380851233E+03 -0.44609764897E+03 -0.65862718961E+02  0.52537003838E+03  0.90851010615E+02 0.  0.
          2    1    3    3  502    0  0.13475826515E+03  0.24588850520E+03  0.29629320875E+03  0.40793456898E+03  0.00000000000E+00 0. -1.
         -1    1    3    3    0  502  0.61234212380E+02  0.19810548135E+03  0.30570333241E+03  0.36939130736E+03  0.00000000000E+00 0.  1.
         13    1    5    5    0    0 -0.37912254111E+03 -0.16744519682E+02 -0.34734395517E+03  0.51445320809E+03  0.00000000000E+00 0. -1.
        -13    1    5    5    0    0 -0.70678448752E+02  0.18848182101E+02 -0.27582808232E+02  0.78176137002E+02  0.00000000000E+00 0.  1.
          3    1    6    6  503    0  0.20406866985E+03 -0.40453395149E+03 -0.37574936119E+02  0.45464669332E+03  0.00000000000E+00 0. -1.
         -3    1    6    6    0  503  0.49739842480E+02 -0.41563697478E+02 -0.28287782843E+02  0.70723345058E+02  0.00000000000E+00 0.  1.
<mgrwt>
<rscale>  0 0.18884571E+04</rscale>
<asrwt>0</asrwt>
<pdfrwt beam="1">  1        2 0.13339371E+00 0.18884571E+04</pdfrwt>
<pdfrwt beam="2">  1       -1 0.15819479E+00 0.18884571E+04</pdfrwt>
<totfact> 0.99657456E+00</totfact>
</mgrwt>
</event>
<event>
12    7  0.1729738E-007  0.1656393E+04  0.7818608E-02  0.8786634E-01
          2   -1    0    0  501    0  0.00000000000E+00  0.00000000000E+00  0.24556825500E+04  0.24556825500E+04  0.00000000000E+00 0. -1.
         -1   -1    0    0    0  501 -0.00000000000E+00 -0.00000000000E+00 -0.27931510015E+03  0.27931510015E+03  0.00000000000E+00 0.  1.
         24    2    1    2    0    0  0.41388952370E+03 -0.14300865502E+03  0.14285587249E+03  0.46721211512E+03  0.78251817689E+02 0.  0.
        254    2    1    2    0    0 -0.41388952370E+03  0.14300865502E+03  0.20335115774E+04  0.22677855351E+04  0.90328615862E+03 0.  0.
         23    2    4    4    0    0  0.94992131087E+02  0.17961671927E+03  0.64916761933E+02  0.23212735169E+03  0.91560092908E+02 0.  0.
         23    2    4    4    0    0 -0.50888165479E+03 -0.36608064251E+02  0.19685948155E+04  0.20356581834E+04  0.90763445663E+02 0.  0.
          2    1    3    3  502    0  0.19648352497E+03 -0.70278140481E+02  0.27194042341E+02  0.21043837234E+03  0.00000000000E+00 0. -1.
         -1    1    3    3    0  502  0.21740599873E+03 -0.72730514538E+02  0.11566183015E+03  0.25677374278E+03  0.00000000000E+00 0.  1.
         13    1    5    5    0    0  0.15811872445E+02  0.12443265875E+03  0.26213730274E+02  0.12814312907E+03  0.00000000000E+00 0.  1.
        -13    1    5    5    0    0  0.79180258643E+02  0.55184060525E+02  0.38703031658E+02  0.10398422262E+03  0.00000000000E+00 0. -1.
          3    1    6    6  503    0 -0.46596738882E+03 -0.97150026648E+01  0.18172590090E+04  0.18760731048E+04  0.00000000000E+00 0. -1.
         -3    1    6    6    0  503 -0.42914265974E+02 -0.26893061586E+02  0.15133580647E+03  0.15958507858E+03  0.00000000000E+00 0.  1.
<mgrwt>
<rscale>  0 0.16563927E+04</rscale>
<asrwt>0</asrwt>
<pdfrwt beam="1">  1        2 0.37779730E+00 0.16563927E+04</pdfrwt>
<pdfrwt beam="2">  1       -1 0.42971555E-01 0.16563927E+04</pdfrwt>
<totfact> 0.21462971E+01</totfact>
</mgrwt>
</event>
<event>
12    7  0.1729738E-007  0.2853184E+04  0.7818608E-02  0.8286944E-01
         -1   -1    0    0    0  501 -0.00000000000E+00  0.00000000000E+00  0.81054815065E+03  0.81054815065E+03  0.00000000000E+00 0.  1.
          2   -1    0    0  501    0  0.00000000000E+00 -0.00000000000E+00 -0.25108502768E+04  0.25108502768E+04  0.00000000000E+00 0. -1.
         24    2    1    2    0    0 -0.28386910707E+03 -0.10419782965E+04 -0.15701035604E+04  0.19071963461E+04  0.76630751290E+02 0.  0.
        254    2    1    2    0    0  0.28386910707E+03  0.10419782965E+04 -0.13019856576E+03  0.14142020813E+04  0.90372308804E+03 0.  0.
         23    2    4    4    0    0  0.23926350026E+03  0.11932765160E+04 -0.15462188217E+03  0.12302706893E+04  0.92207246231E+02 0.  0.
         23    2    4    4    0    0  0.44605606808E+02 -0.15129821948E+03  0.24423316409E+02  0.18393139202E+03  0.91397194767E+02 0.  0.
          2    1    3    3  502    0 -0.19040567535E+03 -0.60276830294E+03 -0.96705249110E+03  0.11553243998E+04  0.00000000000E+00 0. -1.
         -1    1    3    3    0  502 -0.93463431720E+02 -0.43920999358E+03 -0.60305106926E+03  0.75187194632E+03  0.00000000000E+00 0.  1.
         13    1    5    5    0    0  0.93036187733E+02  0.27515030296E+03 -0.49624393808E+02  0.29466252206E+03  0.00000000000E+00 0.  1.
        -13    1    5    5    0    0  0.14622731253E+03  0.91812621304E+03 -0.10499748836E+03  0.93560816722E+03  0.00000000000E+00 0. -1.
          4    1    6    6  503    0 -0.21048686908E+02 -0.16533326804E+02  0.20940894436E+02  0.33984101805E+02  0.00000000000E+00 0.  1.
         -4    1    6    6    0  503  0.65654293717E+02 -0.13476489267E+03  0.34824219731E+01  0.14994729022E+03  0.00000000000E+00 0. -1.
<mgrwt>
<rscale>  0 0.28531842E+04</rscale>
<asrwt>0</asrwt>
<pdfrwt beam="1">  1        2 0.38628466E+00 0.28531842E+04</pdfrwt>
<pdfrwt beam="2">  1       -1 0.12469972E+00 0.28531842E+04</pdfrwt>
<totfact> 0.19019418E+00</totfact>
</mgrwt>
</event>
<event>
12    7  0.1729738E-007  0.1284721E+04  0.7818608E-02  0.9041770E-01
          2   -1    0    0  501    0  0.00000000000E+00  0.00000000000E+00  0.15511785342E+04  0.15511785342E+04  0.00000000000E+00 0. -1.
         -1   -1    0    0    0  501 -0.00000000000E+00 -0.00000000000E+00 -0.26600887589E+03  0.26600887589E+03  0.00000000000E+00 0.  1.
         24    2    1    2    0    0 -0.20654849602E+03  0.23793127459E+03  0.34840010151E+03  0.47738458751E+03  0.85087255342E+02 0.  0.
        254    2    1    2    0    0  0.20654849602E+03 -0.23793127459E+03  0.93676955680E+03  0.13398028226E+04  0.90457770712E+03 0.  0.
         23    2    4    4    0    0  0.50042504129E+03 -0.35555461975E+03  0.69348658569E+03  0.93034586593E+03  0.88178660379E+02 0.  0.
         23    2    4    4    0    0 -0.29387654527E+03  0.11762334516E+03  0.24328297111E+03  0.40945695666E+03  0.90938001609E+02 0.  0.
          2    1    3    3  502    0 -0.18359464095E+02  0.75678569903E+02  0.84940284222E+02  0.11523527128E+03  0.00000000000E+00 0. -1.
         -1    1    3    3    0  502 -0.18818903193E+03  0.16225270469E+03  0.26345981729E+03  0.36214931622E+03  0.00000000000E+00 0.  1.
         13    1    5    5    0    0  0.50419475939E+03 -0.35309149957E+03  0.68997183599E+03  0.92463349329E+03  0.00000000000E+00 0.  1.
        -13    1    5    5    0    0 -0.37697181060E+01 -0.24631201858E+01  0.35147496977E+01  0.57123726319E+01  0.00000000000E+00 0. -1.
          3    1    6    6  503    0 -0.43853433452E+02 -0.85959208037E+01  0.59710808680E+02  0.74581459849E+02  0.00000000000E+00 0. -1.
         -3    1    6    6    0  503 -0.25002311181E+03  0.12621926597E+03  0.18357216243E+03  0.33487549681E+03  0.00000000000E+00 0.  1.
<mgrwt>
<rscale>  0 0.12847214E+04</rscale>
<asrwt>0</asrwt>
<pdfrwt beam="1">  1        2 0.23864285E+00 0.12847214E+04</pdfrwt>
<pdfrwt beam="2">  1       -1 0.40924444E-01 0.12847214E+04</pdfrwt>
<totfact> 0.77535783E+01</totfact>
</mgrwt>
</event>
<event>
12    7  0.1729738E-007  0.1094362E+04  0.7818608E-02  0.9210704E-01
          4   -1    0    0  501    0  0.00000000000E+00  0.00000000000E+00  0.42446056867E+03  0.42446056867E+03  0.00000000000E+00 0. -1.
         -1   -1    0    0    0  501 -0.00000000000E+00 -0.00000000000E+00 -0.70538275348E+03  0.70538275348E+03  0.00000000000E+00 0.  1.
         24    2    1    2    0    0 -0.10202956162E+03 -0.37294864097E+02 -0.14232390004E+03  0.19713726673E+03  0.82498915628E+02 0.  0.
        254    2    1    2    0    0  0.10202956162E+03  0.37294864097E+02 -0.13859828477E+03  0.93270605541E+03  0.91593130907E+03 0.  0.
         23    2    4    4    0    0  0.38358519029E+03  0.27382077010E+03 -0.24567718847E+03  0.53920221844E+03  0.90919409797E+02 0.  0.
         23    2    4    4    0    0 -0.28155562867E+03 -0.23652590601E+03  0.10707890370E+03  0.39350383698E+03  0.90339923899E+02 0.  0.
          4    1    3    3  502    0 -0.30758865357E+02 -0.53923523749E+02 -0.52724502611E+02  0.81447697249E+02  0.00000000000E+00 0. -1.
         -1    1    3    3    0  502 -0.71270696264E+02  0.16628659652E+02 -0.89599397425E+02  0.11568956948E+03  0.00000000000E+00 0.  1.
         13    1    5    5    0    0  0.20456448450E+03  0.90988525057E+02 -0.12262505026E+03  0.25526935375E+03  0.00000000000E+00 0. -1.
        -13    1    5    5    0    0  0.17902070579E+03  0.18283224505E+03 -0.12305213821E+03  0.28393286469E+03  0.00000000000E+00 0.  1.
          2    1    6    6  503    0 -0.22255767538E+02 -0.78212221339E+01 -0.13684147666E+02  0.27271717982E+02  0.00000000000E+00 0.  1.
         -2    1    6    6    0  503 -0.25929986113E+03 -0.22870468387E+03  0.12076305136E+03  0.36623211900E+03  0.00000000000E+00 0. -1.
<mgrwt>
<rscale>  0 0.10943622E+04</rscale>
<asrwt>0</asrwt>
<pdfrwt beam="1">  1        4 0.65301626E-01 0.10943622E+04</pdfrwt>
<pdfrwt beam="2">  1       -1 0.10852042E+00 0.10943622E+04</pdfrwt>
<totfact> 0.71096183E+00</totfact>
</mgrwt>
</event>
<event>
12    7  0.1729738E-007  0.1906246E+04  0.7818608E-02  0.8651754E-01
         -1   -1    0    0    0  501 -0.00000000000E+00  0.00000000000E+00  0.10000370869E+04  0.10000370869E+04  0.00000000000E+00 0.  1.
          2   -1    0    0  501    0  0.00000000000E+00 -0.00000000000E+00 -0.90840944552E+03  0.90840944552E+03  0.00000000000E+00 0. -1.
         24    2    1    2    0    0 -0.80503267394E+02 -0.58166928648E+03 -0.41299998884E+03  0.72114858627E+03  0.68310744427E+02 0.  0.
        254    2    1    2    0    0  0.80503267394E+02  0.58166928648E+03  0.50462763021E+03  0.11872979462E+04  0.90011523310E+03 0.  0.
         23    2    4    4    0    0  0.81411854774E+02  0.80698319823E+03  0.30119276125E+03  0.86997082413E+03  0.91007599095E+02 0.  0.
         23    2    4    4    0    0 -0.90858737929E+00 -0.22531391174E+03  0.20343486896E+03  0.31732712202E+03  0.92431445432E+02 0.  0.
          2    1    3    3  502    0 -0.57837528745E+02 -0.48680070049E+03 -0.37178609899E+03  0.61526011176E+03  0.00000000000E+00 0. -1.
         -3    1    3    3    0  502 -0.22665738649E+02 -0.94868585998E+02 -0.41213889850E+02  0.10588847451E+03  0.00000000000E+00 0.  1.
         13    1    5    5    0    0 -0.15050129814E+02  0.28173512016E+03  0.10433610967E+03  0.30081091756E+03  0.00000000000E+00 0. -1.
        -13    1    5    5    0    0  0.96461984588E+02  0.52524807806E+03  0.19685665159E+03  0.56915990657E+03  0.00000000000E+00 0.  1.
          3    1    6    6  503    0 -0.10486537928E+01 -0.60191732677E+02  0.68400655312E+01  0.60588207219E+02  0.00000000000E+00 0. -1.
         -3    1    6    6    0  503  0.14006641352E+00 -0.16512217906E+03  0.19659480343E+03  0.25673891480E+03  0.00000000000E+00 0.  1.
<mgrwt>
<rscale>  0 0.19062457E+04</rscale>
<asrwt>0</asrwt>
<pdfrwt beam="1">  1        2 0.13975530E+00 0.19062457E+04</pdfrwt>
<pdfrwt beam="2">  1       -1 0.15385186E+00 0.19062457E+04</pdfrwt>
<totfact> 0.10068019E+01</totfact>
</mgrwt>
</event>
<event>
12    7  0.1729738E-007  0.2828913E+04  0.7818608E-02  0.8294348E-01
          2   -1    0    0  501    0  0.00000000000E+00  0.00000000000E+00  0.38737143325E+04  0.38737143325E+04  0.00000000000E+00 0. -1.
         -1   -1    0    0    0  501 -0.00000000000E+00 -0.00000000000E+00 -0.51647770177E+03  0.51647770177E+03  0.00000000000E+00 0.  1.
         24    2    1    2    0    0  0.85816120807E+03  0.78493540476E+03  0.69633203471E+03  0.13579359041E+04  0.80915810385E+02 0.  0.
        254    2    1    2    0    0 -0.85816120807E+03 -0.78493540476E+03  0.26609045960E+04  0.30322561302E+04  0.87269680949E+03 0.  0.
         23    2    4    4    0    0 -0.67036094844E+03 -0.61522825238E+03  0.10206441700E+04  0.13701894378E+04  0.88402319161E+02 0.  0.
         23    2    4    4    0    0 -0.18780025962E+03 -0.16970715238E+03  0.16402604260E+04  0.16620666924E+04  0.89117729077E+02 0.  0.
          2    1    3    3  502    0  0.11380161997E+03  0.98837280845E+02  0.60039632438E+02  0.16224787905E+03  0.00000000000E+00 0. -1.
         -1    1    3    3    0  502  0.74435958810E+03  0.68609812392E+03  0.63629240227E+03  0.11956880250E+04  0.00000000000E+00 0.  1.
         13    1    5    5    0    0 -0.21507875446E+03 -0.22832407170E+03  0.29952046782E+03  0.43370873058E+03  0.00000000000E+00 0. -1.
        -13    1    5    5    0    0 -0.45528219399E+03 -0.38690418068E+03  0.72112370218E+03  0.93648070724E+03  0.00000000000E+00 0.  1.
          2    1    6    6  503    0 -0.77655482370E+02 -0.19823967587E+02  0.40165390892E+03  0.40957200366E+03  0.00000000000E+00 0. -1.
         -2    1    6    6    0  503 -0.11014477726E+03 -0.14988318480E+03  0.12386065171E+04  0.12524946887E+04  0.00000000000E+00 0.  1.
<mgrwt>
<rscale>  0 0.28289129E+04</rscale>
<asrwt>0</asrwt>
<pdfrwt beam="1">  1        2 0.59595603E+00 0.28289129E+04</pdfrwt>
<pdfrwt beam="2">  1       -1 0.79458110E-01 0.28289129E+04</pdfrwt>
<totfact> 0.67311263E-01</totfact>
</mgrwt>
</event>
<event>
12    7  0.1729738E-007  0.1180186E+04  0.7818608E-02  0.9130378E-01
         -1   -1    0    0    0  501 -0.00000000000E+00  0.00000000000E+00  0.77010753067E+02  0.77010753067E+02  0.00000000000E+00 0.  1.
          2   -1    0    0  501    0  0.00000000000E+00 -0.00000000000E+00 -0.45215765350E+04  0.45215765350E+04  0.00000000000E+00 0. -1.
         24    2    1    2    0    0  0.19075557274E+03  0.22936337699E+02 -0.40395195433E+03  0.45434283081E+03  0.79601899405E+02 0.  0.
        254    2    1    2    0    0 -0.19075557274E+03 -0.22936337699E+02 -0.40406138276E+04  0.41442444572E+04  0.90071541205E+03 0.  0.
         23    2    4    4    0    0  0.27709972350E+03 -0.23622193834E+03 -0.21752819068E+04  0.22072912902E+04  0.87740555845E+02 0.  0.
         23    2    4    4    0    0 -0.46785529624E+03  0.21328560064E+03 -0.18653319208E+04  0.19369531670E+04  0.89135125750E+02 0.  0.
          2    1    3    3  502    0  0.72411474551E+02 -0.26726830329E+02 -0.18649397098E+03  0.20183593911E+03  0.00000000000E+00 0. -1.
         -1    1    3    3    0  502  0.11834409819E+03  0.49663168028E+02 -0.21745798335E+03  0.25250689170E+03  0.00000000000E+00 0.  1.
         13    1    5    5    0    0  0.19479223402E+03 -0.19413504022E+03 -0.14211982778E+04  0.14475624246E+04  0.00000000000E+00 0. -1.
        -13    1    5    5    0    0  0.82307489476E+02 -0.42086898116E+02 -0.75408362893E+03  0.75972886560E+03  0.00000000000E+00 0.  1.
          4    1    6    6  503    0 -0.42808597063E+03  0.21179947232E+03 -0.16399451905E+04  0.17080798701E+04  0.00000000000E+00 0. -1.
         -4    1    6    6    0  503 -0.39769325608E+02  0.14861283166E+01 -0.22538673030E+03  0.22887329690E+03  0.00000000000E+00 0.  1.
<mgrwt>
<rscale>  0 0.11801864E+04</rscale>
<asrwt>0</asrwt>
<pdfrwt beam="1">  1        2 0.69562727E+00 0.11801864E+04</pdfrwt>
<pdfrwt beam="2">  1       -1 0.11847806E-01 0.11801864E+04</pdfrwt>
<totfact> 0.67466760E+00</totfact>
</mgrwt>
</event>
<event>
12    7  0.1729738E-007  0.1832876E+04  0.7818608E-02  0.8689009E-01
          2   -1    0    0  501    0  0.00000000000E+00  0.00000000000E+00  0.11164518797E+04  0.11164518797E+04  0.00000000000E+00 0. -1.
         -1   -1    0    0    0  501 -0.00000000000E+00 -0.00000000000E+00 -0.75225718377E+03  0.75225718377E+03  0.00000000000E+00 0.  1.
         24    2    1    2    0    0  0.34732746026E+03  0.56659436564E+03  0.33619279549E+03  0.74902444737E+03  0.79664842909E+02 0.  0.
        254    2    1    2    0    0 -0.34732746026E+03 -0.56659436564E+03  0.28001900438E+02  0.11196846161E+04  0.90069084223E+03 0.  0.
         23    2    4    4    0    0 -0.56095139701E+03 -0.29607987906E+03 -0.22852393943E+03  0.68031244072E+03  0.90950874188E+02 0.  0.
         23    2    4    4    0    0  0.21362393675E+03 -0.27051448657E+03  0.25652583987E+03  0.43937217537E+03  0.91810283589E+02 0.  0.
          2    1    3    3  502    0  0.27313438389E+03  0.46507223113E+03  0.30442819588E+03  0.61933117011E+03  0.00000000000E+00 0. -1.
         -1    1    3    3    0  502  0.74193076375E+02  0.10152213451E+03  0.31764599611E+02  0.12969327726E+03  0.00000000000E+00 0.  1.
         13    1    5    5    0    0 -0.42601516815E+03 -0.17887774194E+03 -0.16331877053E+03  0.49006039512E+03  0.00000000000E+00 0. -1.
        -13    1    5    5    0    0 -0.13493622886E+03 -0.11720213713E+03 -0.65205168894E+02  0.19025204561E+03  0.00000000000E+00 0.  1.
          3    1    6    6  503    0  0.11637262350E+03 -0.21566012429E+03  0.17665436015E+03  0.30209044949E+03  0.00000000000E+00 0. -1.
         -3    1    6    6    0  503  0.97251313253E+02 -0.54854362282E+02  0.79871479713E+02  0.13728172589E+03  0.00000000000E+00 0.  1.
<mgrwt>
<rscale>  0 0.18328764E+04</rscale>
<asrwt>0</asrwt>
<pdfrwt beam="1">  1        2 0.17176183E+00 0.18328764E+04</pdfrwt>
<pdfrwt beam="2">  1       -1 0.11573187E+00 0.18328764E+04</pdfrwt>
<totfact> 0.15452596E+01</totfact>
</mgrwt>
</event>
<event>
12    7  0.1729738E-007  0.3039867E+04  0.7818608E-02  0.8232437E-01
         -1   -1    0    0    0  501 -0.00000000000E+00  0.00000000000E+00  0.73790031341E+03  0.73790031341E+03  0.00000000000E+00 0.  1.
          2   -1    0    0  501    0  0.00000000000E+00 -0.00000000000E+00 -0.31307723615E+04  0.31307723615E+04  0.00000000000E+00 0. -1.
         24    2    1    2    0    0 -0.24144581855E+03 -0.11954749483E+03 -0.28336792881E+04  0.28475001271E+04  0.77012851415E+02 0.  0.
        254    2    1    2    0    0  0.24144581855E+03  0.11954749483E+03  0.44080724001E+03  0.10211725478E+04  0.88084883081E+03 0.  0.
         23    2    4    4    0    0  0.11991165135E+03  0.48849645512E+03  0.16636434507E+03  0.53687222866E+03  0.86874068650E+02 0.  0.
         23    2    4    4    0    0  0.12153416720E+03 -0.36894896029E+03  0.27444289494E+03  0.48430031914E+03  0.91290785110E+02 0.  0.
          4    1    3    3  502    0 -0.79142497947E+02 -0.22834956117E+02 -0.12245333055E+04  0.12273006096E+04  0.00000000000E+00 0. -1.
         -3    1    3    3    0  502 -0.16230332061E+03 -0.96712538718E+02 -0.16091459826E+04  0.16201995174E+04  0.00000000000E+00 0.  1.
         13    1    5    5    0    0  0.41385994700E+02  0.33859816867E+03  0.10602677895E+03  0.35721589863E+03  0.00000000000E+00 0.  1.
        -13    1    5    5    0    0  0.78525656654E+02  0.14989828645E+03  0.60337566117E+02  0.17965633003E+03  0.00000000000E+00 0. -1.
          3    1    6    6  503    0 -0.85169505445E+01 -0.57723238468E+02  0.19615203064E+02  0.61557021509E+02  0.00000000000E+00 0. -1.
         -3    1    6    6    0  503  0.13005111774E+03 -0.31122572182E+03  0.25482769188E+03  0.42274329763E+03  0.00000000000E+00 0.  1.
<mgrwt>
<rscale>  0 0.30398670E+04</rscale>
<asrwt>0</asrwt>
<pdfrwt beam="1">  1        2 0.48165729E+00 0.30398670E+04</pdfrwt>
<pdfrwt beam="2">  1       -1 0.11352313E+00 0.30398670E+04</pdfrwt>
<totfact> 0.98611172E-01</totfact>
</mgrwt>
</event>
<event>
12    7  0.1729738E-007  0.3052778E+04  0.7818608E-02  0.8228818E-01
         -1   -1    0    0    0  501 -0.00000000000E+00  0.00000000000E+00  0.71653810584E+03  0.71653810584E+03  0.00000000000E+00 0.  1.
          2   -1    0    0  501    0  0.00000000000E+00 -0.00000000000E+00 -0.32515558920E+04  0.32515558920E+04  0.00000000000E+00 0. -1.
         24    2    1    2    0    0 -0.52011885170E+03  0.26956273178E+03 -0.28030211865E+04  0.28650637302E+04  0.92058241426E+02 0.  0.
        254    2    1    2    0    0  0.52011885170E+03 -0.26956273178E+03  0.26800340033E+03  0.11030302677E+04  0.89535594180E+03 0.  0.
         23    2    4    4    0    0  0.65921303884E+03 -0.45192556347E+02 -0.64163690184E+02  0.66959792500E+03  0.87408262238E+02 0.  0.
         23    2    4    4    0    0 -0.13909418713E+03 -0.22437017543E+03  0.33216709052E+03  0.43343234265E+03  0.88540674928E+02 0.  0.
          4    1    3    3  502    0 -0.49363761198E+03  0.27060380111E+03 -0.25948265728E+04  0.26551891556E+04  0.00000000000E+00 0. -1.
         -3    1    3    3    0  502 -0.26481239722E+02 -0.10410693297E+01 -0.20819461373E+03  0.20987457462E+03  0.00000000000E+00 0.  1.
         13    1    5    5    0    0  0.62012373423E+03 -0.45485316777E+02 -0.80985919666E+02  0.62704152891E+03  0.00000000000E+00 0.  1.
        -13    1    5    5    0    0  0.39089304608E+02  0.29276043069E+00  0.16822229483E+02  0.42556396090E+02  0.00000000000E+00 0. -1.
          3    1    6    6  503    0 -0.49755696189E+02 -0.24431990924E+02  0.40240683650E+02  0.68497183185E+02  0.00000000000E+00 0. -1.
         -3    1    6    6    0  503 -0.89338490946E+02 -0.19993818451E+03  0.29192640687E+03  0.36493515947E+03  0.00000000000E+00 0.  1.
<mgrwt>
<rscale>  0 0.30527782E+04</rscale>
<asrwt>0</asrwt>
<pdfrwt beam="1">  1        2 0.50023937E+00 0.30527782E+04</pdfrwt>
<pdfrwt beam="2">  1       -1 0.11023663E+00 0.30527782E+04</pdfrwt>
<totfact> 0.88110175E-01</totfact>
</mgrwt>
</event>
<event>
12    7  0.1729738E-007  0.1391680E+04  0.7818608E-02  0.8959863E-01
         -1   -1    0    0    0  501 -0.00000000000E+00  0.00000000000E+00  0.48605614753E+03  0.48605614753E+03  0.00000000000E+00 0.  1.
          2   -1    0    0  501    0  0.00000000000E+00 -0.00000000000E+00 -0.99616715496E+03  0.99616715496E+03  0.00000000000E+00 0. -1.
         24    2    1    2    0    0  0.29199815587E+02  0.14777838695E+02  0.27476141174E+03  0.28811767592E+03  0.80292889162E+02 0.  0.
        254    2    1    2    0    0 -0.29199815587E+02 -0.14777838695E+02 -0.78487241917E+03  0.11941056266E+04  0.89932892718E+03 0.  0.
         23    2    4    4    0    0 -0.29917116111E+02  0.30461088400E+03 -0.80121901241E+03  0.86240399256E+03  0.90032860978E+02 0.  0.
         23    2    4    4    0    0  0.71730052365E+00 -0.31938872270E+03  0.16346593235E+02  0.33170163400E+03  0.88028928085E+02 0.  0.
          4    1    3    3  502    0  0.53922777059E+02 -0.51208215267E+01  0.15367439319E+03  0.16294081079E+03  0.00000000000E+00 0. -1.
         -3    1    3    3    0  502 -0.24722961472E+02  0.19898660222E+02  0.12108701855E+03  0.12517686513E+03  0.00000000000E+00 0.  1.
         13    1    5    5    0    0 -0.44018483874E+02  0.27419726004E+03 -0.76074999259E+03  0.80985326793E+03  0.00000000000E+00 0. -1.
        -13    1    5    5    0    0  0.14101367763E+02  0.30413623962E+02 -0.40469019811E+02  0.52550724636E+02  0.00000000000E+00 0.  1.
          3    1    6    6  503    0  0.55130648975E+01 -0.28169570077E+03 -0.15425439346E+02  0.28217158946E+03  0.00000000000E+00 0. -1.
         -3    1    6    6    0  503 -0.47957643739E+01 -0.37693021925E+02  0.31772032581E+02  0.49530044539E+02  0.00000000000E+00 0.  1.
<mgrwt>
<rscale>  0 0.13916798E+04</rscale>
<asrwt>0</asrwt>
<pdfrwt beam="1">  1        2 0.15325649E+00 0.13916798E+04</pdfrwt>
<pdfrwt beam="2">  1       -1 0.74777869E-01 0.13916798E+04</pdfrwt>
<totfact> 0.50648198E+01</totfact>
</mgrwt>
</event>
<event>
12    7  0.1729738E-007  0.2267164E+04  0.7818608E-02  0.8490982E-01
          2   -1    0    0  501    0  0.00000000000E+00  0.00000000000E+00  0.22372568751E+04  0.22372568751E+04  0.00000000000E+00 0. -1.
         -1   -1    0    0    0  501 -0.00000000000E+00 -0.00000000000E+00 -0.57436749466E+03  0.57436749466E+03  0.00000000000E+00 0.  1.
         24    2    1    2    0    0  0.56097645404E+03 -0.74271431081E+03  0.88313250293E+03  0.12853955072E+04  0.77456197964E+02 0.  0.
        254    2    1    2    0    0 -0.56097645404E+03  0.74271431081E+03  0.77975687753E+03  0.15262288626E+04  0.92468082254E+03 0.  0.
         23    2    4    4    0    0 -0.69054208614E+03  0.64773900855E+03  0.89726535460E+03  0.13072533375E+04  0.86092833052E+02 0.  0.
         23    2    4    4    0    0  0.12956563210E+03  0.94975302267E+02 -0.11750847707E+03  0.21897552513E+03  0.91293358793E+02 0.  0.
          4    1    3    3  502    0  0.35323129653E+03 -0.45922120540E+03  0.49773452049E+03  0.76380371643E+03  0.00000000000E+00 0. -1.
         -3    1    3    3    0  502  0.20774515751E+03 -0.28349310542E+03  0.38539798244E+03  0.52159179073E+03  0.00000000000E+00 0.  1.
         13    1    5    5    0    0 -0.78313025530E+02  0.11467834629E+03  0.13612064883E+03  0.19445535250E+03  0.00000000000E+00 0. -1.
        -13    1    5    5    0    0 -0.61222906061E+03  0.53306066225E+03  0.76114470577E+03  0.11127979850E+04  0.00000000000E+00 0.  1.
          4    1    6    6  503    0  0.34380625186E+02  0.23527699212E+02  0.11733757480E+02  0.43281186247E+02  0.00000000000E+00 0. -1.
         -4    1    6    6    0  503  0.95185006915E+02  0.71447603055E+02 -0.12924223455E+03  0.17569433888E+03  0.00000000000E+00 0.  1.
<mgrwt>
<rscale>  0 0.22671635E+04</rscale>
<asrwt>0</asrwt>
<pdfrwt beam="1">  1        2 0.34419336E+00 0.22671635E+04</pdfrwt>
<pdfrwt beam="2">  1       -1 0.88364231E-01 0.22671635E+04</pdfrwt>
<totfact> 0.64006852E+00</totfact>
</mgrwt>
</event>
<event>
12    7  0.1729738E-007  0.2895374E+04  0.7818608E-02  0.8274255E-01
          2   -1    0    0  501    0  0.00000000000E+00  0.00000000000E+00  0.32777567129E+04  0.32777567129E+04  0.00000000000E+00 0. -1.
         -1   -1    0    0    0  501 -0.00000000000E+00 -0.00000000000E+00 -0.63940020138E+03  0.63940020138E+03  0.00000000000E+00 0.  1.
         24    2    1    2    0    0  0.40627675296E+03 -0.73271046929E+03  0.25590507019E+04  0.26939376359E+04  0.81449737549E+02 0.  0.
        254    2    1    2    0    0 -0.40627675296E+03  0.73271046929E+03  0.79305809634E+02  0.12232192783E+04  0.88772211848E+03 0.  0.
         23    2    4    4    0    0  0.17639241885E+03  0.25089187284E+03 -0.23633235337E+03  0.39749921179E+03  0.89953459275E+02 0.  0.
         23    2    4    4    0    0 -0.58266917182E+03  0.48181859644E+03  0.31563816300E+03  0.82572006654E+03  0.10263359433E+03 0.  0.
          2    1    3    3  502    0  0.34125368954E+03 -0.56040729295E+03  0.20614243196E+04  0.21633262907E+04  0.00000000000E+00 0. -1.
         -1    1    3    3    0  502  0.65023063425E+02 -0.17230317634E+03  0.49762638229E+03  0.53061134524E+03  0.00000000000E+00 0.  1.
         13    1    5    5    0    0  0.17792146924E+03  0.25449276024E+03 -0.23975017017E+03  0.39230442047E+03  0.00000000000E+00 0. -1.
        -13    1    5    5    0    0 -0.15290503849E+01 -0.36008873954E+01  0.34178167981E+01  0.51947913123E+01  0.00000000000E+00 0.  1.
          1    1    6    6  503    0 -0.54985295351E+03  0.47656535907E+03  0.28823150575E+03  0.78264309417E+03  0.00000000000E+00 0. -1.
         -1    1    6    6    0  503 -0.32816218310E+02  0.52532373715E+01  0.27406657251E+02  0.43076972372E+02  0.00000000000E+00 0.  1.
<mgrwt>
<rscale>  0 0.28953745E+04</rscale>
<asrwt>0</asrwt>
<pdfrwt beam="1">  1        2 0.50427025E+00 0.28953745E+04</pdfrwt>
<pdfrwt beam="2">  1       -1 0.98369264E-01 0.28953745E+04</pdfrwt>
<totfact> 0.11182808E+00</totfact>
</mgrwt>
</event>
<event>
12    7  0.1729738E-007  0.1307662E+04  0.7818608E-02  0.9023511E-01
          2   -1    0    0  501    0  0.00000000000E+00  0.00000000000E+00  0.19530809015E+04  0.19530809015E+04  0.00000000000E+00 0. -1.
         -1   -1    0    0    0  501 -0.00000000000E+00 -0.00000000000E+00 -0.21888245593E+03  0.21888245593E+03  0.00000000000E+00 0.  1.
         24    2    1    2    0    0 -0.82322106167E+02  0.52106288153E+02  0.10089479664E+04  0.10170987929E+04  0.83797143594E+02 0.  0.
        254    2    1    2    0    0  0.82322106167E+02 -0.52106288153E+02  0.72525047914E+03  0.11548645645E+04  0.89343825210E+03 0.  0.
         23    2    4    4    0    0 -0.22083802219E+03 -0.20035785470E+03  0.73895574013E+03  0.80206281270E+03  0.91304258666E+02 0.  0.
         23    2    4    4    0    0  0.30316012836E+03  0.14825156654E+03 -0.13705260991E+02  0.35280175176E+03  0.10196397138E+03 0.  0.
          2    1    3    3  502    0 -0.79035404536E+02  0.72852279639E+02  0.83878227509E+03  0.84564162317E+03  0.00000000000E+00 0. -1.
         -1    1    3    3    0  502 -0.32867016305E+01 -0.20745991485E+02  0.17016569130E+03  0.17145716977E+03  0.00000000000E+00 0.  1.
         13    1    5    5    0    0 -0.75046686048E+02 -0.11908950552E+03  0.27375863259E+03  0.30782804345E+03  0.00000000000E+00 0.  1.
        -13    1    5    5    0    0 -0.14579133615E+03 -0.81268349171E+02  0.46519710754E+03  0.49423476925E+03  0.00000000000E+00 0. -1.
          3    1    6    6  503    0  0.18379935443E+03  0.55525735938E+02  0.32535996046E+02  0.19474059946E+03  0.00000000000E+00 0. -1.
         -3    1    6    6    0  503  0.11936077394E+03  0.92725830604E+02 -0.46241257037E+02  0.15806115231E+03  0.00000000000E+00 0.  1.
<mgrwt>
<rscale>  0 0.13076623E+04</rscale>
<asrwt>0</asrwt>
<pdfrwt beam="1">  1        2 0.30047397E+00 0.13076623E+04</pdfrwt>
<pdfrwt beam="2">  1       -1 0.33674225E-01 0.13076623E+04</pdfrwt>
<totfact> 0.65882265E+01</totfact>
</mgrwt>
</event>
<event>
12    7  0.1729738E-007  0.2659243E+04  0.7818608E-02  0.8348352E-01
         -1   -1    0    0    0  501 -0.00000000000E+00  0.00000000000E+00  0.73660880774E+03  0.73660880774E+03  0.00000000000E+00 0.  1.
          2   -1    0    0  501    0  0.00000000000E+00 -0.00000000000E+00 -0.24000439014E+04  0.24000439014E+04  0.00000000000E+00 0. -1.
         24    2    1    2    0    0  0.23846936318E+03 -0.73581446837E+03 -0.17825651080E+04  0.19447797472E+04  0.79619918938E+02 0.  0.
        254    2    1    2    0    0 -0.23846936318E+03  0.73581446837E+03  0.11913001436E+03  0.11918729620E+04  0.89893193747E+03 0.  0.
         23    2    4    4    0    0 -0.41018281758E+03 -0.29654712482E+01  0.68876150334E+01  0.41991003533E+03  0.89544741180E+02 0.  0.
         23    2    4    4    0    0  0.17171345440E+03  0.73877993962E+03  0.11224239933E+03  0.77196292667E+03  0.89705598159E+02 0.  0.
          2    1    3    3  502    0  0.84040108095E+02 -0.36931786418E+03 -0.92168199526E+03  0.99647183852E+03  0.00000000000E+00 0. -1.
         -1    1    3    3    0  502  0.15442925509E+03 -0.36649660419E+03 -0.86088311278E+03  0.94830790864E+03  0.00000000000E+00 0.  1.
         13    1    5    5    0    0 -0.10581998936E+03  0.16383821410E+02  0.37367330006E+02  0.11341347849E+03  0.00000000000E+00 0.  1.
        -13    1    5    5    0    0 -0.30436282822E+03 -0.19349292658E+02 -0.30479714972E+02  0.30649655684E+03  0.00000000000E+00 0. -1.
          3    1    6    6  503    0  0.14127168462E+03  0.44587549396E+03  0.92813099292E+02  0.47684055657E+03  0.00000000000E+00 0. -1.
         -3    1    6    6    0  503  0.30441769783E+02  0.29290444566E+03  0.19429300035E+02  0.29512237011E+03  0.00000000000E+00 0.  1.
<mgrwt>
<rscale>  0 0.26592431E+04</rscale>
<asrwt>0</asrwt>
<pdfrwt beam="1">  1        2 0.36923753E+00 0.26592431E+04</pdfrwt>
<pdfrwt beam="2">  1       -1 0.11332443E+00 0.26592431E+04</pdfrwt>
<totfact> 0.28284933E+00</totfact>
</mgrwt>
</event>
<event>
12    7  0.1729738E-007  0.1347622E+04  0.7818608E-02  0.8992630E-01
          2   -1    0    0  501    0  0.00000000000E+00  0.00000000000E+00  0.58619584582E+03  0.58619584582E+03  0.00000000000E+00 0. -1.
         -1   -1    0    0    0  501 -0.00000000000E+00 -0.00000000000E+00 -0.77452198588E+03  0.77452198588E+03  0.00000000000E+00 0.  1.
         24    2    1    2    0    0  0.18362422203E+03  0.18505770877E+03 -0.25160442638E+03  0.37165629091E+03  0.82821499068E+02 0.  0.
        254    2    1    2    0    0 -0.18362422203E+03 -0.18505770877E+03  0.63278286320E+02  0.98906154078E+03  0.95198444286E+03 0.  0.
         23    2    4    4    0    0  0.32424258835E+03  0.46174143796E+02  0.21744217288E+03  0.40314575814E+03  0.89331383660E+02 0.  0.
         23    2    4    4    0    0 -0.50786681038E+03 -0.23123185257E+03 -0.15416388656E+03  0.58591578264E+03  0.90188323577E+02 0.  0.
          4    1    3    3  502    0  0.62039238362E+02  0.27420138664E+02 -0.31221023079E+02  0.74669159517E+02  0.00000000000E+00 0. -1.
         -3    1    3    3    0  502  0.12158498367E+03  0.15763757011E+03 -0.22038340330E+03  0.29698713140E+03  0.00000000000E+00 0.  1.
         13    1    5    5    0    0  0.15283363763E+02 -0.10017356708E+02  0.36245896161E+02  0.40591792666E+02  0.00000000000E+00 0. -1.
        -13    1    5    5    0    0  0.30895922458E+03  0.56191500505E+02  0.18119627672E+03  0.36255396547E+03  0.00000000000E+00 0.  1.
          3    1    6    6  503    0 -0.17097018823E+03 -0.86989976736E+02 -0.99534997855E+01  0.19208626571E+03  0.00000000000E+00 0. -1.
         -3    1    6    6    0  503 -0.33689662215E+03 -0.14424187583E+03 -0.14421038677E+03  0.39382951694E+03  0.00000000000E+00 0.  1.
<mgrwt>
<rscale>  0 0.13476225E+04</rscale>
<asrwt>0</asrwt>
<pdfrwt beam="1">  1        2 0.90183976E-01 0.13476225E+04</pdfrwt>
<pdfrwt beam="2">  1       -1 0.11915723E+00 0.13476225E+04</pdfrwt>
<totfact> 0.35888380E+01</totfact>
</mgrwt>
</event>
<event>
12    7  0.1729738E-007  0.2279749E+04  0.7818608E-02  0.8485949E-01
         -1   -1    0    0    0  501 -0.00000000000E+00  0.00000000000E+00  0.56316321166E+03  0.56316321166E+03  0.00000000000E+00 0.  1.
          2   -1    0    0  501    0  0.00000000000E+00 -0.00000000000E+00 -0.23071701708E+04  0.23071701708E+04  0.00000000000E+00 0. -1.
         24    2    1    2    0    0  0.42205330516E+03  0.47622573816E+03 -0.16392980278E+04  0.17604127980E+04  0.82675566762E+02 0.  0.
        254    2    1    2    0    0 -0.42205330516E+03 -0.47622573816E+03 -0.10470893134E+03  0.11099205845E+04  0.90334921122E+03 0.  0.
         23    2    4    4    0    0 -0.11652506767E+03 -0.19158615634E+03  0.38794539354E+03  0.45753053912E+03  0.92461987675E+02 0.  0.
         23    2    4    4    0    0 -0.30552823750E+03 -0.28463958182E+03 -0.49265432488E+03  0.65239004533E+03  0.92397467372E+02 0.  0.
          2    1    3    3  502    0  0.39080644694E+03  0.46535382954E+03 -0.15734341908E+04  0.16867065596E+04  0.00000000000E+00 0. -1.
         -1    1    3    3    0  502  0.31246858223E+02  0.10871908623E+02 -0.65863837030E+02  0.73706238367E+02  0.00000000000E+00 0.  1.
         13    1    5    5    0    0 -0.13240774541E+03 -0.16926102300E+03  0.33706656594E+03  0.39974363638E+03  0.00000000000E+00 0. -1.
        -13    1    5    5    0    0  0.15882677739E+02 -0.22325133344E+02  0.50878827598E+02  0.57786902744E+02  0.00000000000E+00 0.  1.
          4    1    6    6  503    0 -0.18725557728E+03 -0.19662922457E+03 -0.37906227271E+03  0.46627878975E+03  0.00000000000E+00 0. -1.
         -4    1    6    6    0  503 -0.11827266022E+03 -0.88010357251E+02 -0.11359205217E+03  0.18611125558E+03  0.00000000000E+00 0.  1.
<mgrwt>
<rscale>  0 0.22797486E+04</rscale>
<asrwt>0</asrwt>
<pdfrwt beam="1">  1        2 0.35494926E+00 0.22797486E+04</pdfrwt>
<pdfrwt beam="2">  1       -1 0.86640493E-01 0.22797486E+04</pdfrwt>
<totfact> 0.60941349E+00</totfact>
</mgrwt>
</event>
<event>
12    7  0.1729738E-007  0.2069838E+04  0.7818608E-02  0.8574648E-01
          2   -1    0    0  501    0  0.00000000000E+00  0.00000000000E+00  0.19791484805E+04  0.19791484805E+04  0.00000000000E+00 0. -1.
         -1   -1    0    0    0  501 -0.00000000000E+00 -0.00000000000E+00 -0.54117059042E+03  0.54117059042E+03  0.00000000000E+00 0.  1.
         24    2    1    2    0    0  0.57024035793E+03 -0.25577463712E+03  0.12608602722E+04  0.14095380125E+04  0.80212543204E+02 0.  0.
        254    2    1    2    0    0 -0.57024035793E+03  0.25577463712E+03  0.17711761787E+03  0.11107810583E+04  0.90103783392E+03 0.  0.
         23    2    4    4    0    0  0.21330940418E+03  0.17415133554E+03  0.12921432659E+03  0.31643916805E+03  0.87222791187E+02 0.  0.
         23    2    4    4    0    0 -0.78354976211E+03  0.81623301579E+02  0.47903291285E+02  0.79434189027E+03  0.89842752906E+02 0.  0.
          2    1    3    3  502    0  0.42631238323E+03 -0.22791426220E+03  0.95727255377E+03  0.10724075257E+04  0.00000000000E+00 0. -1.
         -3    1    3    3    0  502  0.14392797470E+03 -0.27860374923E+02  0.30358771839E+03  0.33713048683E+03  0.00000000000E+00 0.  1.
         13    1    5    5    0    0  0.20996921271E+03  0.13574202039E+03  0.10715823357E+03  0.27202178847E+03  0.00000000000E+00 0.  1.
        -13    1    5    5    0    0  0.33401914715E+01  0.38409315150E+02  0.22056093020E+02  0.44417379579E+02  0.00000000000E+00 0. -1.
          2    1    6    6  503    0 -0.45430875690E+03  0.42434847750E+01  0.39224829652E+02  0.45601868495E+03  0.00000000000E+00 0. -1.
         -2    1    6    6    0  503 -0.32924100521E+03  0.77379816804E+02  0.86784616333E+01  0.33832320532E+03  0.00000000000E+00 0.  1.
<mgrwt>
<rscale>  0 0.20698376E+04</rscale>
<asrwt>0</asrwt>
<pdfrwt beam="1">  1        2 0.30448438E+00 0.20698376E+04</pdfrwt>
<pdfrwt beam="2">  1       -1 0.83257015E-01 0.20698376E+04</pdfrwt>
<totfact> 0.10333645E+01</totfact>
</mgrwt>
</event>
<event>
12    7  0.1729738E-007  0.3496607E+04  0.7818608E-02  0.8114594E-01
         -1   -1    0    0    0  501 -0.00000000000E+00  0.00000000000E+00  0.19309903995E+04  0.19309903995E+04  0.00000000000E+00 0.  1.
          2   -1    0    0  501    0  0.00000000000E+00 -0.00000000000E+00 -0.15829003082E+04  0.15829003082E+04  0.00000000000E+00 0. -1.
         24    2    1    2    0    0  0.14731237238E+04  0.21973068246E+02 -0.53846199169E+03  0.15705886962E+04  0.78938044788E+02 0.  0.
        254    2    1    2    0    0 -0.14731237238E+04 -0.21973068246E+02  0.88655208300E+03  0.19433020116E+04  0.90546771950E+03 0.  0.
         23    2    4    4    0    0 -0.12008278739E+03 -0.90652115587E+02 -0.15272040978E+03  0.23331385059E+03  0.92055132526E+02 0.  0.
         23    2    4    4    0    0 -0.13530409364E+04  0.68679047340E+02  0.10392724928E+04  0.17099881610E+04  0.92388361761E+02 0.  0.
          2    1    3    3  502    0  0.13521483111E+04  0.40221306937E+02 -0.50259689255E+03  0.14430961316E+04  0.00000000000E+00 0. -1.
         -1    1    3    3    0  502  0.12097541270E+03 -0.18248238691E+02 -0.35865099143E+02  0.12749256461E+03  0.00000000000E+00 0.  1.
         13    1    5    5    0    0 -0.13552529518E+03 -0.82431308166E+02 -0.14120524261E+03  0.21236983482E+03  0.00000000000E+00 0.  1.
        -13    1    5    5    0    0  0.15442507792E+02 -0.82208074204E+01 -0.11515167167E+02  0.20944015766E+02  0.00000000000E+00 0. -1.
          3    1    6    6  503    0 -0.80002211773E+03 -0.86782519940E+00  0.58890656372E+03  0.99340177308E+03  0.00000000000E+00 0. -1.
         -3    1    6    6    0  503 -0.55301881865E+03  0.69546872540E+02  0.45036592907E+03  0.71658638790E+03  0.00000000000E+00 0.  1.
<mgrwt>
<rscale>  0 0.34966071E+04</rscale>
<asrwt>0</asrwt>
<pdfrwt beam="1">  1        2 0.24352312E+00 0.34966071E+04</pdfrwt>
<pdfrwt beam="2">  1       -1 0.29707545E+00 0.34966071E+04</pdfrwt>
<totfact> 0.36796914E-01</totfact>
</mgrwt>
</event>
<event>
12    7  0.1729738E-007  0.1472449E+04  0.7818608E-02  0.8902983E-01
          2   -1    0    0  501    0  0.00000000000E+00  0.00000000000E+00  0.77338113165E+03  0.77338113165E+03  0.00000000000E+00 0. -1.
         -1   -1    0    0    0  501 -0.00000000000E+00 -0.00000000000E+00 -0.70085324642E+03  0.70085324642E+03  0.00000000000E+00 0.  1.
         24    2    1    2    0    0  0.13003434238E+03 -0.13287462234E+03  0.41222878044E+03  0.45929562707E+03  0.80344944813E+02 0.  0.
        254    2    1    2    0    0 -0.13003434238E+03  0.13287462234E+03 -0.33970089521E+03  0.10149387510E+04  0.93815743596E+03 0.  0.
         23    2    4    4    0    0  0.22560098110E+03  0.36314188784E+03  0.40650279510E+02  0.43857728416E+03  0.89049175041E+02 0.  0.
         23    2    4    4    0    0 -0.35563532348E+03 -0.23026726550E+03 -0.38035117472E+03  0.57636146685E+03  0.89588099059E+02 0.  0.
          2    1    3    3  502    0  0.67856573059E+02 -0.95620051826E+02  0.32714772556E+03  0.34752459360E+03  0.00000000000E+00 0. -1.
         -3    1    3    3    0  502  0.62177769322E+02 -0.37254570512E+02  0.85081054883E+02  0.11177103347E+03  0.00000000000E+00 0.  1.
         13    1    5    5    0    0  0.17244651548E+02  0.76633763415E+01 -0.13205139436E+02  0.23032174267E+02  0.00000000000E+00 0.  1.
        -13    1    5    5    0    0  0.20835632955E+03  0.35547851150E+03  0.53855418947E+02  0.41554510989E+03  0.00000000000E+00 0. -1.
          1    1    6    6  503    0 -0.32464078801E+03 -0.22249056832E+03 -0.37564513716E+03  0.54406154367E+03  0.00000000000E+00 0. -1.
         -1    1    6    6    0  503 -0.30994535475E+02 -0.77766971864E+01 -0.47060375655E+01  0.32299923189E+02  0.00000000000E+00 0.  1.
<mgrwt>
<rscale>  0 0.14724492E+04</rscale>
<asrwt>0</asrwt>
<pdfrwt beam="1">  1        2 0.11898171E+00 0.14724492E+04</pdfrwt>
<pdfrwt beam="2">  1       -1 0.10782358E+00 0.14724492E+04</pdfrwt>
<totfact> 0.31873674E+01</totfact>
</mgrwt>
</event>
<event>
12    7  0.1729738E-007  0.1443983E+04  0.7818608E-02  0.8922583E-01
          2   -1    0    0  501    0  0.00000000000E+00  0.00000000000E+00  0.15762974991E+04  0.15762974991E+04  0.00000000000E+00 0. -1.
         -1   -1    0    0    0  501 -0.00000000000E+00 -0.00000000000E+00 -0.33069351964E+03  0.33069351964E+03  0.00000000000E+00 0.  1.
         24    2    1    2    0    0  0.11187645040E+03  0.29375011488E+03  0.77767682065E+03  0.84270012910E+03  0.80974070309E+02 0.  0.
        254    2    1    2    0    0 -0.11187645040E+03 -0.29375011488E+03  0.46792715879E+03  0.10642908896E+04  0.90274791701E+03 0.  0.
         23    2    4    4    0    0 -0.47650339556E+03 -0.24358152785E+03  0.41198305585E+03  0.68133928299E+03  0.90031847428E+02 0.  0.
         23    2    4    4    0    0  0.36462694516E+03 -0.50168587024E+02  0.55944102944E+02  0.38295160664E+03  0.89735690298E+02 0.  0.
          2    1    3    3  502    0  0.95732632787E+01 -0.34067466142E+01  0.29343978681E+02  0.31053540493E+02  0.00000000000E+00 0. -1.
         -1    1    3    3    0  502  0.10230318712E+03  0.29715686149E+03  0.74833284197E+03  0.81164658861E+03  0.00000000000E+00 0.  1.
         13    1    5    5    0    0 -0.30674015435E+03 -0.11468455237E+03  0.22036615081E+03  0.39471927906E+03  0.00000000000E+00 0. -1.
        -13    1    5    5    0    0 -0.16976324121E+03 -0.12889697549E+03  0.19161690503E+03  0.28662000393E+03  0.00000000000E+00 0.  1.
          2    1    6    6  503    0  0.34030605076E+03 -0.59027707946E+02  0.71558617274E+02  0.35272243223E+03  0.00000000000E+00 0. -1.
         -2    1    6    6    0  503  0.24320894394E+02  0.88591209220E+01 -0.15614514330E+02  0.30229174408E+02  0.00000000000E+00 0.  1.
<mgrwt>
<rscale>  0 0.14439825E+04</rscale>
<asrwt>0</asrwt>
<pdfrwt beam="1">  1        2 0.24250730E+00 0.14439825E+04</pdfrwt>
<pdfrwt beam="2">  1       -1 0.50875927E-01 0.14439825E+04</pdfrwt>
<totfact> 0.49349900E+01</totfact>
</mgrwt>
</event>
<event>
12    7  0.2099732E-007  0.2598263E+04  0.7818608E-02  0.8368791E-01
          2   -1    0    0  501    0  0.00000000000E+00  0.00000000000E+00  0.33500578303E+04  0.33500578303E+04  0.00000000000E+00 0. -1.
         -1   -1    0    0    0  501 -0.00000000000E+00 -0.00000000000E+00 -0.50379523868E+03  0.50379523868E+03  0.00000000000E+00 0.  1.
         24    2    1    2    0    0  0.66773456097E+03  0.64897239401E+03  0.28689406879E+03  0.97741620398E+03  0.77457194642E+02 0.  0.
        254    2    1    2    0    0 -0.66773456097E+03 -0.64897239401E+03  0.25593685228E+04  0.28764368650E+04  0.92546593161E+03 0.  0.
         23    2    4    4    0    0 -0.77439402018E+03 -0.19108385236E+03  0.18913734021E+04  0.20547057633E+04  0.91232069330E+02 0.  0.
         23    2    4    4    0    0  0.10665945921E+03 -0.45788854165E+03  0.66799512074E+03  0.82173110170E+03  0.89366466643E+02 0.  0.
          4    1    3    3  502    0  0.19248799428E+02  0.77943824536E+01  0.15599171899E+02  0.25973117664E+02  0.00000000000E+00 0. -1.
         -3    1    3    3    0  502  0.64848576154E+03  0.64117801156E+03  0.27129489689E+03  0.95144308632E+03  0.00000000000E+00 0.  1.
         13    1    5    5    0    0 -0.77160712707E+03 -0.19234521388E+03  0.18912619202E+04  0.20516446795E+04  0.00000000000E+00 0. -1.
        -13    1    5    5    0    0 -0.27868931088E+01  0.12613615155E+01  0.11148186333E+00  0.30610838405E+01  0.00000000000E+00 0.  1.
          4    1    6    6  503    0  0.10800929884E+02 -0.45636159732E+02  0.28564042465E+02  0.54911052471E+02  0.00000000000E+00 0.  1.
         -4    1    6    6    0  503  0.95858529326E+02 -0.41225238192E+03  0.63943107827E+03  0.76682004923E+03  0.00000000000E+00 0. -1.
<mgrwt>
<rscale>  0 0.25982634E+04</rscale>
<asrwt>0</asrwt>
<pdfrwt beam="1">  1        2 0.51539350E+00 0.25982634E+04</pdfrwt>
<pdfrwt beam="2">  1       -1 0.77506962E-01 0.25982634E+04</pdfrwt>
<totfact> 0.17307105E+00</totfact>
</mgrwt>
</event>
<event>
12    7  0.1729738E-007  0.1785252E+04  0.7818608E-02  0.8714182E-01
          2   -1    0    0  501    0  0.00000000000E+00  0.00000000000E+00  0.18234229904E+04  0.18234229904E+04  0.00000000000E+00 0. -1.
         -1   -1    0    0    0  501 -0.00000000000E+00 -0.00000000000E+00 -0.43697006730E+03  0.43697006730E+03  0.00000000000E+00 0.  1.
         24    2    1    2    0    0 -0.57393520099E+03  0.24597507590E+03  0.27060915289E+03  0.68540489660E+03  0.81518131400E+02 0.  0.
        254    2    1    2    0    0  0.57393520099E+03 -0.24597507590E+03  0.11158437702E+04  0.15749881611E+04  0.91955154027E+03 0.  0.
         23    2    4    4    0    0 -0.10812368831E+03  0.18980249476E+03  0.63459989389E+02  0.24426750882E+03  0.89015316763E+02 0.  0.
         23    2    4    4    0    0  0.68205888930E+03 -0.43577757066E+03  0.10523837808E+04  0.13307206523E+04  0.90550608706E+02 0.  0.
          4    1    3    3  502    0 -0.49713306007E+03  0.18262949808E+03  0.23808753029E+03  0.58067244214E+03  0.00000000000E+00 0. -1.
         -3    1    3    3    0  502 -0.76802140927E+02  0.63345577818E+02  0.32521622604E+02  0.10473245446E+03  0.00000000000E+00 0.  1.
         13    1    5    5    0    0 -0.12338056623E+03  0.17491418012E+03  0.52963299680E+02  0.22050588573E+03  0.00000000000E+00 0.  1.
        -13    1    5    5    0    0  0.15256877919E+02  0.14888314641E+02  0.10496689709E+02  0.23761623083E+02  0.00000000000E+00 0. -1.
          3    1    6    6  503    0  0.38131082971E+03 -0.21793876644E+03  0.50513607739E+03  0.66937113133E+03  0.00000000000E+00 0. -1.
         -3    1    6    6    0  503  0.30074805959E+03 -0.21783880422E+03  0.54724770342E+03  0.66134952095E+03  0.00000000000E+00 0.  1.
<mgrwt>
<rscale>  0 0.17852521E+04</rscale>
<asrwt>0</asrwt>
<pdfrwt beam="1">  1        2 0.28052661E+00 0.17852521E+04</pdfrwt>
<pdfrwt beam="2">  1       -1 0.67226165E-01 0.17852521E+04</pdfrwt>
<totfact> 0.20204323E+01</totfact>
</mgrwt>
</event>
<event>
12    7  0.1729738E-007  0.1815070E+04  0.7818608E-02  0.8698326E-01
          2   -1    0    0  501    0  0.00000000000E+00  0.00000000000E+00  0.14159642671E+04  0.14159642671E+04  0.00000000000E+00 0. -1.
         -1   -1    0    0    0  501 -0.00000000000E+00 -0.00000000000E+00 -0.58166725262E+03  0.58166725262E+03  0.00000000000E+00 0.  1.
         24    2    1    2    0    0 -0.22619865422E+03  0.11144559603E+03  0.10134931543E+04  0.10470860117E+04  0.75065238722E+02 0.  0.
        254    2    1    2    0    0  0.22619865422E+03 -0.11144559603E+03 -0.17919613986E+03  0.95054550797E+03  0.89879895090E+03 0.  0.
         23    2    4    4    0    0 -0.27385739154E+03 -0.25252773670E+03 -0.18115479364E+03  0.42335002016E+03  0.87407388769E+02 0.  0.
         23    2    4    4    0    0  0.50005604575E+03  0.14108214067E+03  0.19586537821E+01  0.52719548781E+03  0.89280606678E+02 0.  0.
          4    1    3    3  502    0 -0.21300067134E+03  0.11735258921E+03  0.99055568745E+03  0.10199713163E+04  0.00000000000E+00 0. -1.
         -3    1    3    3    0  502 -0.13197982876E+02 -0.59069931861E+01  0.22937466871E+02  0.27114695406E+02  0.00000000000E+00 0.  1.
         13    1    5    5    0    0 -0.24142385284E+03 -0.24728356934E+03 -0.14581019581E+03  0.37509365975E+03  0.00000000000E+00 0.  1.
        -13    1    5    5    0    0 -0.32433538702E+02 -0.52441673525E+01 -0.35344597833E+02  0.48256360409E+02  0.00000000000E+00 0. -1.
          4    1    6    6  503    0  0.34987929055E+03  0.56506474798E+02  0.11241205525E+02  0.35459112278E+03  0.00000000000E+00 0. -1.
         -4    1    6    6    0  503  0.15017675520E+03  0.84575665869E+02 -0.92825517426E+01  0.17260436503E+03  0.00000000000E+00 0.  1.
<mgrwt>
<rscale>  0 0.18150703E+04</rscale>
<asrwt>0</asrwt>
<pdfrwt beam="1">  1        2 0.21784066E+00 0.18150703E+04</pdfrwt>
<pdfrwt beam="2">  1       -1 0.89487270E-01 0.18150703E+04</pdfrwt>
<totfact> 0.18627123E+01</totfact>
</mgrwt>
</event>
<event>
12    7  0.1729738E-007  0.1790410E+04  0.7818608E-02  0.8711416E-01
          2   -1    0    0  501    0  0.00000000000E+00  0.00000000000E+00  0.15515017024E+04  0.15515017024E+04  0.00000000000E+00 0. -1.
         -1   -1    0    0    0  501 -0.00000000000E+00 -0.00000000000E+00 -0.51652651444E+03  0.51652651444E+03  0.00000000000E+00 0.  1.
         24    2    1    2    0    0 -0.52336696729E+03  0.32422128279E+03  0.60056771528E+03  0.86342626590E+03  0.76098050831E+02 0.  0.
        254    2    1    2    0    0  0.52336696729E+03 -0.32422128279E+03  0.43440747270E+03  0.12046019510E+04  0.93985295937E+03 0.  0.
         23    2    4    4    0    0  0.67199296774E+03 -0.45865860046E+03  0.13157550757E+03  0.83016048607E+03  0.99559318850E+02 0.  0.
         23    2    4    4    0    0 -0.14862600044E+03  0.13443731767E+03  0.30283196513E+03  0.37444146489E+03  0.91302415799E+02 0.  0.
          4    1    3    3  502    0 -0.24077900204E+03  0.18614497629E+03  0.26555628755E+03  0.40391165108E+03  0.00000000000E+00 0. -1.
         -1    1    3    3    0  502 -0.28258796525E+03  0.13807630650E+03  0.33501142773E+03  0.45951461482E+03  0.00000000000E+00 0.  1.
         13    1    5    5    0    0  0.67516587901E+03 -0.45265781223E+03  0.13094038233E+03  0.82334284649E+03  0.00000000000E+00 0.  1.
        -13    1    5    5    0    0 -0.31729112661E+01 -0.60007882356E+01  0.63512523470E+00  0.68176395780E+01  0.00000000000E+00 0. -1.
          3    1    6    6  503    0  0.90416829271E+01  0.14926048454E+01  0.14914207316E+01  0.92846235883E+01  0.00000000000E+00 0. -1.
         -3    1    6    6    0  503 -0.15766768337E+03  0.13294471282E+03  0.30134054440E+03  0.36515684130E+03  0.00000000000E+00 0.  1.
<mgrwt>
<rscale>  0 0.17904097E+04</rscale>
<asrwt>0</asrwt>
<pdfrwt beam="1">  1        2 0.23869257E+00 0.17904097E+04</pdfrwt>
<pdfrwt beam="2">  1       -1 0.79465618E-01 0.17904097E+04</pdfrwt>
<totfact> 0.20223177E+01</totfact>
</mgrwt>
</event>
<event>
12    7  0.1729738E-007  0.1640548E+04  0.7818608E-02  0.8796018E-01
         -1   -1    0    0    0  501 -0.00000000000E+00  0.00000000000E+00  0.28920859035E+03  0.28920859035E+03  0.00000000000E+00 0.  1.
          2   -1    0    0  501    0  0.00000000000E+00 -0.00000000000E+00 -0.23265184073E+04  0.23265184073E+04  0.00000000000E+00 0. -1.
         24    2    1    2    0    0 -0.49100119962E+03  0.18431811435E+03 -0.10841490767E+04  0.12067046778E+04  0.75509031248E+02 0.  0.
        254    2    1    2    0    0  0.49100119962E+03 -0.18431811435E+03 -0.95316074031E+03  0.14090223198E+04  0.89541786648E+03 0.  0.
         23    2    4    4    0    0  0.25164318175E+03 -0.48106387395E+03 -0.25298556111E+03  0.60625251184E+03  0.93774582060E+02 0.  0.
         23    2    4    4    0    0  0.23935801787E+03  0.29674575960E+03 -0.70017517920E+03  0.80276980800E+03  0.94041355261E+02 0.  0.
          2    1    3    3  502    0 -0.91042390864E+02  0.52163722372E+02 -0.16356397573E+03  0.19432690247E+03  0.00000000000E+00 0. -1.
         -3    1    3    3    0  502 -0.39995880876E+03  0.13215439197E+03 -0.92058510093E+03  0.10123777754E+04  0.00000000000E+00 0.  1.
         13    1    5    5    0    0 -0.30047527857E+01  0.28217756560E+01 -0.14311111694E+01  0.43633744207E+01  0.00000000000E+00 0. -1.
        -13    1    5    5    0    0  0.25464793454E+03 -0.48388564960E+03 -0.25155444994E+03  0.60188913742E+03  0.00000000000E+00 0.  1.
          2    1    6    6  503    0  0.38198622193E+02  0.21430063047E+02 -0.14284101264E+03  0.14940527846E+03  0.00000000000E+00 0. -1.
         -2    1    6    6    0  503  0.20115939568E+03  0.27531569656E+03 -0.55733416656E+03  0.65336452954E+03  0.00000000000E+00 0.  1.
<mgrwt>
<rscale>  0 0.16405476E+04</rscale>
<asrwt>0</asrwt>
<pdfrwt beam="1">  1        2 0.35792591E+00 0.16405476E+04</pdfrwt>
<pdfrwt beam="2">  1       -1 0.44493629E-01 0.16405476E+04</pdfrwt>
<totfact> 0.23872646E+01</totfact>
</mgrwt>
</event>
<event>
12    7  0.1729738E-007  0.2147010E+04  0.7818608E-02  0.8540813E-01
         -1   -1    0    0    0  501 -0.00000000000E+00  0.00000000000E+00  0.88515492966E+03  0.88515492966E+03  0.00000000000E+00 0.  1.
          2   -1    0    0  501    0  0.00000000000E+00 -0.00000000000E+00 -0.13019341431E+04  0.13019341431E+04  0.00000000000E+00 0. -1.
         24    2    1    2    0    0 -0.41366020661E+03 -0.80461129348E+02 -0.95944537417E+03  0.10510063013E+04  0.80560905988E+02 0.  0.
        254    2    1    2    0    0  0.41366020661E+03  0.80461129348E+02  0.54266616075E+03  0.11360827714E+04  0.90476999374E+03 0.  0.
         23    2    4    4    0    0  0.15250098943E+03 -0.25464911275E+03  0.62174256537E+03  0.69489988995E+03  0.90660449260E+02 0.  0.
         23    2    4    4    0    0  0.26115921718E+03  0.33511024210E+03 -0.79076404620E+02  0.44118288144E+03  0.88804538360E+02 0.  0.
          4    1    3    3  502    0 -0.31382997390E+03 -0.95551818243E+02 -0.72873679982E+03  0.79917252574E+03  0.00000000000E+00 0. -1.
         -3    1    3    3    0  502 -0.99830232710E+02  0.15090688895E+02 -0.23070857435E+03  0.25183377560E+03  0.00000000000E+00 0.  1.
         13    1    5    5    0    0  0.14990277586E+03 -0.23224452263E+03  0.60946414966E+03  0.66921962779E+03  0.00000000000E+00 0. -1.
        -13    1    5    5    0    0  0.25982135773E+01 -0.22404590126E+02  0.12278415716E+02  0.25680262168E+02  0.00000000000E+00 0.  1.
          1    1    6    6  503    0  0.20657862130E+03  0.29350510273E+03 -0.93847650405E+02  0.37098160816E+03  0.00000000000E+00 0. -1.
         -1    1    6    6    0  503  0.54580595875E+02  0.41605139365E+02  0.14771245785E+02  0.70201273277E+02  0.00000000000E+00 0.  1.
<mgrwt>
<rscale>  0 0.21470104E+04</rscale>
<asrwt>0</asrwt>
<pdfrwt beam="1">  1        2 0.20029756E+00 0.21470104E+04</pdfrwt>
<pdfrwt beam="2">  1       -1 0.13617768E+00 0.21470104E+04</pdfrwt>
<totfact> 0.77721381E+00</totfact>
</mgrwt>
</event>
<event>
12    7  0.1729738E-007  0.1108051E+04  0.7818608E-02  0.9197380E-01
          2   -1    0    0  501    0  0.00000000000E+00  0.00000000000E+00  0.30925946648E+03  0.30925946648E+03  0.00000000000E+00 0. -1.
         -1   -1    0    0    0  501 -0.00000000000E+00 -0.00000000000E+00 -0.99251323334E+03  0.99251323334E+03  0.00000000000E+00 0.  1.
         24    2    1    2    0    0  0.14491729232E+03 -0.82060172742E+02 -0.19391008261E+03  0.26705266789E+03  0.77337660486E+02 0.  0.
        254    2    1    2    0    0 -0.14491729232E+03  0.82060172742E+02 -0.48934368426E+03  0.10347200319E+04  0.89635562674E+03 0.  0.
         23    2    4    4    0    0  0.14280833240E+03 -0.21789381884E+03 -0.53972120089E+03  0.60637806817E+03  0.92322536675E+02 0.  0.
         23    2    4    4    0    0 -0.28772562472E+03  0.29995399158E+03  0.50377516630E+02  0.42834196376E+03  0.90446180404E+02 0.  0.
          2    1    3    3  502    0  0.13069872072E+01 -0.13936902312E+02  0.26711270070E+01  0.14250627393E+02  0.00000000000E+00 0. -1.
         -1    1    3    3    0  502  0.14361030511E+03 -0.68123270430E+02 -0.19658120961E+03  0.25280204050E+03  0.00000000000E+00 0.  1.
         13    1    5    5    0    0  0.10518366252E+03 -0.78413364378E+02 -0.27901959926E+03  0.30832482116E+03  0.00000000000E+00 0. -1.
        -13    1    5    5    0    0  0.37624669887E+02 -0.13948045446E+03 -0.26070160163E+03  0.29805324701E+03  0.00000000000E+00 0.  1.
          3    1    6    6  503    0 -0.13846155640E+03  0.81258078840E+02  0.22082208880E+02  0.16205586052E+03  0.00000000000E+00 0. -1.
         -3    1    6    6    0  503 -0.14926406832E+03  0.21869591274E+03  0.28295307750E+02  0.26628610324E+03  0.00000000000E+00 0.  1.
<mgrwt>
<rscale>  0 0.11080507E+04</rscale>
<asrwt>0</asrwt>
<pdfrwt beam="1">  1        2 0.47578379E-01 0.11080507E+04</pdfrwt>
<pdfrwt beam="2">  1       -1 0.15269434E+00 0.11080507E+04</pdfrwt>
<totfact> 0.40125330E+01</totfact>
</mgrwt>
</event>
<event>
12    7  0.1729738E-007  0.1898729E+04  0.7818608E-02  0.8655490E-01
         -1   -1    0    0    0  501 -0.00000000000E+00  0.00000000000E+00  0.21323300192E+04  0.21323300192E+04  0.00000000000E+00 0.  1.
          2   -1    0    0  501    0  0.00000000000E+00 -0.00000000000E+00 -0.42267966226E+03  0.42267966226E+03  0.00000000000E+00 0. -1.
         24    2    1    2    0    0 -0.34392197939E+02  0.71247454501E+03  0.81639107349E+03  0.10865464419E+04  0.72704779939E+02 0.  0.
        254    2    1    2    0    0  0.34392197939E+02 -0.71247454501E+03  0.89325928346E+03  0.14684632395E+04  0.92177510155E+03 0.  0.
         23    2    4    4    0    0 -0.20608934300E+03 -0.74098749960E+03  0.92534228735E+03  0.12068018897E+04  0.92612960029E+02 0.  0.
         23    2    4    4    0    0  0.24048154094E+03  0.28512954591E+02 -0.32083003891E+02  0.26166134984E+03  0.93770905680E+02 0.  0.
          4    1    3    3  502    0 -0.29611387668E+01  0.24511361993E+02  0.11490598533E+02  0.27232500146E+02  0.00000000000E+00 0. -1.
         -3    1    3    3    0  502 -0.31431059173E+02  0.68796318302E+03  0.80490047496E+03  0.10593139418E+04  0.00000000000E+00 0.  1.
         13    1    5    5    0    0 -0.13712588873E+03 -0.41021217751E+03  0.58157774355E+03  0.72478287213E+03  0.00000000000E+00 0. -1.
        -13    1    5    5    0    0 -0.68963454271E+02 -0.33077532209E+03  0.34376454381E+03  0.48201901758E+03  0.00000000000E+00 0.  1.
          3    1    6    6  503    0  0.14858793853E+03  0.71724752902E+01 -0.64175164986E+02  0.16201318366E+03  0.00000000000E+00 0. -1.
         -3    1    6    6    0  503  0.91893602404E+02  0.21340479301E+02  0.32092161094E+02  0.99648166181E+02  0.00000000000E+00 0.  1.
<mgrwt>
<rscale>  0 0.18987286E+04</rscale>
<asrwt>0</asrwt>
<pdfrwt beam="1">  1        2 0.65027642E-01 0.18987286E+04</pdfrwt>
<pdfrwt beam="2">  1       -1 0.32805077E+00 0.18987286E+04</pdfrwt>
<totfact> 0.17365104E+00</totfact>
</mgrwt>
</event>
<event>
12    7  0.1729738E-007  0.1955251E+04  0.7818608E-02  0.8627833E-01
          2   -1    0    0  501    0  0.00000000000E+00  0.00000000000E+00  0.32648553797E+04  0.32648553797E+04  0.00000000000E+00 0. -1.
         -1   -1    0    0    0  501 -0.00000000000E+00 -0.00000000000E+00 -0.29273945336E+03  0.29273945336E+03  0.00000000000E+00 0.  1.
         24    2    1    2    0    0  0.16515255946E+03 -0.73447763877E+03  0.89846097819E+03  0.11748663193E+04  0.79661591421E+02 0.  0.
        254    2    1    2    0    0 -0.16515255946E+03  0.73447763877E+03  0.20736549481E+04  0.23827285137E+04  0.90034302160E+03 0.  0.
         23    2    4    4    0    0 -0.20613308861E+03 -0.64023689046E+02  0.10741624215E+04  0.10995136492E+04  0.92279326863E+02 0.  0.
         23    2    4    4    0    0  0.40980529150E+02  0.79850132782E+03  0.99949252665E+03  0.12832148645E+04  0.91494826931E+02 0.  0.
          2    1    3    3  502    0  0.61207560847E+02 -0.14654225092E+03  0.16311432908E+03  0.22765605891E+03  0.00000000000E+00 0. -1.
         -1    1    3    3    0  502  0.10394499861E+03 -0.58793538785E+03  0.73534664910E+03  0.94721026038E+03  0.00000000000E+00 0.  1.
         13    1    5    5    0    0 -0.11904177525E+02 -0.23986384791E+02  0.54236305341E+02  0.60486634184E+02  0.00000000000E+00 0. -1.
        -13    1    5    5    0    0 -0.19422891108E+03 -0.40037304255E+02  0.10199261161E+04  0.10390270151E+04  0.00000000000E+00 0.  1.
          3    1    6    6  503    0  0.43266181233E+01  0.52953757228E+03  0.71799111156E+03  0.89215469306E+03  0.00000000000E+00 0. -1.
         -3    1    6    6    0  503  0.36653911027E+02  0.26896375554E+03  0.28150141509E+03  0.39106017144E+03  0.00000000000E+00 0.  1.
<mgrwt>
<rscale>  0 0.19552514E+04</rscale>
<asrwt>0</asrwt>
<pdfrwt beam="1">  1        2 0.50228542E+00 0.19552514E+04</pdfrwt>
<pdfrwt beam="2">  1       -1 0.45036841E-01 0.19552514E+04</pdfrwt>
<totfact> 0.61268943E+00</totfact>
</mgrwt>
</event>
<event>
12    7  0.1729738E-007  0.1666776E+04  0.7818608E-02  0.8780543E-01
         -1   -1    0    0    0  501 -0.00000000000E+00  0.00000000000E+00  0.46676570586E+03  0.46676570586E+03  0.00000000000E+00 0.  1.
          2   -1    0    0  501    0  0.00000000000E+00 -0.00000000000E+00 -0.14879751552E+04  0.14879751552E+04  0.00000000000E+00 0. -1.
         24    2    1    2    0    0  0.27315041199E+03  0.50124820126E+03 -0.51534760152E+03  0.77339514536E+03  0.81829051320E+02 0.  0.
        254    2    1    2    0    0 -0.27315041199E+03 -0.50124820126E+03 -0.50586184783E+03  0.11813457157E+04  0.90212004973E+03 0.  0.
         23    2    4    4    0    0 -0.38661541223E+03 -0.35733668023E+03  0.98943077506E+02  0.54291636137E+03  0.88359848605E+02 0.  0.
         23    2    4    4    0    0  0.11346500024E+03 -0.14391152102E+03 -0.60480492533E+03  0.63842935435E+03  0.90654346936E+02 0.  0.
          4    1    3    3  502    0  0.20511005782E+03  0.34061204630E+03 -0.40164914138E+03  0.56516257367E+03  0.00000000000E+00 0. -1.
         -3    1    3    3    0  502  0.68040354166E+02  0.16063615496E+03 -0.11369846014E+03  0.20823257169E+03  0.00000000000E+00 0.  1.
         13    1    5    5    0    0 -0.25906601823E+01 -0.27424762338E+02  0.51430823609E+01  0.28022855059E+02  0.00000000000E+00 0.  1.
        -13    1    5    5    0    0 -0.38402475205E+03 -0.32991191789E+03  0.93799995145E+02  0.51489350631E+03  0.00000000000E+00 0. -1.
          4    1    6    6  503    0  0.40690245881E+02 -0.28472918316E+02 -0.65917237540E+02  0.82531723550E+02  0.00000000000E+00 0.  1.
         -4    1    6    6    0  503  0.72774754359E+02 -0.11543860271E+03 -0.53888768779E+03  0.55589763080E+03  0.00000000000E+00 0. -1.
<mgrwt>
<rscale>  0 0.16667763E+04</rscale>
<asrwt>0</asrwt>
<pdfrwt beam="1">  1        2 0.22891925E+00 0.16667763E+04</pdfrwt>
<pdfrwt beam="2">  1       -1 0.71810110E-01 0.16667763E+04</pdfrwt>
<totfact> 0.27436768E+01</totfact>
</mgrwt>
</event>
<event>
12    7  0.1729738E-007  0.1732974E+04  0.7818608E-02  0.8742778E-01
          2   -1    0    0  501    0  0.00000000000E+00  0.00000000000E+00  0.94285174478E+03  0.94285174478E+03  0.00000000000E+00 0. -1.
         -1   -1    0    0    0  501 -0.00000000000E+00 -0.00000000000E+00 -0.79630747627E+03  0.79630747627E+03  0.00000000000E+00 0.  1.
         24    2    1    2    0    0 -0.56341278358E+03  0.14386060991E+03  0.89561314522E+02  0.59313124328E+03  0.75190444300E+02 0.  0.
        254    2    1    2    0    0  0.56341278358E+03 -0.14386060991E+03  0.56982953989E+02  0.11460279778E+04  0.98590224109E+03 0.  0.
         23    2    4    4    0    0  0.20868805421E+03 -0.30326640971E+02 -0.45308466378E+03  0.50816157219E+03  0.92043803607E+02 0.  0.
         23    2    4    4    0    0  0.35472472937E+03 -0.11353396894E+03  0.51006761777E+03  0.63786640557E+03  0.89358720517E+02 0.  0.
          4    1    3    3  502    0 -0.29604480159E+03  0.67438510863E+02  0.83862156780E+02  0.31499736290E+03  0.00000000000E+00 0. -1.
         -3    1    3    3    0  502 -0.26736798199E+03  0.76422099051E+02  0.56991577421E+01  0.27813388038E+03  0.00000000000E+00 0.  1.
         13    1    5    5    0    0  0.14963357990E+03  0.18531661398E+02 -0.26214703080E+03  0.30241477553E+03  0.00000000000E+00 0. -1.
        -13    1    5    5    0    0  0.59054474310E+02 -0.48858302369E+02 -0.19093763298E+03  0.20574679666E+03  0.00000000000E+00 0.  1.
          3    1    6    6  503    0  0.19154976558E+03 -0.10713484527E+03  0.28112799524E+03  0.35665408658E+03  0.00000000000E+00 0. -1.
         -3    1    6    6    0  503  0.16317496380E+03 -0.63991236743E+01  0.22893962253E+03  0.28121231900E+03  0.00000000000E+00 0.  1.
<mgrwt>
<rscale>  0 0.17329742E+04</rscale>
<asrwt>0</asrwt>
<pdfrwt beam="1">  1        2 0.14505411E+00 0.17329742E+04</pdfrwt>
<pdfrwt beam="2">  1       -1 0.12250884E+00 0.17329742E+04</pdfrwt>
<totfact> 0.17490196E+01</totfact>
</mgrwt>
</event>
<event>
12    7  0.1729738E-007  0.2303316E+04  0.7818608E-02  0.8476615E-01
          2   -1    0    0  501    0  0.00000000000E+00  0.00000000000E+00  0.16892545937E+04  0.16892545937E+04  0.00000000000E+00 0. -1.
         -1   -1    0    0    0  501 -0.00000000000E+00 -0.00000000000E+00 -0.78514908581E+03  0.78514908581E+03  0.00000000000E+00 0.  1.
         24    2    1    2    0    0  0.43231193874E+03 -0.12538848061E+03  0.13132275415E+04  0.13905193730E+04  0.79760061393E+02 0.  0.
        254    2    1    2    0    0 -0.43231193874E+03  0.12538848061E+03 -0.40912203358E+03  0.10838843066E+04  0.89711117940E+03 0.  0.
         23    2    4    4    0    0 -0.14274611654E+03  0.38975547257E+03 -0.51469601885E+03  0.66748240121E+03  0.91296122201E+02 0.  0.
         23    2    4    4    0    0 -0.28956582220E+03 -0.26436699195E+03  0.10557398527E+03  0.41640190535E+03  0.92230193497E+02 0.  0.
          2    1    3    3  502    0  0.33275735281E+03 -0.68924084991E+02  0.10459393706E+04  0.10997577698E+04  0.00000000000E+00 0. -1.
         -1    1    3    3    0  502  0.99554585925E+02 -0.56464395624E+02  0.26728817090E+03  0.29076160313E+03  0.00000000000E+00 0.  1.
         13    1    5    5    0    0  0.10857003973E+02  0.92709281779E+01 -0.22997340709E+02  0.27068474731E+02  0.00000000000E+00 0.  1.
        -13    1    5    5    0    0 -0.15360312051E+03  0.38048454439E+03 -0.49169867814E+03  0.64041392648E+03  0.00000000000E+00 0. -1.
          3    1    6    6  503    0 -0.18925540919E+03 -0.20204925372E+03  0.35563398337E+02  0.27911693990E+03  0.00000000000E+00 0. -1.
         -3    1    6    6    0  503 -0.10031041301E+03 -0.62317738232E+02  0.70010586929E+02  0.13728496545E+03  0.00000000000E+00 0.  1.
<mgrwt>
<rscale>  0 0.23033165E+04</rscale>
<asrwt>0</asrwt>
<pdfrwt beam="1">  1        2 0.25988532E+00 0.23033165E+04</pdfrwt>
<pdfrwt beam="2">  1       -1 0.12079217E+00 0.23033165E+04</pdfrwt>
<totfact> 0.62510803E+00</totfact>
</mgrwt>
</event>
<event>
12    7  0.1729738E-007  0.2005191E+04  0.7818608E-02  0.8604198E-01
          2   -1    0    0  501    0  0.00000000000E+00  0.00000000000E+00  0.14956747605E+04  0.14956747605E+04  0.00000000000E+00 0. -1.
         -1   -1    0    0    0  501 -0.00000000000E+00 -0.00000000000E+00 -0.67206941506E+03  0.67206941506E+03  0.00000000000E+00 0.  1.
         24    2    1    2    0    0 -0.59151476933E+03 -0.53451111568E+03  0.42945899633E+03  0.90906198246E+03  0.79792250915E+02 0.  0.
        254    2    1    2    0    0  0.59151476933E+03  0.53451111568E+03  0.39414634907E+03  0.12586821931E+04  0.89069504520E+03 0.  0.
         23    2    4    4    0    0  0.44641737436E+03  0.11715355297E+03  0.60020220226E+03  0.76264677922E+03  0.91509557715E+02 0.  0.
         23    2    4    4    0    0  0.14509739497E+03  0.41735756271E+03 -0.20605585319E+03  0.49603541385E+03  0.91386694781E+02 0.  0.
          2    1    3    3  502    0 -0.58828495522E+03 -0.53311528937E+03  0.43279463188E+03  0.90421363277E+03  0.00000000000E+00 0. -1.
         -1    1    3    3    0  502 -0.32298141036E+01 -0.13958263124E+01 -0.33356355468E+01  0.48483496924E+01  0.00000000000E+00 0.  1.
         13    1    5    5    0    0  0.10782501080E+03  0.12125940037E+02  0.87871947733E+02  0.13962360321E+03  0.00000000000E+00 0.  1.
        -13    1    5    5    0    0  0.33859236356E+03  0.10502761294E+03  0.51233025453E+03  0.62302317601E+03  0.00000000000E+00 0. -1.
          1    1    6    6  503    0  0.11049665854E+03  0.37481471829E+03 -0.20481197408E+03  0.44118423512E+03  0.00000000000E+00 0. -1.
         -1    1    6    6    0  503  0.34600736423E+02  0.42542844416E+02 -0.12438791095E+01  0.54851178723E+02  0.00000000000E+00 0.  1.
<mgrwt>
<rscale>  0 0.20051905E+04</rscale>
<asrwt>0</asrwt>
<pdfrwt beam="1">  1        2 0.23010381E+00 0.20051905E+04</pdfrwt>
<pdfrwt beam="2">  1       -1 0.10339529E+00 0.20051905E+04</pdfrwt>
<totfact> 0.11919399E+01</totfact>
</mgrwt>
</event>
<event>
12    7  0.1729738E-007  0.3775203E+04  0.7818608E-02  0.8051497E-01
          2   -1    0    0  501    0  0.00000000000E+00  0.00000000000E+00  0.18716796173E+04  0.18716796173E+04  0.00000000000E+00 0. -1.
         -1   -1    0    0    0  501 -0.00000000000E+00 -0.00000000000E+00 -0.19036584632E+04  0.19036584632E+04  0.00000000000E+00 0.  1.
         24    2    1    2    0    0 -0.69035292855E+03 -0.52509045903E+02 -0.16514309097E+04  0.17924923971E+04  0.80377721671E+02 0.  0.
        254    2    1    2    0    0  0.69035292855E+03  0.52509045903E+02  0.16194520639E+04  0.19828456834E+04  0.91088289647E+03 0.  0.
         23    2    4    4    0    0 -0.47809529791E+02  0.30227750283E+03  0.73084346646E+03  0.79734740446E+03  0.89293174876E+02 0.  0.
         23    2    4    4    0    0  0.73816245834E+03 -0.24976845693E+03  0.88860859741E+03  0.11854982789E+04  0.92265014779E+02 0.  0.
          2    1    3    3  502    0 -0.26766383766E+03  0.11068521200E+02 -0.69734016796E+03  0.74702727661E+03  0.00000000000E+00 0. -1.
         -1    1    3    3    0  502 -0.42268909089E+03 -0.63577567103E+02 -0.95409074178E+03  0.10454651205E+04  0.00000000000E+00 0.  1.
         13    1    5    5    0    0 -0.37434912179E+02  0.30304438847E+03  0.72113736842E+03  0.78311964486E+03  0.00000000000E+00 0.  1.
        -13    1    5    5    0    0 -0.10374617612E+02 -0.76688563947E+00  0.97060980413E+01  0.14227759604E+02  0.00000000000E+00 0. -1.
          1    1    6    6  503    0  0.40304226613E+03 -0.15468836813E+03  0.42706983163E+03  0.60725628906E+03  0.00000000000E+00 0. -1.
         -1    1    6    6    0  503  0.33512019221E+03 -0.95080088800E+02  0.46153876578E+03  0.57824198986E+03  0.00000000000E+00 0.  1.
<mgrwt>
<rscale>  0 0.37752026E+04</rscale>
<asrwt>0</asrwt>
<pdfrwt beam="1">  1        2 0.28795071E+00 0.37752026E+04</pdfrwt>
<pdfrwt beam="2">  1       -1 0.29287053E+00 0.37752026E+04</pdfrwt>
<totfact> 0.26438979E-01</totfact>
</mgrwt>
</event>
<event>
12    7  0.1729738E-007  0.2033075E+04  0.7818608E-02  0.8591311E-01
         -1   -1    0    0    0  501 -0.00000000000E+00  0.00000000000E+00  0.57048642601E+03  0.57048642601E+03  0.00000000000E+00 0.  1.
          2   -1    0    0  501    0  0.00000000000E+00 -0.00000000000E+00 -0.18113462772E+04  0.18113462772E+04  0.00000000000E+00 0. -1.
         24    2    1    2    0    0  0.39002951018E+03  0.46374704063E+03  0.13505043556E+03  0.62581047836E+03  0.78840333458E+02 0.  0.
        254    2    1    2    0    0 -0.39002951018E+03 -0.46374704063E+03 -0.13759102868E+04  0.17560222249E+04  0.90735913536E+03 0.  0.
         23    2    4    4    0    0 -0.58767415188E+03 -0.49498408775E+03 -0.69376918076E+03  0.10391693308E+04  0.90482406929E+02 0.  0.
         23    2    4    4    0    0  0.19764464171E+03  0.31237047113E+02 -0.68214110601E+03  0.71685289409E+03  0.92316985156E+02 0.  0.
          4    1    3    3  502    0  0.50958492223E+02  0.36363148505E+02 -0.42793210868E+01  0.62748379165E+02  0.00000000000E+00 0. -1.
         -3    1    3    3    0  502  0.33907101795E+03  0.42738389213E+03  0.13932975665E+03  0.56306209920E+03  0.00000000000E+00 0.  1.
         13    1    5    5    0    0 -0.43163009274E+03 -0.31628308453E+03 -0.50816435313E+03  0.73795022617E+03  0.00000000000E+00 0.  1.
        -13    1    5    5    0    0 -0.15604405915E+03 -0.17870100322E+03 -0.18560482763E+03  0.30121910461E+03  0.00000000000E+00 0. -1.
          1    1    6    6  503    0 -0.82436567851E+00  0.21318929135E+02 -0.78297137893E+02  0.81151821424E+02  0.00000000000E+00 0. -1.
         -1    1    6    6    0  503  0.19846900738E+03  0.99181179783E+01 -0.60384396812E+03  0.63570107266E+03  0.00000000000E+00 0.  1.
<mgrwt>
<rscale>  0 0.20330750E+04</rscale>
<asrwt>0</asrwt>
<pdfrwt beam="1">  1        2 0.27866866E+00 0.20330750E+04</pdfrwt>
<pdfrwt beam="2">  1       -1 0.87767142E-01 0.20330750E+04</pdfrwt>
<totfact> 0.11455159E+01</totfact>
</mgrwt>
</event>
<event>
12    7  0.1729738E-007  0.2050468E+04  0.7818608E-02  0.8583382E-01
         -1   -1    0    0    0  501 -0.00000000000E+00  0.00000000000E+00  0.66418652892E+03  0.66418652892E+03  0.00000000000E+00 0.  1.
          2   -1    0    0  501    0  0.00000000000E+00 -0.00000000000E+00 -0.15825445129E+04  0.15825445129E+04  0.00000000000E+00 0. -1.
         24    2    1    2    0    0 -0.30335033362E+03 -0.23864528559E+03  0.42858186030E+03  0.57932133588E+03  0.54385678196E+02 0.  0.
        254    2    1    2    0    0  0.30335033362E+03  0.23864528559E+03 -0.13469398443E+04  0.16674097060E+04  0.90389998679E+03 0.  0.
         23    2    4    4    0    0  0.11984367813E+03  0.46621548951E+03 -0.29560643220E+03  0.57248218290E+03  0.92915537612E+02 0.  0.
         23    2    4    4    0    0  0.18350665549E+03 -0.22757020392E+03 -0.10513334121E+04  0.10949275231E+04  0.90008038704E+02 0.  0.
          2    1    3    3  502    0 -0.23135756658E+02 -0.16090140120E+02  0.56217177504E+02  0.62885029155E+02  0.00000000000E+00 0. -1.
         -1    1    3    3    0  502 -0.28021457696E+03 -0.22255514546E+03  0.37236468280E+03  0.51643630673E+03  0.00000000000E+00 0.  1.
         13    1    5    5    0    0  0.90916833670E+02  0.33102745275E+03 -0.25734954867E+03  0.42903826790E+03  0.00000000000E+00 0. -1.
        -13    1    5    5    0    0  0.28926844463E+02  0.13518803676E+03 -0.38256883533E+02  0.14344391500E+03  0.00000000000E+00 0.  1.
          4    1    6    6  503    0  0.16112079254E+03 -0.22836362459E+03 -0.10095156399E+04  0.10474882730E+04  0.00000000000E+00 0. -1.
         -4    1    6    6    0  503  0.22385862950E+02  0.79342067011E+00 -0.41817772205E+02  0.47439250085E+02  0.00000000000E+00 0.  1.
<mgrwt>
<rscale>  0 0.20504680E+04</rscale>
<asrwt>0</asrwt>
<pdfrwt beam="1">  1        2 0.24346838E+00 0.20504680E+04</pdfrwt>
<pdfrwt beam="2">  1       -1 0.10218254E+00 0.20504680E+04</pdfrwt>
<totfact> 0.10902538E+01</totfact>
</mgrwt>
</event>
<event>
12    7  0.1729738E-007  0.1792634E+04  0.7818608E-02  0.8710227E-01
         -1   -1    0    0    0  501 -0.00000000000E+00  0.00000000000E+00  0.35145511108E+03  0.35145511108E+03  0.00000000000E+00 0.  1.
          2   -1    0    0  501    0  0.00000000000E+00 -0.00000000000E+00 -0.22858787193E+04  0.22858787193E+04  0.00000000000E+00 0. -1.
         24    2    1    2    0    0  0.59987861436E+03 -0.29563121302E+03 -0.69667069041E+03  0.96898903801E+03  0.79608660556E+02 0.  0.
        254    2    1    2    0    0 -0.59987861436E+03  0.29563121302E+03 -0.12377529179E+04  0.16683447924E+04  0.89671059691E+03 0.  0.
         23    2    4    4    0    0 -0.79266027672E+03  0.24168874781E+03 -0.11757606820E+04  0.14415549138E+04  0.94570729985E+02 0.  0.
         23    2    4    4    0    0  0.19278166236E+03  0.53942465212E+02 -0.61992235879E+02  0.22678987866E+03  0.86695172060E+02 0.  0.
          2    1    3    3  502    0  0.56324487209E+03 -0.29660079638E+03 -0.66481359131E+03  0.92043138231E+03  0.00000000000E+00 0. -1.
         -1    1    3    3    0  502  0.36633742270E+02  0.96958335438E+00 -0.31857099097E+02  0.48557655704E+02  0.00000000000E+00 0.  1.
         13    1    5    5    0    0 -0.40249996926E+02  0.19682250671E+02 -0.33903088291E+02  0.56186053783E+02  0.00000000000E+00 0.  1.
        -13    1    5    5    0    0 -0.75241027979E+03  0.22200649714E+03 -0.11418575937E+04  0.13853688600E+04  0.00000000000E+00 0. -1.
          4    1    6    6  503    0  0.13544557347E+03  0.74073003524E+02 -0.27162311343E+02  0.15674853869E+03  0.00000000000E+00 0. -1.
         -4    1    6    6    0  503  0.57336088886E+02 -0.20130538312E+02 -0.34829924536E+02  0.70041339969E+02  0.00000000000E+00 0.  1.
<mgrwt>
<rscale>  0 0.17926335E+04</rscale>
<asrwt>0</asrwt>
<pdfrwt beam="1">  1        2 0.35167366E+00 0.17926335E+04</pdfrwt>
<pdfrwt beam="2">  1       -1 0.54070016E-01 0.17926335E+04</pdfrwt>
<totfact> 0.17163243E+01</totfact>
</mgrwt>
</event>
<event>
12    7  0.1729738E-007  0.2349940E+04  0.7818608E-02  0.8458487E-01
          2   -1    0    0  501    0  0.00000000000E+00  0.00000000000E+00  0.24532504433E+04  0.24532504433E+04  0.00000000000E+00 0. -1.
         -1   -1    0    0    0  501 -0.00000000000E+00 -0.00000000000E+00 -0.56274500306E+03  0.56274500306E+03  0.00000000000E+00 0.  1.
         24    2    1    2    0    0  0.22437401283E+03 -0.63413449559E+03  0.17527271350E+04  0.18790770019E+04  0.80048192869E+02 0.  0.
        254    2    1    2    0    0 -0.22437401283E+03  0.63413449559E+03  0.13777830521E+03  0.11369184444E+04  0.90616247536E+03 0.  0.
         23    2    4    4    0    0 -0.19855504065E+02  0.30882655202E+03 -0.37212982745E+03  0.49236370866E+03  0.90406486766E+02 0.  0.
         23    2    4    4    0    0 -0.20451850877E+03  0.32530794357E+03  0.50990813266E+03  0.64455473577E+03  0.88269049273E+02 0.  0.
          4    1    3    3  502    0  0.21369609101E+03 -0.62911215590E+03  0.17340925755E+04  0.18570205126E+04  0.00000000000E+00 0. -1.
         -3    1    3    3    0  502  0.10677921824E+02 -0.50223396962E+01  0.18634559553E+02  0.22056489300E+02  0.00000000000E+00 0.  1.
         13    1    5    5    0    0 -0.38856263317E+02  0.29781161188E+03 -0.34977997252E+03  0.46102884351E+03  0.00000000000E+00 0.  1.
        -13    1    5    5    0    0  0.19000759252E+02  0.11014940136E+02 -0.22349854935E+02  0.31334865150E+02  0.00000000000E+00 0. -1.
          4    1    6    6  503    0 -0.98538917294E+02  0.18828849609E+03  0.34614649092E+03  0.40617714012E+03  0.00000000000E+00 0.  1.
         -4    1    6    6    0  503 -0.10597959147E+03  0.13701944749E+03  0.16376164174E+03  0.23837759564E+03  0.00000000000E+00 0. -1.
<mgrwt>
<rscale>  0 0.23499399E+04</rscale>
<asrwt>0</asrwt>
<pdfrwt beam="1">  1        2 0.37742314E+00 0.23499399E+04</pdfrwt>
<pdfrwt beam="2">  1       -1 0.86576155E-01 0.23499399E+04</pdfrwt>
<totfact> 0.50055302E+00</totfact>
</mgrwt>
</event>
<event>
12    7  0.1729738E-007  0.1337453E+04  0.7818608E-02  0.9000380E-01
          2   -1    0    0  501    0  0.00000000000E+00  0.00000000000E+00  0.13846902743E+04  0.13846902743E+04  0.00000000000E+00 0. -1.
         -1   -1    0    0    0  501 -0.00000000000E+00 -0.00000000000E+00 -0.32295695635E+03  0.32295695635E+03  0.00000000000E+00 0.  1.
         24    2    1    2    0    0 -0.20801117086E+03  0.25689468732E+03  0.49570759305E+03  0.60114551149E+03  0.79914833396E+02 0.  0.
        254    2    1    2    0    0  0.20801117086E+03 -0.25689468732E+03  0.56602572492E+03  0.11065017192E+04  0.89145802240E+03 0.  0.
         23    2    4    4    0    0  0.14902468931E+03 -0.23611377538E+03 -0.18504876506E+03  0.34705033063E+03  0.90789942106E+02 0.  0.
         23    2    4    4    0    0  0.58986481549E+02 -0.20780911944E+02  0.75107448998E+03  0.75945138856E+03  0.93500111051E+02 0.  0.
          4    1    3    3  502    0 -0.20637317817E+03  0.21913774599E+03  0.45537781837E+03  0.54587562489E+03  0.00000000000E+00 0. -1.
         -3    1    3    3    0  502 -0.16379926900E+01  0.37756941329E+02  0.40329774681E+02  0.55269886597E+02  0.00000000000E+00 0.  1.
         13    1    5    5    0    0  0.31208730917E+02 -0.12441869996E+03 -0.10639041841E+03  0.16665208943E+03  0.00000000000E+00 0. -1.
        -13    1    5    5    0    0  0.11781595839E+03 -0.11169507542E+03 -0.78658346659E+02  0.18039824119E+03  0.00000000000E+00 0.  1.
          2    1    6    6  503    0  0.69851629489E+02  0.17039740271E+02  0.42923931938E+03  0.43521948049E+03  0.00000000000E+00 0. -1.
         -2    1    6    6    0  503 -0.10865147941E+02 -0.37820652215E+02  0.32183517060E+03  0.32423190807E+03  0.00000000000E+00 0.  1.
<mgrwt>
<rscale>  0 0.13374533E+04</rscale>
<asrwt>0</asrwt>
<pdfrwt beam="1">  1        2 0.21302927E+00 0.13374533E+04</pdfrwt>
<pdfrwt beam="2">  1       -1 0.49685686E-01 0.13374533E+04</pdfrwt>
<totfact> 0.66823259E+01</totfact>
</mgrwt>
</event>
<event>
12    7  0.1729738E-007  0.1458553E+04  0.7818608E-02  0.8912492E-01
          2   -1    0    0  501    0  0.00000000000E+00  0.00000000000E+00  0.40571182336E+03  0.40571182336E+03  0.00000000000E+00 0. -1.
         -1   -1    0    0    0  501 -0.00000000000E+00 -0.00000000000E+00 -0.13108915039E+04  0.13108915039E+04  0.00000000000E+00 0.  1.
         24    2    1    2    0    0  0.38582544435E+03 -0.22400144134E+03 -0.21499533929E+03  0.50142927939E+03  0.78551938770E+02 0.  0.
        254    2    1    2    0    0 -0.38582544435E+03  0.22400144134E+03 -0.69018434122E+03  0.12151740478E+04  0.89512883006E+03 0.  0.
         23    2    4    4    0    0 -0.25129306487E+03  0.54283679413E+03 -0.26799767532E+03  0.66173181724E+03  0.90808889765E+02 0.  0.
         23    2    4    4    0    0 -0.13453237948E+03 -0.31883535279E+03 -0.42218666590E+03  0.55344223058E+03  0.91114095549E+02 0.  0.
          2    1    3    3  502    0  0.78831621296E+02 -0.64184311847E+02 -0.18147218472E+02  0.10326360415E+03  0.00000000000E+00 0. -1.
         -1    1    3    3    0  502  0.30699382306E+03 -0.15981712949E+03 -0.19684812081E+03  0.39816567524E+03  0.00000000000E+00 0.  1.
         13    1    5    5    0    0 -0.20058304168E+03  0.43982648814E+03 -0.25397673483E+03  0.54606325468E+03  0.00000000000E+00 0.  1.
        -13    1    5    5    0    0 -0.50710023190E+02  0.10301030599E+03 -0.14020940486E+02  0.11566856256E+03  0.00000000000E+00 0. -1.
          3    1    6    6  503    0 -0.25191397951E+02 -0.37816326192E+02 -0.11188389853E+03  0.12075880013E+03  0.00000000000E+00 0. -1.
         -3    1    6    6    0  503 -0.10934098153E+03 -0.28101902660E+03 -0.31030276737E+03  0.43268343045E+03  0.00000000000E+00 0.  1.
<mgrwt>
<rscale>  0 0.14585530E+04</rscale>
<asrwt>0</asrwt>
<pdfrwt beam="1">  1        2 0.62417204E-01 0.14585530E+04</pdfrwt>
<pdfrwt beam="2">  1       -1 0.20167561E+00 0.14585530E+04</pdfrwt>
<totfact> 0.12714844E+01</totfact>
</mgrwt>
</event>
<event>
12    7  0.1729738E-007  0.2602794E+04  0.7818608E-02  0.8367253E-01
         -1   -1    0    0    0  501 -0.00000000000E+00  0.00000000000E+00  0.59724384619E+03  0.59724384619E+03  0.00000000000E+00 0.  1.
          2   -1    0    0  501    0  0.00000000000E+00 -0.00000000000E+00 -0.28357498408E+04  0.28357498408E+04  0.00000000000E+00 0. -1.
         24    2    1    2    0    0 -0.32564597024E+03 -0.42340197597E+03  0.34802300449E+03  0.64232318325E+03  0.78387045450E+02 0.  0.
        254    2    1    2    0    0  0.32564597024E+03  0.42340197597E+03 -0.25865289991E+04  0.27906705037E+04  0.90132961007E+03 0.  0.
         23    2    4    4    0    0 -0.66187491566E+02  0.19238267418E+03 -0.21231540883E+04  0.21348728051E+04  0.92231955641E+02 0.  0.
         23    2    4    4    0    0  0.39183346181E+03  0.23101930179E+03 -0.46337491078E+03  0.65579769868E+03  0.91928961974E+02 0.  0.
          2    1    3    3  502    0 -0.65254346809E+02 -0.13194877082E+03  0.72135498774E+02  0.16392723410E+03  0.00000000000E+00 0. -1.
         -1    1    3    3    0  502 -0.26039162343E+03 -0.29145320516E+03  0.27588750572E+03  0.47839594915E+03  0.00000000000E+00 0.  1.
         13    1    5    5    0    0 -0.34385024389E+02  0.20870327828E+02 -0.68474981388E+03  0.68593017727E+03  0.00000000000E+00 0.  1.
        -13    1    5    5    0    0 -0.31802467177E+02  0.17151234635E+03 -0.14384042744E+04  0.14489426278E+04  0.00000000000E+00 0. -1.
          2    1    6    6  503    0  0.47255211790E+02  0.67963896978E+02 -0.87228242981E+02  0.12025353511E+03  0.00000000000E+00 0.  1.
         -2    1    6    6    0  503  0.34457825002E+03  0.16305540482E+03 -0.37614666780E+03  0.53554416356E+03  0.00000000000E+00 0. -1.
<mgrwt>
<rscale>  0 0.26027940E+04</rscale>
<asrwt>0</asrwt>
<pdfrwt beam="1">  1        2 0.43626920E+00 0.26027940E+04</pdfrwt>
<pdfrwt beam="2">  1       -1 0.91883670E-01 0.26027940E+04</pdfrwt>
<totfact> 0.25513089E+00</totfact>
</mgrwt>
</event>
<event>
12    7  0.1729738E-007  0.1373678E+04  0.7818608E-02  0.8973095E-01
         -1   -1    0    0    0  501 -0.00000000000E+00  0.00000000000E+00  0.36333973888E+03  0.36333973888E+03  0.00000000000E+00 0.  1.
          2   -1    0    0  501    0  0.00000000000E+00 -0.00000000000E+00 -0.12983653967E+04  0.12983653967E+04  0.00000000000E+00 0. -1.
         24    2    1    2    0    0 -0.17968677988E+03 -0.55661024273E+00 -0.75147659747E+03  0.77624190294E+03  0.74476618127E+02 0.  0.
        254    2    1    2    0    0  0.17968677988E+03  0.55661024273E+00 -0.18354906038E+03  0.88546323268E+03  0.84738847654E+03 0.  0.
         23    2    4    4    0    0  0.25157166393E+03  0.70999152060E+01 -0.48937599819E+03  0.55787727625E+03  0.91648659871E+02 0.  0.
         23    2    4    4    0    0 -0.71884884046E+02 -0.65433049633E+01  0.30582693781E+03  0.32758595643E+03  0.92586130528E+02 0.  0.
          2    1    3    3  502    0 -0.12300111276E+03 -0.50952938375E+01 -0.63255499390E+03  0.64442304123E+03  0.00000000000E+00 0. -1.
         -1    1    3    3    0  502 -0.56685667119E+02  0.45386835948E+01 -0.11892160357E+03  0.13181886170E+03  0.00000000000E+00 0.  1.
         13    1    5    5    0    0  0.12345527628E+03 -0.41872267930E+02 -0.25211054417E+03  0.28382075073E+03  0.00000000000E+00 0.  1.
        -13    1    5    5    0    0  0.12811638764E+03  0.48972183136E+02 -0.23726545402E+03  0.27405652551E+03  0.00000000000E+00 0. -1.
          1    1    6    6  503    0 -0.74262854965E+02 -0.33211318721E+02  0.27487709428E+03  0.28666248495E+03  0.00000000000E+00 0. -1.
         -1    1    6    6    0  503  0.23779709185E+01  0.26668013758E+02  0.30949843537E+02  0.40923471486E+02  0.00000000000E+00 0.  1.
<mgrwt>
<rscale>  0 0.13736779E+04</rscale>
<asrwt>0</asrwt>
<pdfrwt beam="1">  1        2 0.19974852E+00 0.13736779E+04</pdfrwt>
<pdfrwt beam="2">  1       -1 0.55898421E-01 0.13736779E+04</pdfrwt>
<totfact> 0.59613681E+01</totfact>
</mgrwt>
</event>
<event>
12    7  0.1729738E-007  0.1093944E+04  0.7818608E-02  0.9211115E-01
         -1   -1    0    0    0  501 -0.00000000000E+00  0.00000000000E+00  0.16631142073E+04  0.16631142073E+04  0.00000000000E+00 0.  1.
          2   -1    0    0  501    0  0.00000000000E+00 -0.00000000000E+00 -0.17989035649E+03  0.17989035649E+03  0.00000000000E+00 0. -1.
         24    2    1    2    0    0 -0.30149206359E+02  0.63256980404E+02  0.47742024770E+03  0.48908066817E+03  0.79745763866E+02 0.  0.
        254    2    1    2    0    0  0.30149206359E+02 -0.63256980404E+02  0.10058036032E+04  0.13539238957E+04  0.90363632449E+03 0.  0.
         23    2    4    4    0    0 -0.14200208111E+03  0.12324408754E+03 -0.88317350169E+02  0.22687782002E+03  0.91213456903E+02 0.  0.
         23    2    4    4    0    0  0.17215128747E+03 -0.18650106795E+03  0.10941209533E+04  0.11270460757E+04  0.93346033747E+02 0.  0.
          2    1    3    3  502    0  0.21723964470E+02  0.25528410649E+01  0.55188935148E+02  0.59365530340E+02  0.00000000000E+00 0. -1.
         -1    1    3    3    0  502 -0.51873170829E+02  0.60704139339E+02  0.42223131255E+03  0.42971513783E+03  0.00000000000E+00 0.  1.
         13    1    5    5    0    0 -0.38637396506E+02 -0.10034017853E+02 -0.11481192688E+02  0.41537305023E+02  0.00000000000E+00 0. -1.
        -13    1    5    5    0    0 -0.10336468460E+03  0.13327810540E+03 -0.76836157481E+02  0.18534051499E+03  0.00000000000E+00 0.  1.
          3    1    6    6  503    0  0.17201417869E+03 -0.13450615591E+03  0.87302952693E+03  0.89992296255E+03  0.00000000000E+00 0. -1.
         -3    1    6    6    0  503  0.13710878343E+00 -0.51994912039E+02  0.22109142640E+03  0.22712311310E+03  0.00000000000E+00 0.  1.
<mgrwt>
<rscale>  0 0.10939437E+04</rscale>
<asrwt>0</asrwt>
<pdfrwt beam="1">  1        2 0.27675441E-01 0.10939437E+04</pdfrwt>
<pdfrwt beam="2">  1       -1 0.25586371E+00 0.10939437E+04</pdfrwt>
<totfact> 0.14276210E+01</totfact>
</mgrwt>
</event>
<event>
12    7  0.1729738E-007  0.2326471E+04  0.7818608E-02  0.8467557E-01
         -1   -1    0    0    0  501 -0.00000000000E+00  0.00000000000E+00  0.10478803263E+04  0.10478803263E+04  0.00000000000E+00 0.  1.
          2   -1    0    0  501    0  0.00000000000E+00 -0.00000000000E+00 -0.12912892952E+04  0.12912892952E+04  0.00000000000E+00 0. -1.
         24    2    1    2    0    0  0.55788691975E+03 -0.16908971103E+02 -0.92277094614E+03  0.10813738127E+04  0.79620193365E+02 0.  0.
        254    2    1    2    0    0 -0.55788691975E+03  0.16908971103E+02  0.67936197718E+03  0.12577958088E+04  0.89944086632E+03 0.  0.
         23    2    4    4    0    0 -0.54336444394E+03  0.35075585673E+03  0.63036077111E+03  0.90825565136E+03  0.96431511951E+02 0.  0.
         23    2    4    4    0    0 -0.14522475802E+02 -0.33384688563E+03  0.49001206070E+02  0.34954015741E+03  0.90069740214E+02 0.  0.
          2    1    3    3  502    0  0.52933351121E+03 -0.98356007139E+01 -0.90001549177E+03  0.10441832169E+04  0.00000000000E+00 0. -1.
         -1    1    3    3    0  502  0.28553408537E+02 -0.70733703893E+01 -0.22755454377E+02  0.37190595742E+02  0.00000000000E+00 0.  1.
         13    1    5    5    0    0 -0.40227220695E+02  0.25533031842E+02  0.88268650709E+02  0.10030712685E+03  0.00000000000E+00 0. -1.
        -13    1    5    5    0    0 -0.50313722325E+03  0.32522282489E+03  0.54209212040E+03  0.80794852451E+03  0.00000000000E+00 0.  1.
          3    1    6    6  503    0  0.16061763654E+02 -0.97691176099E+02 -0.21266604187E+02  0.10126112084E+03  0.00000000000E+00 0. -1.
         -3    1    6    6    0  503 -0.30584239457E+02 -0.23615570953E+03  0.70267810257E+02  0.24827903658E+03  0.00000000000E+00 0.  1.
<mgrwt>
<rscale>  0 0.23264708E+04</rscale>
<asrwt>0</asrwt>
<pdfrwt beam="1">  1        2 0.19865989E+00 0.23264708E+04</pdfrwt>
<pdfrwt beam="2">  1       -1 0.16121236E+00 0.23264708E+04</pdfrwt>
<totfact> 0.49344549E+00</totfact>
</mgrwt>
</event>
<event>
12    7  0.1729738E-007  0.1566863E+04  0.7818608E-02  0.8841168E-01
          2   -1    0    0  501    0  0.00000000000E+00  0.00000000000E+00  0.16158129996E+04  0.16158129996E+04  0.00000000000E+00 0. -1.
         -1   -1    0    0    0  501 -0.00000000000E+00 -0.00000000000E+00 -0.37984898109E+03  0.37984898109E+03  0.00000000000E+00 0.  1.
         24    2    1    2    0    0  0.15264559277E+02 -0.30296566920E+03 -0.71734616707E+02  0.32160728834E+03  0.79146631004E+02 0.  0.
        254    2    1    2    0    0 -0.15264559277E+02  0.30296566920E+03  0.13076986352E+04  0.16740546923E+04  0.10001810781E+04 0.  0.
         23    2    4    4    0    0 -0.57709965264E+02  0.64149973234E+03  0.60771389470E+03  0.89028242990E+03  0.91838338879E+02 0.  0.
         23    2    4    4    0    0  0.42445405988E+02 -0.33853406315E+03  0.69998474047E+03  0.78377226241E+03  0.88957282033E+02 0.  0.
          4    1    3    3  502    0  0.39620591456E+01 -0.56393410847E+02  0.17440360374E+02  0.59161481300E+02  0.00000000000E+00 0. -1.
         -3    1    3    3    0  502  0.11302500131E+02 -0.24657225835E+03 -0.89174977081E+02  0.26244580704E+03  0.00000000000E+00 0.  1.
         13    1    5    5    0    0 -0.66024919741E+01  0.12058188469E+03  0.68647001760E+02  0.13891002364E+03  0.00000000000E+00 0. -1.
        -13    1    5    5    0    0 -0.51107473290E+02  0.52091784765E+03  0.53906689294E+03  0.75137240626E+03  0.00000000000E+00 0.  1.
          3    1    6    6  503    0  0.26939848931E+02 -0.22683230031E+02  0.90988018811E+02  0.97565895436E+02  0.00000000000E+00 0. -1.
         -3    1    6    6    0  503  0.15505557057E+02 -0.31585083311E+03  0.60899672166E+03  0.68620636697E+03  0.00000000000E+00 0.  1.
<mgrwt>
<rscale>  0 0.15668630E+04</rscale>
<asrwt>0</asrwt>
<pdfrwt beam="1">  1        2 0.24858661E+00 0.15668630E+04</pdfrwt>
<pdfrwt beam="2">  1       -1 0.58438306E-01 0.15668630E+04</pdfrwt>
<totfact> 0.35510813E+01</totfact>
</mgrwt>
</event>
<event>
12    7  0.1729738E-007  0.1504649E+04  0.7818608E-02  0.8881367E-01
          2   -1    0    0  501    0  0.00000000000E+00  0.00000000000E+00  0.61505440671E+03  0.61505440671E+03  0.00000000000E+00 0. -1.
         -1   -1    0    0    0  501 -0.00000000000E+00 -0.00000000000E+00 -0.92023129214E+03  0.92023129214E+03  0.00000000000E+00 0.  1.
         24    2    1    2    0    0 -0.45007338057E+02 -0.31780350610E+03 -0.44816103318E+03  0.55696858453E+03  0.79630167161E+02 0.  0.
        254    2    1    2    0    0  0.45007338057E+02  0.31780350610E+03  0.14298414775E+03  0.97831711432E+03  0.91303624282E+03 0.  0.
         23    2    4    4    0    0  0.30412912286E+03  0.42959761989E+03  0.32956516194E+03  0.62703040962E+03  0.86633135875E+02 0.  0.
         23    2    4    4    0    0 -0.25912178480E+03 -0.11179411379E+03 -0.18658101419E+03  0.35128670470E+03  0.94593080103E+02 0.  0.
          4    1    3    3  502    0  0.22517471342E+02 -0.92755598664E+02 -0.11896764832E+03  0.15252520758E+03  0.00000000000E+00 0. -1.
         -3    1    3    3    0  502 -0.67524809398E+02 -0.22504790744E+03 -0.32919338486E+03  0.40444337695E+03  0.00000000000E+00 0.  1.
         13    1    5    5    0    0  0.30743358635E+03  0.42429148700E+03  0.33203284737E+03  0.62030999322E+03  0.00000000000E+00 0.  1.
        -13    1    5    5    0    0 -0.33044634853E+01  0.53061328970E+01 -0.24676854293E+01  0.67204164026E+01  0.00000000000E+00 0. -1.
          2    1    6    6  503    0 -0.90296930599E+02  0.75042567529E+01 -0.64318883285E+02  0.11111601276E+03  0.00000000000E+00 0. -1.
         -2    1    6    6    0  503 -0.16882485421E+03 -0.11929837055E+03 -0.12226213091E+03  0.24017069194E+03  0.00000000000E+00 0.  1.
<mgrwt>
<rscale>  0 0.15046492E+04</rscale>
<asrwt>0</asrwt>
<pdfrwt beam="1">  1        2 0.94623755E-01 0.15046492E+04</pdfrwt>
<pdfrwt beam="2">  1       -1 0.14157404E+00 0.15046492E+04</pdfrwt>
<totfact> 0.21620032E+01</totfact>
</mgrwt>
</event>
<event>
12    7  0.1729738E-007  0.1850613E+04  0.7818608E-02  0.8679837E-01
          2   -1    0    0  501    0  0.00000000000E+00  0.00000000000E+00  0.91777311256E+03  0.91777311256E+03  0.00000000000E+00 0. -1.
         -1   -1    0    0    0  501 -0.00000000000E+00 -0.00000000000E+00 -0.93290206211E+03  0.93290206211E+03  0.00000000000E+00 0.  1.
         24    2    1    2    0    0  0.28101506549E+03 -0.54686900972E+01 -0.62748562892E+03  0.69222076691E+03  0.80199763305E+02 0.  0.
        254    2    1    2    0    0 -0.28101506549E+03  0.54686900972E+01  0.61235667938E+03  0.11584544078E+04  0.94235690610E+03 0.  0.
         23    2    4    4    0    0 -0.28618330039E+03 -0.30505382973E+03 -0.39607051224E+02  0.43040399907E+03  0.93381815422E+02 0.  0.
         23    2    4    4    0    0  0.51682348957E+01  0.31052251983E+03  0.65196373060E+03  0.72805040869E+03  0.92464834436E+02 0.  0.
          4    1    3    3  502    0  0.15963908106E+03 -0.20625463279E+02 -0.43843663466E+03  0.46705109844E+03  0.00000000000E+00 0. -1.
         -3    1    3    3    0  502  0.12137598443E+03  0.15156773181E+02 -0.18904899425E+03  0.22516966847E+03  0.00000000000E+00 0.  1.
         13    1    5    5    0    0 -0.21523491101E+02 -0.50110174366E+01  0.14852436260E+02  0.26626412222E+02  0.00000000000E+00 0.  1.
        -13    1    5    5    0    0 -0.26465980929E+03 -0.30004281230E+03 -0.54459487485E+02  0.40377758685E+03  0.00000000000E+00 0. -1.
          3    1    6    6  503    0  0.43612479248E+02  0.90345302533E+02  0.19005360118E+03  0.21490624318E+03  0.00000000000E+00 0. -1.
         -3    1    6    6    0  503 -0.38444244352E+02  0.22017721730E+03  0.46191012942E+03  0.51314416551E+03  0.00000000000E+00 0.  1.
<mgrwt>
<rscale>  0 0.18506133E+04</rscale>
<asrwt>0</asrwt>
<pdfrwt beam="1">  1        2 0.14119586E+00 0.18506133E+04</pdfrwt>
<pdfrwt beam="2">  1       -1 0.14352339E+00 0.18506133E+04</pdfrwt>
<totfact> 0.12015752E+01</totfact>
</mgrwt>
</event>
<event>
12    7  0.1729738E-007  0.1373504E+04  0.7818608E-02  0.8973224E-01
          2   -1    0    0  501    0  0.00000000000E+00  0.00000000000E+00  0.27018175091E+04  0.27018175091E+04  0.00000000000E+00 0. -1.
         -1   -1    0    0    0  501 -0.00000000000E+00 -0.00000000000E+00 -0.17455954332E+03  0.17455954332E+03  0.00000000000E+00 0.  1.
         24    2    1    2    0    0 -0.31429482690E+03 -0.19563266368E+03  0.47285965020E+03  0.60682720718E+03  0.87118501294E+02 0.  0.
        254    2    1    2    0    0  0.31429482690E+03  0.19563266368E+03  0.20543983156E+04  0.22695498453E+04  0.89064621691E+03 0.  0.
         23    2    4    4    0    0  0.42050468056E+03  0.43525163332E+03  0.94388969303E+03  0.11248903396E+04  0.90456358626E+02 0.  0.
         23    2    4    4    0    0 -0.10620985366E+03 -0.23961896964E+03  0.11105086226E+04  0.11446595057E+04  0.91204163905E+02 0.  0.
          2    1    3    3  502    0 -0.23300007066E+03 -0.17426713100E+03  0.32089319264E+03  0.43316337213E+03  0.00000000000E+00 0. -1.
         -1    1    3    3    0  502 -0.81294756241E+02 -0.21365532683E+02  0.15196645757E+03  0.17366383505E+03  0.00000000000E+00 0.  1.
         13    1    5    5    0    0  0.23262877261E+03  0.28146524205E+03  0.62842786281E+03  0.72681524962E+03  0.00000000000E+00 0. -1.
        -13    1    5    5    0    0  0.18787590795E+03  0.15378639127E+03  0.31546183022E+03  0.39807508997E+03  0.00000000000E+00 0.  1.
          1    1    6    6  503    0 -0.68569674682E+02 -0.11085654653E+03  0.72121573219E+03  0.73290047520E+03  0.00000000000E+00 0.  1.
         -1    1    6    6    0  503 -0.37640178978E+02 -0.12876242311E+03  0.38929289039E+03  0.41175903048E+03  0.00000000000E+00 0. -1.
<mgrwt>
<rscale>  0 0.13735036E+04</rscale>
<asrwt>0</asrwt>
<pdfrwt beam="1">  1        2 0.41566420E+00 0.13735036E+04</pdfrwt>
<pdfrwt beam="2">  1       -1 0.26855316E-01 0.13735036E+04</pdfrwt>
<totfact> 0.36636789E+01</totfact>
</mgrwt>
</event>
<event>
12    7  0.1729738E-007  0.1245415E+04  0.7818608E-02  0.9074008E-01
          2   -1    0    0  501    0  0.00000000000E+00  0.00000000000E+00  0.12969550745E+04  0.12969550745E+04  0.00000000000E+00 0. -1.
         -1   -1    0    0    0  501 -0.00000000000E+00 -0.00000000000E+00 -0.29898091345E+03  0.29898091345E+03  0.00000000000E+00 0.  1.
         24    2    1    2    0    0 -0.18384297412E+03 -0.85979663908E+02 -0.35225620143E+02  0.22089965334E+03  0.79781393767E+02 0.  0.
        254    2    1    2    0    0  0.18384297412E+03  0.85979663908E+02  0.10331997812E+04  0.13750363346E+04  0.88432595343E+03 0.  0.
         23    2    4    4    0    0  0.45934498386E+03  0.18378518992E+03  0.91915550694E+03  0.10477638219E+04  0.90484088934E+02 0.  0.
         23    2    4    4    0    0 -0.27550200974E+03 -0.97805526011E+02  0.11404427428E+03  0.32727251272E+03  0.92918904406E+02 0.  0.
          4    1    3    3  502    0 -0.20869692356E+02 -0.10254145421E+02  0.22292105272E+02  0.32212257214E+02  0.00000000000E+00 0. -1.
         -3    1    3    3    0  502 -0.16297328176E+03 -0.75725518486E+02 -0.57517725416E+02  0.18868739612E+03  0.00000000000E+00 0.  1.
         13    1    5    5    0    0  0.93246681153E+02  0.55454715504E+02  0.27747108144E+03  0.29792678640E+03  0.00000000000E+00 0.  1.
        -13    1    5    5    0    0  0.36609830271E+03  0.12833047441E+03  0.64168442551E+03  0.74983703553E+03  0.00000000000E+00 0. -1.
          1    1    6    6  503    0 -0.26755057585E+03 -0.82339797136E+02  0.83495732911E+02  0.29212101986E+03  0.00000000000E+00 0. -1.
         -1    1    6    6    0  503 -0.79514338949E+01 -0.15465728875E+02  0.30548541370E+02  0.35151492863E+02  0.00000000000E+00 0.  1.
<mgrwt>
<rscale>  0 0.12454153E+04</rscale>
<asrwt>0</asrwt>
<pdfrwt beam="1">  1        2 0.19953155E+00 0.12454153E+04</pdfrwt>
<pdfrwt beam="2">  1       -1 0.45997064E-01 0.12454153E+04</pdfrwt>
<totfact> 0.87457355E+01</totfact>
</mgrwt>
</event>
<event>
12    7  0.1729738E-007  0.1686938E+04  0.7818608E-02  0.8768849E-01
         -3   -1    0    0    0  501 -0.00000000000E+00  0.00000000000E+00  0.29396898144E+03  0.29396898144E+03  0.00000000000E+00 0.  1.
          2   -1    0    0  501    0  0.00000000000E+00 -0.00000000000E+00 -0.24201201700E+04  0.24201201700E+04  0.00000000000E+00 0. -1.
         24    2    1    2    0    0 -0.33675413112E+03 -0.14742112081E+03 -0.14520015249E+04  0.15001081328E+04  0.82943654669E+02 0.  0.
        254    2    1    2    0    0  0.33675413112E+03  0.14742112081E+03 -0.67414966358E+03  0.12139810186E+04  0.94028496373E+03 0.  0.
         23    2    4    4    0    0  0.43553067447E+03  0.24222946287E+03 -0.83870833891E+03  0.97972530030E+03  0.89821518594E+02 0.  0.
         23    2    4    4    0    0 -0.98776543354E+02 -0.94808342059E+02  0.16455867533E+03  0.23425571834E+03  0.95135465042E+02 0.  0.
          4    1    3    3  502    0 -0.31780968737E+03 -0.15393248976E+03 -0.14104001539E+04  0.14539349376E+04  0.00000000000E+00 0. -1.
         -1    1    3    3    0  502 -0.18944443746E+02  0.65113689491E+01 -0.41601371074E+02  0.46173195142E+02  0.00000000000E+00 0.  1.
         13    1    5    5    0    0  0.22017066941E+03  0.12495098053E+03 -0.51259654272E+03  0.57170192129E+03  0.00000000000E+00 0.  1.
        -13    1    5    5    0    0  0.21536000507E+03  0.11727848234E+03 -0.32611179619E+03  0.40802337901E+03  0.00000000000E+00 0. -1.
          2    1    6    6  503    0 -0.10638768287E+03 -0.47605158810E+02  0.97847920473E+02  0.15218017529E+03  0.00000000000E+00 0. -1.
         -2    1    6    6    0  503  0.76111395117E+01 -0.47203183250E+02  0.66710754853E+02  0.82075543048E+02  0.00000000000E+00 0.  1.
<mgrwt>
<rscale>  0 0.16869384E+04</rscale>
<asrwt>0</asrwt>
<pdfrwt beam="1">  1        2 0.37232618E+00 0.16869384E+04</pdfrwt>
<pdfrwt beam="2">  1       -3 0.45225998E-01 0.16869384E+04</pdfrwt>
<totfact> 0.11578940E+01</totfact>
</mgrwt>
</event>
<event>
12    7  0.1729738E-007  0.2087858E+04  0.7818608E-02  0.8566611E-01
          2   -1    0    0  501    0  0.00000000000E+00  0.00000000000E+00  0.13545093681E+04  0.13545093681E+04  0.00000000000E+00 0. -1.
         -1   -1    0    0    0  501 -0.00000000000E+00 -0.00000000000E+00 -0.80456288698E+03  0.80456288698E+03  0.00000000000E+00 0.  1.
         24    2    1    2    0    0  0.42434765141E+03 -0.32018319106E+03  0.88569599066E+03  0.10357018421E+04  0.75051400634E+02 0.  0.
        254    2    1    2    0    0 -0.42434765141E+03  0.32018319106E+03 -0.33574950953E+03  0.11233704130E+04  0.93093777803E+03 0.  0.
         23    2    4    4    0    0  0.20058925659E+03  0.34613999818E+03 -0.26300594938E+03  0.48744856344E+03  0.91569778796E+02 0.  0.
         23    2    4    4    0    0 -0.62493690800E+03 -0.25956807119E+02 -0.72743560153E+02  0.63592184957E+03  0.88797963927E+02 0.  0.
          4    1    3    3  502    0  0.17437907168E+03 -0.97389844118E+02  0.37806323696E+03  0.42757999663E+03  0.00000000000E+00 0. -1.
         -3    1    3    3    0  502  0.24996857973E+03 -0.22279334694E+03  0.50763275371E+03  0.60812184546E+03  0.00000000000E+00 0.  1.
         13    1    5    5    0    0  0.28675884867E+01  0.15085472755E+02 -0.38028615281E+02  0.41011829174E+02  0.00000000000E+00 0.  1.
        -13    1    5    5    0    0  0.19772166811E+03  0.33105452542E+03 -0.22497733410E+03  0.44643673426E+03  0.00000000000E+00 0. -1.
          1    1    6    6  503    0 -0.61397483999E+03 -0.38317581660E+02 -0.72197087595E+02  0.61939144381E+03  0.00000000000E+00 0. -1.
         -1    1    6    6    0  503 -0.10962068005E+02  0.12360774540E+02 -0.54647255827E+00  0.16530405756E+02  0.00000000000E+00 0.  1.
<mgrwt>
<rscale>  0 0.20878582E+04</rscale>
<asrwt>0</asrwt>
<pdfrwt beam="1">  1        2 0.20838606E+00 0.20878582E+04</pdfrwt>
<pdfrwt beam="2">  1       -1 0.12377891E+00 0.20878582E+04</pdfrwt>
<totfact> 0.92666316E+00</totfact>
</mgrwt>
</event>
<event>
12    7  0.1729738E-007  0.2621678E+04  0.7818608E-02  0.8360875E-01
          2   -1    0    0  501    0  0.00000000000E+00  0.00000000000E+00  0.13025558025E+04  0.13025558025E+04  0.00000000000E+00 0. -1.
         -1   -1    0    0    0  501 -0.00000000000E+00 -0.00000000000E+00 -0.13191745794E+04  0.13191745794E+04  0.00000000000E+00 0.  1.
         24    2    1    2    0    0 -0.40093963274E+03  0.10098946929E+04  0.40597089432E+03  0.11626840044E+04  0.79886463782E+02 0.  0.
        254    2    1    2    0    0  0.40093963274E+03 -0.10098946929E+04 -0.42258967124E+03  0.14590463776E+04  0.87726530870E+03 0.  0.
         23    2    4    4    0    0  0.55638965073E+03 -0.26478630677E+03 -0.11578554244E+03  0.63337397539E+03  0.89861388647E+02 0.  0.
         23    2    4    4    0    0 -0.15545001799E+03 -0.74510838615E+03 -0.30680412879E+03  0.82567240221E+03  0.90856629474E+02 0.  0.
          2    1    3    3  502    0 -0.20370547652E+03  0.51911734054E+03  0.16577805208E+03  0.58177409444E+03  0.00000000000E+00 0. -1.
         -1    1    3    3    0  502 -0.19723415622E+03  0.49077735238E+03  0.24019284224E+03  0.58090990992E+03  0.00000000000E+00 0.  1.
         13    1    5    5    0    0  0.44618074179E+03 -0.20336671945E+03 -0.55280843822E+02  0.49344832416E+03  0.00000000000E+00 0. -1.
        -13    1    5    5    0    0  0.11020890894E+03 -0.61419587322E+02 -0.60504698622E+02  0.13992565123E+03  0.00000000000E+00 0.  1.
          3    1    6    6  503    0 -0.11131428080E+03 -0.46971538894E+03 -0.23895696655E+03  0.53863145803E+03  0.00000000000E+00 0. -1.
         -3    1    6    6    0  503 -0.44135737189E+02 -0.27539299721E+03 -0.67847162240E+02  0.28704094418E+03  0.00000000000E+00 0.  1.
<mgrwt>
<rscale>  0 0.26216777E+04</rscale>
<asrwt>0</asrwt>
<pdfrwt beam="1">  1        2 0.20039320E+00 0.26216777E+04</pdfrwt>
<pdfrwt beam="2">  1       -1 0.20294994E+00 0.26216777E+04</pdfrwt>
<totfact> 0.23804959E+00</totfact>
</mgrwt>
</event>
<event>
12    7  0.1729738E-007  0.2578985E+04  0.7818608E-02  0.8375375E-01
          2   -1    0    0  501    0  0.00000000000E+00  0.00000000000E+00  0.53407095038E+04  0.53407095038E+04  0.00000000000E+00 0. -1.
         -1   -1    0    0    0  501 -0.00000000000E+00 -0.00000000000E+00 -0.31134273329E+03  0.31134273329E+03  0.00000000000E+00 0.  1.
         24    2    1    2    0    0  0.83351454734E+03 -0.61754959981E+03  0.12432275011E+04  0.16209925445E+04  0.76734614795E+02 0.  0.
        254    2    1    2    0    0 -0.83351454734E+03  0.61754959981E+03  0.37861392694E+04  0.40310596925E+04  0.91568426253E+03 0.  0.
         23    2    4    4    0    0 -0.40697790887E+03  0.12491991040E+03  0.28724756635E+04  0.29050616564E+04  0.83849791201E+02 0.  0.
         23    2    4    4    0    0 -0.42653663847E+03  0.49262968941E+03  0.91366360586E+03  0.11259980361E+04  0.92048236732E+02 0.  0.
          2    1    3    3  502    0  0.26860061223E+03 -0.18953095642E+03  0.44948739472E+03  0.55687268773E+03  0.00000000000E+00 0. -1.
         -1    1    3    3    0  502  0.56491393512E+03 -0.42801864339E+03  0.79374010636E+03  0.10641198568E+04  0.00000000000E+00 0.  1.
         13    1    5    5    0    0 -0.73733018224E+02  0.58268133121E+02  0.64477462864E+03  0.65158733494E+03  0.00000000000E+00 0. -1.
        -13    1    5    5    0    0 -0.33324489065E+03  0.66651777283E+02  0.22277010349E+04  0.22534743214E+04  0.00000000000E+00 0.  1.
          1    1    6    6  503    0 -0.15735406942E+03  0.11751976292E+03  0.27342447682E+03  0.33664839575E+03  0.00000000000E+00 0. -1.
         -1    1    6    6    0  503 -0.26918256905E+03  0.37510992649E+03  0.64023912905E+03  0.78934964040E+03  0.00000000000E+00 0.  1.
<mgrwt>
<rscale>  0 0.25789851E+04</rscale>
<asrwt>0</asrwt>
<pdfrwt beam="1">  1        2 0.82164755E+00 0.25789851E+04</pdfrwt>
<pdfrwt beam="2">  1       -1 0.47898886E-01 0.25789851E+04</pdfrwt>
<totfact> 0.49908043E-02</totfact>
</mgrwt>
</event>
<event>
12    7  0.1729738E-007  0.2384473E+04  0.7818608E-02  0.8445340E-01
         -1   -1    0    0    0  501 -0.00000000000E+00  0.00000000000E+00  0.17600227821E+04  0.17600227821E+04  0.00000000000E+00 0.  1.
          2   -1    0    0  501    0  0.00000000000E+00 -0.00000000000E+00 -0.80761915375E+03  0.80761915375E+03  0.00000000000E+00 0. -1.
         24    2    1    2    0    0 -0.47351610642E+03  0.61505998144E+03  0.11211092154E+04  0.13659241355E+04  0.79665471282E+02 0.  0.
        254    2    1    2    0    0  0.47351610642E+03 -0.61505998144E+03 -0.16870558706E+03  0.12017178003E+04  0.90174708913E+03 0.  0.
         23    2    4    4    0    0  0.17963519573E+03 -0.43110667623E+03 -0.51605746542E+03  0.70205574726E+03  0.91897741088E+02 0.  0.
         23    2    4    4    0    0  0.29388091069E+03 -0.18395330521E+03  0.34735187836E+03  0.49966205308E+03  0.93829801885E+02 0.  0.
          2    1    3    3  502    0 -0.33496528703E+03  0.39217792064E+03  0.78944604072E+03  0.94299009335E+03  0.00000000000E+00 0. -1.
         -1    1    3    3    0  502 -0.13855081939E+03  0.22288206080E+03  0.33166317469E+03  0.42293404217E+03  0.00000000000E+00 0.  1.
         13    1    5    5    0    0  0.10818557257E+03 -0.15997582885E+03 -0.24615413810E+03  0.31287096962E+03  0.00000000000E+00 0.  1.
        -13    1    5    5    0    0  0.71449623161E+02 -0.27113084738E+03 -0.26990332731E+03  0.38918477764E+03  0.00000000000E+00 0. -1.
          3    1    6    6  503    0  0.42690384589E+02 -0.64554523174E-01  0.17595390980E+02  0.46174353135E+02  0.00000000000E+00 0. -1.
         -3    1    6    6    0  503  0.25119052610E+03 -0.18388875069E+03  0.32975648738E+03  0.45348769994E+03  0.00000000000E+00 0.  1.
<mgrwt>
<rscale>  0 0.23844732E+04</rscale>
<asrwt>0</asrwt>
<pdfrwt beam="1">  1        2 0.12424910E+00 0.23844732E+04</pdfrwt>
<pdfrwt beam="2">  1       -1 0.27077274E+00 0.23844732E+04</pdfrwt>
<totfact> 0.17842607E+00</totfact>
</mgrwt>
</event>
<event>
12    7  0.1729738E-007  0.1556404E+04  0.7818608E-02  0.8847788E-01
         -1   -1    0    0    0  501 -0.00000000000E+00  0.00000000000E+00  0.10005259326E+04  0.10005259326E+04  0.00000000000E+00 0.  1.
          2   -1    0    0  501    0  0.00000000000E+00 -0.00000000000E+00 -0.60528001499E+03  0.60528001499E+03  0.00000000000E+00 0. -1.
         24    2    1    2    0    0  0.11285963094E+02  0.11575495421E+02 -0.39431627493E+03  0.40457475147E+03  0.89073227138E+02 0.  0.
        254    2    1    2    0    0 -0.11285963094E+02 -0.11575495421E+02  0.78956219258E+03  0.12012311962E+04  0.90514449987E+03 0.  0.
         23    2    4    4    0    0 -0.35475743462E+03  0.13450627763E+02  0.76010413817E+03  0.84373388020E+03  0.89971122738E+02 0.  0.
         23    2    4    4    0    0  0.34347147153E+03 -0.25026123184E+02  0.29458054407E+02  0.35749731597E+03  0.91310434010E+02 0.  0.
          4    1    3    3  502    0 -0.26009018896E+02  0.32081785917E+02 -0.27080186179E+03  0.27393312761E+03  0.00000000000E+00 0. -1.
         -3    1    3    3    0  502  0.37294981990E+02 -0.20506290495E+02 -0.12351441314E+03  0.13064162386E+03  0.00000000000E+00 0.  1.
         13    1    5    5    0    0 -0.17350792280E+03  0.51593055528E+02  0.37601856992E+03  0.41732098867E+03  0.00000000000E+00 0.  1.
        -13    1    5    5    0    0 -0.18124951182E+03 -0.38142427766E+02  0.38408556824E+03  0.42641289153E+03  0.00000000000E+00 0. -1.
          4    1    6    6  503    0  0.20073554703E+03  0.63125838816E+01  0.57047854993E+02  0.20877994711E+03  0.00000000000E+00 0. -1.
         -4    1    6    6    0  503  0.14273592450E+03 -0.31338707065E+02 -0.27589800587E+02  0.14871736886E+03  0.00000000000E+00 0.  1.
<mgrwt>
<rscale>  0 0.15564040E+04</rscale>
<asrwt>0</asrwt>
<pdfrwt beam="1">  1        2 0.93120002E-01 0.15564040E+04</pdfrwt>
<pdfrwt beam="2">  1       -1 0.15392707E+00 0.15564040E+04</pdfrwt>
<totfact> 0.17545963E+01</totfact>
</mgrwt>
</event>
<event>
12    7  0.1729738E-007  0.1156452E+04  0.7818608E-02  0.9151852E-01
         -3   -1    0    0    0  501 -0.00000000000E+00  0.00000000000E+00  0.67688218216E+03  0.67688218216E+03  0.00000000000E+00 0.  1.
          4   -1    0    0  501    0  0.00000000000E+00 -0.00000000000E+00 -0.49394882927E+03  0.49394882927E+03  0.00000000000E+00 0. -1.
         24    2    1    2    0    0 -0.64184894962E+02 -0.97591580304E+02  0.20551681545E+03  0.25021533245E+03  0.82016668278E+02 0.  0.
        254    2    1    2    0    0  0.64184894962E+02  0.97591580304E+02 -0.22583462563E+02  0.92061567898E+03  0.91289615965E+03 0.  0.
         23    2    4    4    0    0  0.21704448842E+03  0.32822690603E+03 -0.31169678033E+03  0.51009147733E+03  0.90538503306E+02 0.  0.
         23    2    4    4    0    0 -0.15285959345E+03 -0.23063532573E+03  0.28911331777E+03  0.41052420165E+03  0.91569104175E+02 0.  0.
          2    1    3    3  502    0  0.17834129098E+02 -0.10233834411E+02  0.48660074176E+02  0.52826038524E+02  0.00000000000E+00 0. -1.
         -1    1    3    3    0  502 -0.82019024060E+02 -0.87357745893E+02  0.15685674127E+03  0.19738929393E+03  0.00000000000E+00 0.  1.
         13    1    5    5    0    0  0.20718396409E+02  0.50547360007E+02 -0.10115026936E+02  0.55557189664E+02  0.00000000000E+00 0.  1.
        -13    1    5    5    0    0  0.19632609201E+03  0.27767954603E+03 -0.30158175340E+03  0.45453428767E+03  0.00000000000E+00 0. -1.
          3    1    6    6  503    0 -0.75885806508E+02 -0.18095784890E+03  0.22587401930E+03  0.29920473142E+03  0.00000000000E+00 0. -1.
         -3    1    6    6    0  503 -0.76973786946E+02 -0.49677476829E+02  0.63239298473E+02  0.11131947023E+03  0.00000000000E+00 0.  1.
<mgrwt>
<rscale>  0 0.11564517E+04</rscale>
<asrwt>0</asrwt>
<pdfrwt beam="1">  1        4 0.75992128E-01 0.11564517E+04</pdfrwt>
<pdfrwt beam="2">  1       -3 0.10413572E+00 0.11564517E+04</pdfrwt>
<totfact> 0.27992483E+00</totfact>
</mgrwt>
</event>
<event>
12    7  0.1729738E-007  0.1665397E+04  0.7818608E-02  0.8781349E-01
         -1   -1    0    0    0  501 -0.00000000000E+00  0.00000000000E+00  0.32154101255E+03  0.32154101255E+03  0.00000000000E+00 0.  1.
          2   -1    0    0  501    0  0.00000000000E+00 -0.00000000000E+00 -0.21564499159E+04  0.21564499159E+04  0.00000000000E+00 0. -1.
         24    2    1    2    0    0 -0.56953279577E+03 -0.12059620112E+03 -0.58691585163E+03  0.83048732483E+03  0.79548291101E+02 0.  0.
        254    2    1    2    0    0  0.56953279577E+03  0.12059620112E+03 -0.12479930518E+04  0.16475036037E+04  0.90436188426E+03 0.  0.
         23    2    4    4    0    0  0.66158318677E+03  0.42064111239E+01 -0.13032485873E+04  0.14646578658E+04  0.95161844582E+02 0.  0.
         23    2    4    4    0    0 -0.92050390999E+02  0.11638978999E+03  0.55255535579E+02  0.18284573783E+03  0.91430475953E+02 0.  0.
          4    1    3    3  502    0 -0.26542484447E+03 -0.25990660812E+02 -0.30498539177E+03  0.40514435909E+03  0.00000000000E+00 0. -1.
         -3    1    3    3    0  502 -0.30410795131E+03 -0.94605540306E+02 -0.28193045987E+03  0.42534296574E+03  0.00000000000E+00 0.  1.
         13    1    5    5    0    0  0.43547485201E+03 -0.16015393967E+02 -0.76336023206E+03  0.87898446145E+03  0.00000000000E+00 0.  1.
        -13    1    5    5    0    0  0.22610833476E+03  0.20221805091E+02 -0.53988835528E+03  0.58567340440E+03  0.00000000000E+00 0. -1.
          2    1    6    6  503    0 -0.94390701229E+02  0.12986424499E+03  0.49436052318E+02  0.16798288566E+03  0.00000000000E+00 0.  1.
         -2    1    6    6    0  503  0.23403102299E+01 -0.13474454994E+02  0.58194832610E+01  0.14862852175E+02  0.00000000000E+00 0. -1.
<mgrwt>
<rscale>  0 0.16653974E+04</rscale>
<asrwt>0</asrwt>
<pdfrwt beam="1">  1        2 0.33176153E+00 0.16653974E+04</pdfrwt>
<pdfrwt beam="2">  1       -1 0.49467848E-01 0.16653974E+04</pdfrwt>
<totfact> 0.24330863E+01</totfact>
</mgrwt>
</event>
<event>
12    7  0.1729738E-007  0.1503579E+04  0.7818608E-02  0.8882076E-01
         -1   -1    0    0    0  501 -0.00000000000E+00  0.00000000000E+00  0.89990594130E+03  0.89990594130E+03  0.00000000000E+00 0.  1.
          2   -1    0    0  501    0  0.00000000000E+00 -0.00000000000E+00 -0.62805199473E+03  0.62805199473E+03  0.00000000000E+00 0. -1.
         24    2    1    2    0    0  0.23490785943E+03  0.38905558877E+03 -0.69014138424E+02  0.46669590150E+03  0.80598756849E+02 0.  0.
        254    2    1    2    0    0 -0.23490785943E+03 -0.38905558877E+03  0.34086808499E+03  0.10612620345E+04  0.89640398315E+03 0.  0.
         23    2    4    4    0    0 -0.19665070291E+03  0.24862607494E+03  0.24044106709E+03  0.40816748383E+03  0.91117309089E+02 0.  0.
         23    2    4    4    0    0 -0.38257156514E+02 -0.63768166370E+03  0.10042701790E+03  0.65309455070E+03  0.91353117014E+02 0.  0.
          2    1    3    3  502    0  0.12791400047E+03  0.17107021112E+03 -0.66978546290E+02  0.22385963082E+03  0.00000000000E+00 0. -1.
         -1    1    3    3    0  502  0.10699385896E+03  0.21798537765E+03 -0.20355921339E+01  0.24283627068E+03  0.00000000000E+00 0.  1.
         13    1    5    5    0    0 -0.94846259465E+02  0.51405862357E+02  0.77666852430E+02  0.13293049156E+03  0.00000000000E+00 0. -1.
        -13    1    5    5    0    0 -0.10180444345E+03  0.19722021258E+03  0.16277421466E+03  0.27523699227E+03  0.00000000000E+00 0.  1.
          1    1    6    6  503    0  0.15690272378E+02 -0.22849692587E+03  0.68864238889E+02  0.23916377898E+03  0.00000000000E+00 0. -1.
         -1    1    6    6    0  503 -0.53947428892E+02 -0.40918473783E+03  0.31562779009E+02  0.41393077172E+03  0.00000000000E+00 0.  1.
<mgrwt>
<rscale>  0 0.15035794E+04</rscale>
<asrwt>0</asrwt>
<pdfrwt beam="1">  1        2 0.96623384E-01 0.15035794E+04</pdfrwt>
<pdfrwt beam="2">  1       -1 0.13844707E+00 0.15035794E+04</pdfrwt>
<totfact> 0.22344481E+01</totfact>
</mgrwt>
</event>
<event>
12    7  0.1729738E-007  0.2037052E+04  0.7818608E-02  0.8589491E-01
         -1   -1    0    0    0  501 -0.00000000000E+00  0.00000000000E+00  0.42638447951E+03  0.42638447951E+03  0.00000000000E+00 0.  1.
          2   -1    0    0  501    0  0.00000000000E+00 -0.00000000000E+00 -0.24330043963E+04  0.24330043963E+04  0.00000000000E+00 0. -1.
         24    2    1    2    0    0  0.92470145533E+02  0.29006167595E+02  0.32931389752E+03  0.35197650947E+03  0.77767181658E+02 0.  0.
        254    2    1    2    0    0 -0.92470145533E+02 -0.29006167595E+02 -0.23359338143E+04  0.25074123663E+04  0.90616659861E+03 0.  0.
         23    2    4    4    0    0 -0.28434186992E+03 -0.37719537731E+03 -0.98142655277E+03  0.10928430538E+04  0.89337618536E+02 0.  0.
         23    2    4    4    0    0  0.19187172439E+03  0.34818920971E+03 -0.13545072615E+04  0.14145693125E+04  0.90917182309E+02 0.  0.
          2    1    3    3  502    0 -0.77267348715E+01  0.12850761984E+02  0.10118860082E+03  0.10229358460E+03  0.00000000000E+00 0. -1.
         -1    1    3    3    0  502  0.10019688040E+03  0.16155405611E+02  0.22812529670E+03  0.24968292487E+03  0.00000000000E+00 0.  1.
         13    1    5    5    0    0 -0.38166844616E+02 -0.98835404245E+02 -0.16898506973E+03  0.19945199661E+03  0.00000000000E+00 0.  1.
        -13    1    5    5    0    0 -0.24617502531E+03 -0.27835997306E+03 -0.81244148303E+03  0.89339105718E+03  0.00000000000E+00 0. -1.
          3    1    6    6  503    0  0.19252271856E+03  0.32739242929E+03 -0.13257056029E+04  0.13790381232E+04  0.00000000000E+00 0. -1.
         -3    1    6    6    0  503 -0.65099416613E+00  0.20796780428E+02 -0.28801658641E+02  0.35531189257E+02  0.00000000000E+00 0.  1.
<mgrwt>
<rscale>  0 0.20370521E+04</rscale>
<asrwt>0</asrwt>
<pdfrwt beam="1">  1        2 0.37430836E+00 0.20370521E+04</pdfrwt>
<pdfrwt beam="2">  1       -1 0.65597614E-01 0.20370521E+04</pdfrwt>
<totfact> 0.94553670E+00</totfact>
</mgrwt>
</event>
<event>
12    7  0.1729738E-007  0.1142831E+04  0.7818608E-02  0.9164423E-01
         -1   -1    0    0    0  501 -0.00000000000E+00  0.00000000000E+00  0.32279713434E+03  0.32279713434E+03  0.00000000000E+00 0.  1.
          2   -1    0    0  501    0  0.00000000000E+00 -0.00000000000E+00 -0.10115189281E+04  0.10115189281E+04  0.00000000000E+00 0. -1.
         24    2    1    2    0    0  0.18369620317E+02 -0.19593759044E+03 -0.15944617922E+03  0.26570924898E+03  0.80307774414E+02 0.  0.
        254    2    1    2    0    0 -0.18369620317E+02  0.19593759044E+03 -0.52927561455E+03  0.10686068135E+04  0.90722591638E+03 0.  0.
         23    2    4    4    0    0 -0.50028724618E+02  0.38459753149E+03  0.94748394101E+02  0.40966435804E+03  0.91812273398E+02 0.  0.
         23    2    4    4    0    0  0.31659104301E+02 -0.18865994106E+03 -0.62402400865E+03  0.65894245543E+03  0.90577723271E+02 0.  0.
          2    1    3    3  502    0  0.15735840404E+02 -0.15725406449E+01 -0.24185113655E+02  0.28896527124E+02  0.00000000000E+00 0. -1.
         -1    1    3    3    0  502  0.26337799123E+01 -0.19436504979E+03 -0.13526106556E+03  0.23681272186E+03  0.00000000000E+00 0.  1.
         13    1    5    5    0    0 -0.75480871532E+02  0.32524687738E+03  0.82559480819E+02  0.34394616016E+03  0.00000000000E+00 0. -1.
        -13    1    5    5    0    0  0.25452146914E+02  0.59350654111E+02  0.12188913282E+02  0.65718197883E+02  0.00000000000E+00 0.  1.
          3    1    6    6  503    0  0.15317028994E+02 -0.19271843085E+03 -0.54877418411E+03  0.58183168538E+03  0.00000000000E+00 0. -1.
         -3    1    6    6    0  503  0.16342075307E+02  0.40584897901E+01 -0.75249824535E+02  0.77110770047E+02  0.00000000000E+00 0.  1.
<mgrwt>
<rscale>  0 0.11428305E+04</rscale>
<asrwt>0</asrwt>
<pdfrwt beam="1">  1        2 0.15561830E+00 0.11428305E+04</pdfrwt>
<pdfrwt beam="2">  1       -1 0.49661097E-01 0.11428305E+04</pdfrwt>
<totfact> 0.11369300E+02</totfact>
</mgrwt>
</event>
<event>
12    7  0.1729738E-007  0.1693612E+04  0.7818608E-02  0.8765016E-01
         -1   -1    0    0    0  501 -0.00000000000E+00  0.00000000000E+00  0.22875274644E+03  0.22875274644E+03  0.00000000000E+00 0.  1.
          2   -1    0    0  501    0  0.00000000000E+00 -0.00000000000E+00 -0.31347402212E+04  0.31347402212E+04  0.00000000000E+00 0. -1.
         24    2    1    2    0    0 -0.44125480665E+03  0.16265075101E+02 -0.22915933292E+03  0.50455423330E+03  0.84205803921E+02 0.  0.
        254    2    1    2    0    0  0.44125480665E+03 -0.16265075101E+02 -0.26768281418E+04  0.28589387343E+04  0.90174909408E+03 0.  0.
         23    2    4    4    0    0  0.20280372946E+03  0.29788997742E+03 -0.22088504233E+04  0.22398755448E+04  0.90302118289E+02 0.  0.
         23    2    4    4    0    0  0.23845107719E+03 -0.31415505252E+03 -0.46797771853E+03  0.61906318947E+03  0.93186771008E+02 0.  0.
          4    1    3    3  502    0 -0.14918504130E+03  0.34327679864E+02 -0.11042991118E+03  0.18875733479E+03  0.00000000000E+00 0. -1.
         -3    1    3    3    0  502 -0.29206976535E+03 -0.18062604763E+02 -0.11872942174E+03  0.31579689851E+03  0.00000000000E+00 0.  1.
         13    1    5    5    0    0  0.12820730112E+03  0.16316849135E+03 -0.15147199526E+04  0.15288680791E+04  0.00000000000E+00 0.  1.
        -13    1    5    5    0    0  0.74596428349E+02  0.13472148606E+03 -0.69413047072E+03  0.71100746572E+03  0.00000000000E+00 0. -1.
          3    1    6    6  503    0  0.63340882683E+02 -0.13543528228E+03 -0.22603676380E+03  0.27101181099E+03  0.00000000000E+00 0. -1.
         -3    1    6    6    0  503  0.17511019450E+03 -0.17871977024E+03 -0.24194095473E+03  0.34805137849E+03  0.00000000000E+00 0.  1.
<mgrwt>
<rscale>  0 0.16936120E+04</rscale>
<asrwt>0</asrwt>
<pdfrwt beam="1">  1        2 0.48226770E+00 0.16936120E+04</pdfrwt>
<pdfrwt beam="2">  1       -1 0.35192732E-01 0.16936120E+04</pdfrwt>
<totfact> 0.11979051E+01</totfact>
</mgrwt>
</event>
<event>
12    7  0.1729738E-007  0.1565324E+04  0.7818608E-02  0.8842139E-01
         -1   -1    0    0    0  501 -0.00000000000E+00  0.00000000000E+00  0.14001775230E+04  0.14001775230E+04  0.00000000000E+00 0.  1.
          2   -1    0    0  501    0  0.00000000000E+00 -0.00000000000E+00 -0.43748707130E+03  0.43748707130E+03  0.00000000000E+00 0. -1.
         24    2    1    2    0    0  0.95957356890E+02 -0.46880767617E+03  0.89155994828E+02  0.49376266997E+03  0.82851259877E+02 0.  0.
        254    2    1    2    0    0 -0.95957356890E+02  0.46880767617E+03  0.87353445692E+03  0.13439019244E+04  0.90223139123E+03 0.  0.
         23    2    4    4    0    0 -0.31678168812E+03  0.28238799621E+03  0.15759770254E+02  0.43440061179E+03  0.91443440591E+02 0.  0.
         23    2    4    4    0    0  0.22082433123E+03  0.18641967996E+03  0.85777468666E+03  0.90950131259E+03  0.88879368669E+02 0.  0.
          2    1    3    3  502    0  0.52272945083E+02 -0.40328779173E+03  0.68965098508E+02  0.41246780306E+03  0.00000000000E+00 0. -1.
         -1    1    3    3    0  502  0.43684411808E+02 -0.65519884440E+02  0.20190896320E+02  0.81294866912E+02  0.00000000000E+00 0.  1.
         13    1    5    5    0    0 -0.77262534018E+02  0.28335670439E+02 -0.15873555544E+02  0.83811569295E+02  0.00000000000E+00 0. -1.
        -13    1    5    5    0    0 -0.23951915411E+03  0.25405232577E+03  0.31633325798E+02  0.35058904249E+03  0.00000000000E+00 0.  1.
          4    1    6    6  503    0  0.24911683596E+02  0.66264872500E+02  0.16324262837E+03  0.17793195616E+03  0.00000000000E+00 0. -1.
         -4    1    6    6    0  503  0.19591264764E+03  0.12015480746E+03  0.69453205830E+03  0.73156935643E+03  0.00000000000E+00 0.  1.
<mgrwt>
<rscale>  0 0.15653237E+04</rscale>
<asrwt>0</asrwt>
<pdfrwt beam="1">  1        2 0.67305704E-01 0.15653237E+04</pdfrwt>
<pdfrwt beam="2">  1       -1 0.21541192E+00 0.15653237E+04</pdfrwt>
<totfact> 0.93306501E+00</totfact>
</mgrwt>
</event>
<event>
12    7  0.1748352E-007  0.3975236E+04  0.7818608E-02  0.8009561E-01
          2   -1    0    0  501    0  0.00000000000E+00  0.00000000000E+00  0.30659859827E+04  0.30659859827E+04  0.00000000000E+00 0. -1.
         -1   -1    0    0    0  501 -0.00000000000E+00 -0.00000000000E+00 -0.12885331440E+04  0.12885331440E+04  0.00000000000E+00 0.  1.
         24    2    1    2    0    0 -0.16162583839E+04 -0.57169372581E+03 -0.11589439427E+02  0.17162825194E+04  0.79790297012E+02 0.  0.
        254    2    1    2    0    0  0.16162583839E+04  0.57169372581E+03  0.17890422781E+04  0.26382366074E+04  0.90581192524E+03 0.  0.
         23    2    4    4    0    0  0.15465381220E+04  0.43509880854E+03  0.11580445082E+04  0.19825397455E+04  0.91135193631E+02 0.  0.
         23    2    4    4    0    0  0.69720261962E+02  0.13659491727E+03  0.63099776995E+03  0.65569686194E+03  0.90890608537E+02 0.  0.
          2    1    3    3  502    0 -0.17385802443E+03 -0.68486978235E+02 -0.25285575509E+02  0.18856415136E+03  0.00000000000E+00 0. -1.
         -1    1    3    3    0  502 -0.14424003595E+04 -0.50320674758E+03  0.13696136082E+02  0.15277183680E+04  0.00000000000E+00 0.  1.
         13    1    5    5    0    0  0.83700023794E+02  0.81301314842E+01  0.78355702143E+02  0.11494089385E+03  0.00000000000E+00 0. -1.
        -13    1    5    5    0    0  0.14628380982E+04  0.42696867706E+03  0.10796888060E+04  0.18675988516E+04  0.00000000000E+00 0.  1.
          2    1    6    6  503    0  0.70053920732E+02  0.62433166899E+02  0.23931255585E+03  0.25705242953E+03  0.00000000000E+00 0.  1.
         -2    1    6    6    0  503 -0.33365876931E+00  0.74161750374E+02  0.39168521409E+03  0.39864443240E+03  0.00000000000E+00 0. -1.
<mgrwt>
<rscale>  0 0.39752356E+04</rscale>
<asrwt>0</asrwt>
<pdfrwt beam="1">  1        2 0.47169015E+00 0.39752356E+04</pdfrwt>
<pdfrwt beam="2">  1       -1 0.19823587E+00 0.39752356E+04</pdfrwt>
<totfact> 0.21962707E-01</totfact>
</mgrwt>
</event>
<event>
12    7  0.1729738E-007  0.2608345E+04  0.7818608E-02  0.8365372E-01
          2   -1    0    0  501    0  0.00000000000E+00  0.00000000000E+00  0.13765920190E+04  0.13765920190E+04  0.00000000000E+00 0. -1.
         -1   -1    0    0    0  501 -0.00000000000E+00 -0.00000000000E+00 -0.12355631615E+04  0.12355631615E+04  0.00000000000E+00 0.  1.
         24    2    1    2    0    0  0.39936966645E+03 -0.79773237567E+03 -0.66405462848E+03  0.11149449420E+04  0.79123955341E+02 0.  0.
        254    2    1    2    0    0 -0.39936966645E+03  0.79773237567E+03  0.80508348600E+03  0.14972102385E+04  0.89308790448E+03 0.  0.
         23    2    4    4    0    0 -0.15265044263E+03  0.85361069166E+03  0.29303191313E+03  0.91900482908E+03  0.82151099903E+02 0.  0.
         23    2    4    4    0    0 -0.24671922381E+03 -0.55878315984E+02  0.51205157287E+03  0.57820540941E+03  0.90177162261E+02 0.  0.
          2    1    3    3  502    0  0.11232046892E+03 -0.15432561731E+03 -0.13171490090E+03  0.23190752255E+03  0.00000000000E+00 0. -1.
         -1    1    3    3    0  502  0.28704919753E+03 -0.64340675836E+03 -0.53233972759E+03  0.88303741941E+03  0.00000000000E+00 0.  1.
         13    1    5    5    0    0 -0.83323485923E+02  0.57987843882E+03  0.23206198339E+03  0.63012266366E+03  0.00000000000E+00 0. -1.
        -13    1    5    5    0    0 -0.69326956711E+02  0.27373225283E+03  0.60969929738E+02  0.28888216542E+03  0.00000000000E+00 0.  1.
          2    1    6    6  503    0 -0.63245069028E+02 -0.25866414694E+02  0.66172917956E+02  0.95120267222E+02  0.00000000000E+00 0. -1.
         -2    1    6    6    0  503 -0.18347415478E+03 -0.30011901290E+02  0.44587865491E+03  0.48308514219E+03  0.00000000000E+00 0.  1.
<mgrwt>
<rscale>  0 0.26083454E+04</rscale>
<asrwt>0</asrwt>
<pdfrwt beam="1">  1        2 0.21178339E+00 0.26083454E+04</pdfrwt>
<pdfrwt beam="2">  1       -1 0.19008664E+00 0.26083454E+04</pdfrwt>
<totfact> 0.26521306E+00</totfact>
</mgrwt>
</event>
<event>
12    7  0.1729738E-007  0.2532493E+04  0.7818608E-02  0.8391500E-01
          2   -1    0    0  501    0  0.00000000000E+00  0.00000000000E+00  0.25458119608E+04  0.25458119608E+04  0.00000000000E+00 0. -1.
         -1   -1    0    0    0  501 -0.00000000000E+00 -0.00000000000E+00 -0.62981100047E+03  0.62981100047E+03  0.00000000000E+00 0.  1.
         24    2    1    2    0    0  0.31248666371E+02  0.18133917091E+03 -0.52788042285E+03  0.56463478501E+03  0.79336785650E+02 0.  0.
        254    2    1    2    0    0 -0.31248666371E+02 -0.18133917091E+03  0.24438813831E+04  0.26109881762E+04  0.90046802690E+03 0.  0.
         23    2    4    4    0    0 -0.77817946556E+02  0.31786197488E+03  0.52284629816E+03  0.62350889155E+03  0.91121997695E+02 0.  0.
         23    2    4    4    0    0  0.46569280185E+02 -0.49920114579E+03  0.19210350850E+04  0.19874792847E+04  0.91255835205E+02 0.  0.
          2    1    3    3  502    0 -0.35859213349E+01  0.90378507863E+01 -0.17045168917E+01  0.98715225012E+01  0.00000000000E+00 0. -1.
         -3    1    3    3    0  502  0.34834587706E+02  0.17230132012E+03 -0.52617590596E+03  0.55476326251E+03  0.00000000000E+00 0.  1.
         13    1    5    5    0    0 -0.80901117700E+02  0.13964611761E+03  0.24221689642E+03  0.29105850601E+03  0.00000000000E+00 0. -1.
        -13    1    5    5    0    0  0.30831711438E+01  0.17821585728E+03  0.28062940174E+03  0.33245038554E+03  0.00000000000E+00 0.  1.
          1    1    6    6  503    0  0.72546339854E+02 -0.29722625101E+03  0.11457330211E+04  0.11858796614E+04  0.00000000000E+00 0. -1.
         -1    1    6    6    0  503 -0.25977059669E+02 -0.20197489478E+03  0.77530206386E+03  0.80159962324E+03  0.00000000000E+00 0.  1.
<mgrwt>
<rscale>  0 0.25324931E+04</rscale>
<asrwt>0</asrwt>
<pdfrwt beam="1">  1        2 0.39166337E+00 0.25324931E+04</pdfrwt>
<pdfrwt beam="2">  1       -1 0.96894001E-01 0.25324931E+04</pdfrwt>
<totfact> 0.33911038E+00</totfact>
</mgrwt>
</event>
<event>
12    7  0.1729738E-007  0.1474285E+04  0.7818608E-02  0.8901735E-01
         -1   -1    0    0    0  501 -0.00000000000E+00  0.00000000000E+00  0.66757428858E+03  0.66757428858E+03  0.00000000000E+00 0.  1.
          2   -1    0    0  501    0  0.00000000000E+00 -0.00000000000E+00 -0.81396078454E+03  0.81396078454E+03  0.00000000000E+00 0. -1.
         24    2    1    2    0    0  0.20295781408E+03 -0.32534482505E+03 -0.28937026793E+03  0.48681410908E+03  0.78814309324E+02 0.  0.
        254    2    1    2    0    0 -0.20295781408E+03  0.32534482505E+03  0.14298377196E+03  0.99472096404E+03  0.90663350246E+03 0.  0.
         23    2    4    4    0    0  0.17086439292E+03  0.80487528515E+02 -0.29700461855E+03  0.36114146716E+03  0.80861194962E+02 0.  0.
         23    2    4    4    0    0 -0.37382220700E+03  0.24485729653E+03  0.43998839051E+03  0.63357949688E+03  0.90194550685E+02 0.  0.
          4    1    3    3  502    0  0.14793829820E+03 -0.24728906265E+03 -0.25659652317E+03  0.38584892936E+03  0.00000000000E+00 0. -1.
         -3    1    3    3    0  502  0.55019515872E+02 -0.78055762395E+02 -0.32773744755E+02  0.10096517972E+03  0.00000000000E+00 0.  1.
         13    1    5    5    0    0  0.30014027035E+02 -0.15815683208E+02 -0.62750123881E+02  0.71334113167E+02  0.00000000000E+00 0. -1.
        -13    1    5    5    0    0  0.14085036589E+03  0.96303211723E+02 -0.23425449467E+03  0.28980735400E+03  0.00000000000E+00 0.  1.
          2    1    6    6  503    0 -0.23919684291E+02  0.31036400733E+00  0.56572593796E+01  0.24581541979E+02  0.00000000000E+00 0. -1.
         -2    1    6    6    0  503 -0.34990252271E+03  0.24454693253E+03  0.43433113113E+03  0.60899795490E+03  0.00000000000E+00 0.  1.
<mgrwt>
<rscale>  0 0.14742853E+04</rscale>
<asrwt>0</asrwt>
<pdfrwt beam="1">  1        2 0.12522474E+00 0.14742853E+04</pdfrwt>
<pdfrwt beam="2">  1       -1 0.10270374E+00 0.14742853E+04</pdfrwt>
<totfact> 0.33351169E+01</totfact>
</mgrwt>
</event>
<event>
12    7  0.1729738E-007  0.5374411E+04  0.7818608E-02  0.7773211E-01
         -1   -1    0    0    0  501 -0.00000000000E+00  0.00000000000E+00  0.16825314330E+04  0.16825314330E+04  0.00000000000E+00 0.  1.
          2   -1    0    0  501    0  0.00000000000E+00 -0.00000000000E+00 -0.42917907942E+04  0.42917907942E+04  0.00000000000E+00 0. -1.
         24    2    1    2    0    0  0.11083446511E+04  0.22466501824E+04 -0.20900612128E+04  0.32635203965E+04  0.79652979883E+02 0.  0.
        254    2    1    2    0    0 -0.11083446511E+04 -0.22466501824E+04 -0.51919814830E+03  0.27108018307E+04  0.89611100891E+03 0.  0.
         23    2    4    4    0    0 -0.87694940682E+03 -0.21813930060E+04 -0.62310442016E+03  0.24338598330E+04  0.88875527587E+02 0.  0.
         23    2    4    4    0    0 -0.23139524430E+03 -0.65257176422E+02  0.10390627186E+03  0.27694199772E+03  0.89989436113E+02 0.  0.
          4    1    3    3  502    0  0.64516432500E+03  0.12658442013E+04 -0.12304680180E+04  0.18795345412E+04  0.00000000000E+00 0. -1.
         -3    1    3    3    0  502  0.46318032612E+03  0.98080598117E+03 -0.85959319483E+03  0.13839858553E+04  0.00000000000E+00 0.  1.
         13    1    5    5    0    0 -0.75172282402E+03 -0.19298140411E+04 -0.52969782178E+03  0.21377205663E+04  0.00000000000E+00 0. -1.
        -13    1    5    5    0    0 -0.12522658280E+03 -0.25157896493E+03 -0.93406598384E+02  0.29613926666E+03  0.00000000000E+00 0.  1.
          2    1    6    6  503    0 -0.16997119712E+03 -0.31768828721E+02  0.11274785513E+03  0.20642564077E+03  0.00000000000E+00 0. -1.
         -2    1    6    6    0  503 -0.61424047180E+02 -0.33488347702E+02 -0.88415832723E+01  0.70516356958E+02  0.00000000000E+00 0.  1.
<mgrwt>
<rscale>  0 0.53744108E+04</rscale>
<asrwt>0</asrwt>
<pdfrwt beam="1">  1        2 0.66027549E+00 0.53744108E+04</pdfrwt>
<pdfrwt beam="2">  1       -1 0.25885100E+00 0.53744108E+04</pdfrwt>
<totfact> 0.93724192E-03</totfact>
</mgrwt>
</event>
<event>
12    7  0.1729738E-007  0.2035492E+04  0.7818608E-02  0.8590204E-01
          2   -1    0    0  501    0  0.00000000000E+00  0.00000000000E+00  0.65794405116E+03  0.65794405116E+03  0.00000000000E+00 0. -1.
         -1   -1    0    0    0  501 -0.00000000000E+00 -0.00000000000E+00 -0.15743090767E+04  0.15743090767E+04  0.00000000000E+00 0.  1.
         24    2    1    2    0    0 -0.40147577051E+03  0.54901965587E+03  0.13087120144E+03  0.69754279151E+03  0.82663763456E+02 0.  0.
        254    2    1    2    0    0  0.40147577051E+03 -0.54901965587E+03 -0.10472362269E+04  0.15347103363E+04  0.89220329777E+03 0.  0.
         23    2    4    4    0    0 -0.15388637086E+02 -0.48717099535E+02  0.14214442896E+03  0.17570665438E+03  0.89764267793E+02 0.  0.
         23    2    4    4    0    0  0.41686440759E+03 -0.50030255633E+03 -0.11893806559E+04  0.13590036819E+04  0.90476962206E+02 0.  0.
          2    1    3    3  502    0 -0.28252006309E+03  0.38578993294E+03  0.13012836589E+03  0.49556518241E+03  0.00000000000E+00 0. -1.
         -1    1    3    3    0  502 -0.11895570742E+03  0.16322972293E+03  0.74283555111E+00  0.20197760910E+03  0.00000000000E+00 0.  1.
         13    1    5    5    0    0  0.36041786284E+02 -0.34514575307E+02  0.70704844512E+02  0.86541558252E+02  0.00000000000E+00 0.  1.
        -13    1    5    5    0    0 -0.51430423370E+02 -0.14202524228E+02  0.71439584446E+02  0.89165096132E+02  0.00000000000E+00 0. -1.
          1    1    6    6  503    0  0.33836281419E+03 -0.35303177495E+03 -0.84427963944E+03  0.97566845686E+03  0.00000000000E+00 0. -1.
         -1    1    6    6    0  503  0.78501593403E+02 -0.14727078139E+03 -0.34510101646E+03  0.38333522507E+03  0.00000000000E+00 0.  1.
<mgrwt>
<rscale>  0 0.20354924E+04</rscale>
<asrwt>0</asrwt>
<pdfrwt beam="1">  1        2 0.10122216E+00 0.20354924E+04</pdfrwt>
<pdfrwt beam="2">  1       -1 0.24220139E+00 0.20354924E+04</pdfrwt>
<totfact> 0.36730803E+00</totfact>
</mgrwt>
</event>
<event>
12    7  0.1729738E-007  0.1671895E+04  0.7818608E-02  0.8777558E-01
         -1   -1    0    0    0  501 -0.00000000000E+00  0.00000000000E+00  0.35576695422E+03  0.35576695422E+03  0.00000000000E+00 0.  1.
          2   -1    0    0  501    0  0.00000000000E+00 -0.00000000000E+00 -0.19642304215E+04  0.19642304215E+04  0.00000000000E+00 0. -1.
         24    2    1    2    0    0  0.19123762129E+03  0.76173086654E+02  0.19127123849E+03  0.29189802542E+03  0.79029131588E+02 0.  0.
        254    2    1    2    0    0 -0.19123762129E+03 -0.76173086654E+02 -0.17997347058E+04  0.20280993503E+04  0.91201304631E+03 0.  0.
         23    2    4    4    0    0 -0.77264273158E+02 -0.15063349053E+03 -0.18473927473E+04  0.18569570700E+04  0.82276247777E+02 0.  0.
         23    2    4    4    0    0 -0.11397334813E+03  0.74460403873E+02  0.47658041473E+02  0.17114228029E+03  0.92109257704E+02 0.  0.
          4    1    3    3  502    0 -0.62437257909E+01  0.71541690619E+01  0.17640694697E+02  0.20033980037E+02  0.00000000000E+00 0. -1.
         -3    1    3    3    0  502  0.19748134708E+03  0.69018917592E+02  0.17363054380E+03  0.27186404538E+03  0.00000000000E+00 0.  1.
         13    1    5    5    0    0 -0.66509581947E+02 -0.87789233303E+02 -0.14783676886E+04  0.14824646697E+04  0.00000000000E+00 0. -1.
        -13    1    5    5    0    0 -0.10754691211E+02 -0.62844257224E+02 -0.36902505861E+03  0.37449240037E+03  0.00000000000E+00 0.  1.
          2    1    6    6  503    0 -0.35357350538E+02  0.15704073158E+02  0.60855635632E+02  0.72112194107E+02  0.00000000000E+00 0. -1.
         -2    1    6    6    0  503 -0.78615997596E+02  0.58756330716E+02 -0.13197594159E+02  0.99030086180E+02  0.00000000000E+00 0.  1.
<mgrwt>
<rscale>  0 0.16718951E+04</rscale>
<asrwt>0</asrwt>
<pdfrwt beam="1">  1        2 0.30218930E+00 0.16718951E+04</pdfrwt>
<pdfrwt beam="2">  1       -1 0.54733377E-01 0.16718951E+04</pdfrwt>
<totfact> 0.25626322E+01</totfact>
</mgrwt>
</event>
<event>
12    7  0.1729738E-007  0.1768083E+04  0.7818608E-02  0.8723459E-01
         -1   -1    0    0    0  501 -0.00000000000E+00  0.00000000000E+00  0.54713828697E+03  0.54713828697E+03  0.00000000000E+00 0.  1.
          2   -1    0    0  501    0  0.00000000000E+00 -0.00000000000E+00 -0.14283952876E+04  0.14283952876E+04  0.00000000000E+00 0. -1.
         24    2    1    2    0    0 -0.31569607573E+02  0.63933864704E+03 -0.50330045709E+03  0.81844595836E+03  0.82412929345E+02 0.  0.
        254    2    1    2    0    0  0.31569607573E+02 -0.63933864704E+03 -0.37795654357E+03  0.11570876162E+04  0.88670742475E+03 0.  0.
         23    2    4    4    0    0 -0.87937710376E+02 -0.80025862081E+03 -0.44497567241E+03  0.92474102190E+03  0.94845703429E+02 0.  0.
         23    2    4    4    0    0  0.11950731795E+03  0.16091997377E+03  0.67019128841E+02  0.23234659434E+03  0.96520149558E+02 0.  0.
          2    1    3    3  502    0 -0.15004946720E+02  0.61064872160E+03 -0.48858088953E+03  0.78219453797E+03  0.00000000000E+00 0. -1.
         -1    1    3    3    0  502 -0.16564660853E+02  0.28689925433E+02 -0.14719567563E+02  0.36251420383E+02  0.00000000000E+00 0.  1.
         13    1    5    5    0    0 -0.34129406227E+02 -0.53935734371E+03 -0.25518022661E+03  0.59765216359E+03  0.00000000000E+00 0.  1.
        -13    1    5    5    0    0 -0.53808304150E+02 -0.26090127709E+03 -0.18979544579E+03  0.32708885831E+03  0.00000000000E+00 0. -1.
          1    1    6    6  503    0  0.80005363902E+01 -0.15216131288E+01 -0.16457335188E+02  0.18362128704E+02  0.00000000000E+00 0. -1.
         -1    1    6    6    0  503  0.11150678156E+03  0.16244158690E+03  0.83476464030E+02  0.21398446564E+03  0.00000000000E+00 0.  1.
<mgrwt>
<rscale>  0 0.17680834E+04</rscale>
<asrwt>0</asrwt>
<pdfrwt beam="1">  1        2 0.21975312E+00 0.17680834E+04</pdfrwt>
<pdfrwt beam="2">  1       -1 0.84175122E-01 0.17680834E+04</pdfrwt>
<totfact> 0.21025756E+01</totfact>
</mgrwt>
</event>
<event>
12    7  0.1729738E-007  0.1327274E+04  0.7818608E-02  0.9008212E-01
         -1   -1    0    0    0  501 -0.00000000000E+00  0.00000000000E+00  0.21308730001E+03  0.21308730001E+03  0.00000000000E+00 0.  1.
          2   -1    0    0  501    0  0.00000000000E+00 -0.00000000000E+00 -0.20668238438E+04  0.20668238438E+04  0.00000000000E+00 0. -1.
         24    2    1    2    0    0 -0.30840157131E+03  0.42403345543E+02 -0.80112313652E+03  0.86307830764E+03  0.78716658567E+02 0.  0.
        254    2    1    2    0    0  0.30840157131E+03 -0.42403345543E+02 -0.10526134073E+04  0.14168328362E+04  0.89582963090E+03 0.  0.
         23    2    4    4    0    0 -0.15192674868E+02  0.31021388550E+03 -0.86647660925E+02  0.33493025474E+03  0.90592418385E+02 0.  0.
         23    2    4    4    0    0  0.32359424618E+03 -0.35261723104E+03 -0.96596574634E+03  0.10819025814E+04  0.91494397721E+02 0.  0.
          4    1    3    3  502    0 -0.14150237164E+03  0.19404981503E+02 -0.47499300188E+03  0.49600184105E+03  0.00000000000E+00 0. -1.
         -3    1    3    3    0  502 -0.16689919968E+03  0.22998364040E+02 -0.32613013464E+03  0.36707646658E+03  0.00000000000E+00 0.  1.
         13    1    5    5    0    0  0.29401818777E+02  0.39949024810E+02 -0.14053489185E+02  0.51554748461E+02  0.00000000000E+00 0. -1.
        -13    1    5    5    0    0 -0.44594493644E+02  0.27026486069E+03 -0.72594171740E+02  0.28337550628E+03  0.00000000000E+00 0.  1.
          4    1    6    6  503    0  0.48282304381E+02 -0.64602098504E+02 -0.24808368982E+03  0.26086419686E+03  0.00000000000E+00 0. -1.
         -4    1    6    6    0  503  0.27531194180E+03 -0.28801513254E+03 -0.71788205652E+03  0.82103838458E+03  0.00000000000E+00 0.  1.
<mgrwt>
<rscale>  0 0.13272738E+04</rscale>
<asrwt>0</asrwt>
<pdfrwt beam="1">  1        2 0.31797291E+00 0.13272738E+04</pdfrwt>
<pdfrwt beam="2">  1       -1 0.32782661E-01 0.13272738E+04</pdfrwt>
<totfact> 0.59675146E+01</totfact>
</mgrwt>
</event>
<event>
12    7  0.1729738E-007  0.1180061E+04  0.7818608E-02  0.9130490E-01
          2   -1    0    0  501    0  0.00000000000E+00  0.00000000000E+00  0.26862074804E+04  0.26862074804E+04  0.00000000000E+00 0. -1.
         -1   -1    0    0    0  501 -0.00000000000E+00 -0.00000000000E+00 -0.12960129237E+03  0.12960129237E+03  0.00000000000E+00 0.  1.
         24    2    1    2    0    0  0.20893726301E+02  0.19238915994E+03  0.21947612443E+03  0.30395845769E+03  0.82285102843E+02 0.  0.
        254    2    1    2    0    0 -0.20893726301E+02 -0.19238915994E+03  0.23371300636E+04  0.25118503151E+04  0.89986939855E+03 0.  0.
         23    2    4    4    0    0 -0.29423661484E+03  0.24550295826E+03  0.10117371973E+04  0.10863650435E+04  0.98640576743E+02 0.  0.
         23    2    4    4    0    0  0.27334288854E+03 -0.43789211820E+03  0.13253928663E+04  0.14254852715E+04  0.94213414268E+02 0.  0.
          2    1    3    3  502    0  0.12518866847E+02  0.18803599504E+03  0.17067280494E+03  0.25425078919E+03  0.00000000000E+00 0. -1.
         -1    1    3    3    0  502  0.83748594537E+01  0.43531649039E+01  0.48803319487E+02  0.49707668508E+02  0.00000000000E+00 0.  1.
         13    1    5    5    0    0 -0.12644986995E+03  0.11309725840E+03  0.31765091727E+03  0.36011479379E+03  0.00000000000E+00 0. -1.
        -13    1    5    5    0    0 -0.16778674489E+03  0.13240569986E+03  0.69408628003E+03  0.72625024973E+03  0.00000000000E+00 0.  1.
          4    1    6    6  503    0  0.20342731954E+03 -0.38437391344E+03  0.11434495192E+04  0.12233571770E+04  0.00000000000E+00 0. -1.
         -4    1    6    6    0  503  0.69915568993E+02 -0.53518204757E+02  0.18194334714E+03  0.20212809453E+03  0.00000000000E+00 0.  1.
<mgrwt>
<rscale>  0 0.11800609E+04</rscale>
<asrwt>0</asrwt>
<pdfrwt beam="1">  1        2 0.41326265E+00 0.11800609E+04</pdfrwt>
<pdfrwt beam="2">  1       -1 0.19938662E-01 0.11800609E+04</pdfrwt>
<totfact> 0.63220013E+01</totfact>
</mgrwt>
</event>
<event>
12    7  0.1729738E-007  0.1983565E+04  0.7818608E-02  0.8614343E-01
         -1   -1    0    0    0  501 -0.00000000000E+00  0.00000000000E+00  0.39301881546E+03  0.39301881546E+03  0.00000000000E+00 0.  1.
          2   -1    0    0  501    0  0.00000000000E+00 -0.00000000000E+00 -0.25027612677E+04  0.25027612677E+04  0.00000000000E+00 0. -1.
         24    2    1    2    0    0  0.46919374252E+03 -0.48941920730E+03 -0.14010589621E+04  0.15584283008E+04  0.77837170612E+02 0.  0.
        254    2    1    2    0    0 -0.46919374252E+03  0.48941920730E+03 -0.70868349018E+03  0.13373517823E+04  0.90917741503E+03 0.  0.
         23    2    4    4    0    0 -0.87275149604E+02  0.50135722765E+03 -0.78249633655E+03  0.93783274055E+03  0.90849937143E+02 0.  0.
         23    2    4    4    0    0 -0.38191859292E+03 -0.11938020351E+02  0.73812846375E+02  0.39951904179E+03  0.90348218141E+02 0.  0.
          4    1    3    3  502    0  0.61593548102E+01  0.25257084178E+01 -0.10285056465E+02  0.12251499548E+02  0.00000000000E+00 0. -1.
         -3    1    3    3    0  502  0.46303438771E+03 -0.49194491571E+03 -0.13907739056E+04  0.15461768013E+04  0.00000000000E+00 0.  1.
         13    1    5    5    0    0 -0.87130751672E+02  0.36834457905E+03 -0.51550176440E+03  0.63954012063E+03  0.00000000000E+00 0. -1.
        -13    1    5    5    0    0 -0.14439793278E+00  0.13301264860E+03 -0.26699457216E+03  0.29829261992E+03  0.00000000000E+00 0.  1.
          4    1    6    6  503    0 -0.38566242295E+03 -0.14533042995E+02  0.77521621385E+02  0.39364491055E+03  0.00000000000E+00 0. -1.
         -4    1    6    6    0  503  0.37438300357E+01  0.25950226442E+01 -0.37087750100E+01  0.58741312494E+01  0.00000000000E+00 0.  1.
<mgrwt>
<rscale>  0 0.19835647E+04</rscale>
<asrwt>0</asrwt>
<pdfrwt beam="1">  1        2 0.38504019E+00 0.19835647E+04</pdfrwt>
<pdfrwt beam="2">  1       -1 0.60464433E-01 0.19835647E+04</pdfrwt>
<totfact> 0.10193984E+01</totfact>
</mgrwt>
</event>
<event>
12    7  0.1729738E-007  0.2157180E+04  0.7818608E-02  0.8536465E-01
         -3   -1    0    0    0  501 -0.00000000000E+00  0.00000000000E+00  0.11654799787E+04  0.11654799787E+04  0.00000000000E+00 0.  1.
          2   -1    0    0  501    0  0.00000000000E+00 -0.00000000000E+00 -0.99817764907E+03  0.99817764907E+03  0.00000000000E+00 0. -1.
         24    2    1    2    0    0  0.18688517804E+03 -0.39545265859E+03 -0.70188224193E+03  0.83095719602E+03  0.80884517142E+02 0.  0.
        254    2    1    2    0    0 -0.18688517804E+03  0.39545265859E+03  0.86918457156E+03  0.13327004318E+04  0.91065896273E+03 0.  0.
         23    2    4    4    0    0  0.28531068699E+03 -0.98052828642E+02  0.34489779810E+03  0.46688809487E+03  0.89517912623E+02 0.  0.
         23    2    4    4    0    0 -0.47219586503E+03  0.49350548723E+03  0.52428677346E+03  0.86581233689E+03  0.90762222315E+02 0.  0.
          2    1    3    3  502    0  0.18536633319E+03 -0.39189144032E+03 -0.66472439647E+03  0.79359819918E+03  0.00000000000E+00 0. -1.
         -1    1    3    3    0  502  0.15188448560E+01 -0.35612182656E+01 -0.37157845463E+02  0.37358996838E+02  0.00000000000E+00 0.  1.
         13    1    5    5    0    0  0.51928858806E+02  0.11601020976E+02  0.88424401420E+02  0.10319915131E+03  0.00000000000E+00 0. -1.
        -13    1    5    5    0    0  0.23338182818E+03 -0.10965384962E+03  0.25647339668E+03  0.36368894356E+03  0.00000000000E+00 0.  1.
          1    1    6    6  503    0 -0.22702804050E+03  0.17995092249E+03  0.19472794412E+03  0.34906022102E+03  0.00000000000E+00 0. -1.
         -1    1    6    6    0  503 -0.24516782453E+03  0.31355456474E+03  0.32955882934E+03  0.51675211587E+03  0.00000000000E+00 0.  1.
<mgrwt>
<rscale>  0 0.21571797E+04</rscale>
<asrwt>0</asrwt>
<pdfrwt beam="1">  1        2 0.15356579E+00 0.21571797E+04</pdfrwt>
<pdfrwt beam="2">  1       -3 0.17930461E+00 0.21571797E+04</pdfrwt>
<totfact> 0.29171269E+00</totfact>
</mgrwt>
</event>
<event>
12    7  0.1729738E-007  0.2623565E+04  0.7818608E-02  0.8360240E-01
         -1   -1    0    0    0  501 -0.00000000000E+00  0.00000000000E+00  0.20342769804E+04  0.20342769804E+04  0.00000000000E+00 0.  1.
          2   -1    0    0  501    0  0.00000000000E+00 -0.00000000000E+00 -0.84588968721E+03  0.84588968721E+03  0.00000000000E+00 0. -1.
         24    2    1    2    0    0 -0.27677842492E+03 -0.69895120210E+03 -0.43832461966E+03  0.87303002382E+03  0.70099007619E+02 0.  0.
        254    2    1    2    0    0  0.27677842492E+03  0.69895120210E+03  0.16267119128E+04  0.20071366437E+04  0.90402808583E+03 0.  0.
         23    2    4    4    0    0  0.54434945865E+02 -0.95054880140E+02 -0.37125189955E+02  0.14792416761E+03  0.92220854829E+02 0.  0.
         23    2    4    4    0    0  0.22234347906E+03  0.79400608224E+03  0.16638371028E+04  0.18592124761E+04  0.91841415262E+02 0.  0.
          4    1    3    3  502    0 -0.17115394318E+03 -0.51566451659E+03 -0.30766476625E+03  0.62438864046E+03  0.00000000000E+00 0. -1.
         -3    1    3    3    0  502 -0.10562448174E+03 -0.18328668551E+03 -0.13065985341E+03  0.24864138336E+03  0.00000000000E+00 0.  1.
         13    1    5    5    0    0  0.12188113883E+02  0.17649274651E+02 -0.13267249224E+02  0.25220367120E+02  0.00000000000E+00 0. -1.
        -13    1    5    5    0    0  0.42246831983E+02 -0.11270415479E+03 -0.23857940731E+02  0.12270380049E+03  0.00000000000E+00 0.  1.
          4    1    6    6  503    0  0.19845559861E+01  0.11630053408E+03  0.20792665579E+03  0.23825038694E+03  0.00000000000E+00 0. -1.
         -4    1    6    6    0  503  0.22035892307E+03  0.67770554816E+03  0.14559104470E+04  0.16209620892E+04  0.00000000000E+00 0.  1.
<mgrwt>
<rscale>  0 0.26235655E+04</rscale>
<asrwt>0</asrwt>
<pdfrwt beam="1">  1        2 0.13013688E+00 0.26235655E+04</pdfrwt>
<pdfrwt beam="2">  1       -1 0.31296569E+00 0.26235655E+04</pdfrwt>
<totfact> 0.87491048E-01</totfact>
</mgrwt>
</event>
<event>
12    7  0.1729738E-007  0.2147893E+04  0.7818608E-02  0.8540435E-01
         -1   -1    0    0    0  501 -0.00000000000E+00  0.00000000000E+00  0.11122275844E+04  0.11122275844E+04  0.00000000000E+00 0.  1.
          2   -1    0    0  501    0  0.00000000000E+00 -0.00000000000E+00 -0.10369827532E+04  0.10369827532E+04  0.00000000000E+00 0. -1.
         24    2    1    2    0    0 -0.80541860517E+03  0.23046006747E+03 -0.24905605310E+03  0.87728851231E+03  0.76126500020E+02 0.  0.
        254    2    1    2    0    0  0.80541860517E+03 -0.23046006747E+03  0.32430088427E+03  0.12719218254E+04  0.90044605282E+03 0.  0.
         23    2    4    4    0    0  0.11389439989E+03  0.22858833016E+03 -0.14834339815E+03  0.31235912382E+03  0.10167546138E+03 0.  0.
         23    2    4    4    0    0  0.69152420527E+03 -0.45904839763E+03  0.47264428242E+03  0.95956270154E+03  0.91852069307E+02 0.  0.
          2    1    3    3  502    0 -0.61444942678E+03  0.16705331675E+03 -0.22155795393E+03  0.67419792025E+03  0.00000000000E+00 0. -1.
         -1    1    3    3    0  502 -0.19096917838E+03  0.63406750714E+02 -0.27498099167E+02  0.20309059207E+03  0.00000000000E+00 0.  1.
         13    1    5    5    0    0  0.12866194823E+03  0.19238079847E+03 -0.10549201808E+03  0.25434786105E+03  0.00000000000E+00 0. -1.
        -13    1    5    5    0    0 -0.14767548333E+02  0.36207531687E+02 -0.42851380063E+02  0.58011262768E+02  0.00000000000E+00 0.  1.
          2    1    6    6  503    0  0.13347034981E+02 -0.94983747285E+01 -0.36183546287E+01  0.16776619311E+02  0.00000000000E+00 0. -1.
         -2    1    6    6    0  503  0.67817717029E+03 -0.44955002290E+03  0.47626263705E+03  0.94278608223E+03  0.00000000000E+00 0.  1.
<mgrwt>
<rscale>  0 0.21478928E+04</rscale>
<asrwt>0</asrwt>
<pdfrwt beam="1">  1        2 0.15953581E+00 0.21478928E+04</pdfrwt>
<pdfrwt beam="2">  1       -1 0.17111194E+00 0.21478928E+04</pdfrwt>
<totfact> 0.60307295E+00</totfact>
</mgrwt>
</event>
<event>
12    7  0.1729738E-007  0.1299824E+04  0.7818608E-02  0.9029705E-01
          2   -1    0    0  501    0  0.00000000000E+00  0.00000000000E+00  0.99979871598E+03  0.99979871598E+03  0.00000000000E+00 0. -1.
         -1   -1    0    0    0  501 -0.00000000000E+00 -0.00000000000E+00 -0.42247058079E+03  0.42247058079E+03  0.00000000000E+00 0.  1.
         24    2    1    2    0    0 -0.27711102376E+03 -0.13144752932E+03  0.28813838950E+03  0.42840026558E+03  0.80212739570E+02 0.  0.
        254    2    1    2    0    0  0.27711102376E+03  0.13144752932E+03  0.28918974569E+03  0.99386903119E+03  0.90004220439E+03 0.  0.
         23    2    4    4    0    0  0.16527215457E+02  0.24775703358E+03 -0.25850562870E+03  0.36951069936E+03  0.89756895726E+02 0.  0.
         23    2    4    4    0    0  0.26058380831E+03 -0.11630950426E+03  0.54769537439E+03  0.62435833184E+03  0.91767540422E+02 0.  0.
          2    1    3    3  502    0 -0.10845510983E+03 -0.95448593829E+02  0.13650869739E+03  0.19876511106E+03  0.00000000000E+00 0. -1.
         -1    1    3    3    0  502 -0.16865591393E+03 -0.35998935489E+02  0.15162969211E+03  0.22963515452E+03  0.00000000000E+00 0.  1.
         13    1    5    5    0    0  0.51718522389E+01  0.22511762067E+03 -0.18392180388E+03  0.29074373792E+03  0.00000000000E+00 0.  1.
        -13    1    5    5    0    0  0.11355363218E+02  0.22639412908E+02 -0.74583824814E+02  0.78766961440E+02  0.00000000000E+00 0. -1.
          2    1    6    6  503    0  0.23811972768E+03 -0.11669773857E+03  0.53816965387E+03  0.59995495101E+03  0.00000000000E+00 0. -1.
         -2    1    6    6    0  503  0.22464080625E+02  0.38823430464E+00  0.95257205144E+01  0.24403380821E+02  0.00000000000E+00 0.  1.
<mgrwt>
<rscale>  0 0.12998239E+04</rscale>
<asrwt>0</asrwt>
<pdfrwt beam="1">  1        2 0.15381519E+00 0.12998239E+04</pdfrwt>
<pdfrwt beam="2">  1       -1 0.64995474E-01 0.12998239E+04</pdfrwt>
<totfact> 0.67626687E+01</totfact>
</mgrwt>
</event>
<event>
12    7  0.1729738E-007  0.2070496E+04  0.7818608E-02  0.8574353E-01
         -1   -1    0    0    0  501 -0.00000000000E+00  0.00000000000E+00  0.44477541326E+03  0.44477541326E+03  0.00000000000E+00 0.  1.
          2   -1    0    0  501    0  0.00000000000E+00 -0.00000000000E+00 -0.24096165196E+04  0.24096165196E+04  0.00000000000E+00 0. -1.
         24    2    1    2    0    0  0.14087287165E+03 -0.54335987395E+03  0.55032049444E+02  0.56993765591E+03  0.81946852129E+02 0.  0.
        254    2    1    2    0    0 -0.14087287165E+03  0.54335987395E+03 -0.20198731558E+04  0.22844542769E+04  0.90761151348E+03 0.  0.
         23    2    4    4    0    0  0.76366608519E+02 -0.21339060359E+03 -0.27495433662E+03  0.36772539163E+03  0.90855202519E+02 0.  0.
         23    2    4    4    0    0 -0.21723948017E+03  0.75675047754E+03 -0.17449188192E+04  0.19167288853E+04  0.96143940773E+02 0.  0.
          2    1    3    3  502    0  0.90411413297E+02 -0.37726506180E+03  0.38266326038E+00  0.38794754406E+03  0.00000000000E+00 0. -1.
         -1    1    3    3    0  502  0.50461458350E+02 -0.16609481215E+03  0.54649386184E+02  0.18199011185E+03  0.00000000000E+00 0.  1.
         13    1    5    5    0    0  0.26864469626E+02 -0.93032726403E+02 -0.18720190614E+03  0.21076371028E+03  0.00000000000E+00 0. -1.
        -13    1    5    5    0    0  0.49502138892E+02 -0.12035787718E+03 -0.87752430487E+02  0.15696168135E+03  0.00000000000E+00 0.  1.
          4    1    6    6  503    0 -0.13158574875E+03  0.36421268206E+03 -0.75885508493E+03  0.85195465077E+03  0.00000000000E+00 0. -1.
         -4    1    6    6    0  503 -0.85653731415E+02  0.39253779548E+03 -0.98606373423E+03  0.10647742345E+04  0.00000000000E+00 0.  1.
<mgrwt>
<rscale>  0 0.20704958E+04</rscale>
<asrwt>0</asrwt>
<pdfrwt beam="1">  1        2 0.37071023E+00 0.20704958E+04</pdfrwt>
<pdfrwt beam="2">  1       -1 0.68426987E-01 0.20704958E+04</pdfrwt>
<totfact> 0.89239859E+00</totfact>
</mgrwt>
</event>
<event>
12    7  0.1729738E-007  0.1883582E+04  0.7818608E-02  0.8663072E-01
         -1   -1    0    0    0  501 -0.00000000000E+00  0.00000000000E+00  0.52366835213E+03  0.52366835213E+03  0.00000000000E+00 0.  1.
          2   -1    0    0  501    0  0.00000000000E+00 -0.00000000000E+00 -0.16937629190E+04  0.16937629190E+04  0.00000000000E+00 0. -1.
         24    2    1    2    0    0 -0.52474711201E+03 -0.35667321720E+03 -0.43883893251E+02  0.64075769689E+03  0.77905805994E+02 0.  0.
        254    2    1    2    0    0  0.52474711201E+03  0.35667321720E+03 -0.11262106736E+04  0.15766735742E+04  0.90275897275E+03 0.  0.
         23    2    4    4    0    0 -0.22366162465E+03  0.16653221628E+03 -0.49700052310E+03  0.57641645566E+03  0.86538482714E+02 0.  0.
         23    2    4    4    0    0  0.74840873666E+03  0.19014100092E+03 -0.62921015050E+03  0.10002571186E+04  0.91321697362E+02 0.  0.
          2    1    3    3  502    0 -0.39486670548E+03 -0.25265914077E+03 -0.64074829706E+02  0.47314050800E+03  0.00000000000E+00 0. -1.
         -1    1    3    3    0  502 -0.12988040654E+03 -0.10401407643E+03  0.20190936455E+02  0.16761718889E+03  0.00000000000E+00 0.  1.
         13    1    5    5    0    0 -0.21535184273E+03  0.13150939849E+03 -0.46081059682E+03  0.52537371861E+03  0.00000000000E+00 0.  1.
        -13    1    5    5    0    0 -0.83097819119E+01  0.35022817789E+02 -0.36189926276E+02  0.51042737046E+02  0.00000000000E+00 0. -1.
          3    1    6    6  503    0  0.16333430710E+03  0.62060409425E+02 -0.18581123721E+03  0.25505961296E+03  0.00000000000E+00 0. -1.
         -3    1    6    6    0  503  0.58507442956E+03  0.12808059149E+03 -0.44339891329E+03  0.74519750560E+03  0.00000000000E+00 0.  1.
<mgrwt>
<rscale>  0 0.18835817E+04</rscale>
<asrwt>0</asrwt>
<pdfrwt beam="1">  1        2 0.26057891E+00 0.18835817E+04</pdfrwt>
<pdfrwt beam="2">  1       -1 0.80564363E-01 0.18835817E+04</pdfrwt>
<totfact> 0.16226102E+01</totfact>
</mgrwt>
</event>
<event>
12    7  0.1729738E-007  0.1508994E+04  0.7818608E-02  0.8878494E-01
          2   -1    0    0  501    0  0.00000000000E+00  0.00000000000E+00  0.16351510182E+04  0.16351510182E+04  0.00000000000E+00 0. -1.
         -1   -1    0    0    0  501 -0.00000000000E+00 -0.00000000000E+00 -0.34814262289E+03  0.34814262289E+03  0.00000000000E+00 0.  1.
         24    2    1    2    0    0 -0.16839124706E+02 -0.18206956749E+02  0.10403221682E+04  0.10437543143E+04  0.80856697011E+02 0.  0.
        254    2    1    2    0    0  0.16839124706E+02  0.18206956749E+02  0.24668622702E+03  0.93953932677E+03  0.90623672545E+03 0.  0.
         23    2    4    4    0    0  0.41778463889E+03  0.10396476522E+03  0.27129832104E+03  0.51901758451E+03  0.10209699863E+03 0.  0.
         23    2    4    4    0    0 -0.40094551418E+03 -0.85757808474E+02 -0.24612094017E+02  0.42052174227E+03  0.90116998907E+02 0.  0.
          2    1    3    3  502    0 -0.18210884347E+02 -0.49637516327E+02  0.68959586082E+03  0.69161981652E+03  0.00000000000E+00 0. -1.
         -1    1    3    3    0  502  0.13717596413E+01  0.31430559578E+02  0.35072630741E+03  0.35213449776E+03  0.00000000000E+00 0.  1.
         13    1    5    5    0    0  0.27394832435E+03  0.11569340697E+03  0.19690963118E+03  0.35665957394E+03  0.00000000000E+00 0. -1.
        -13    1    5    5    0    0  0.14383631454E+03 -0.11728641742E+02  0.74388689860E+02  0.16235801057E+03  0.00000000000E+00 0.  1.
          1    1    6    6  503    0 -0.46673498109E+02 -0.29944769447E+02  0.20356626399E+02  0.59071963581E+02  0.00000000000E+00 0. -1.
         -1    1    6    6    0  503 -0.35427201607E+03 -0.55813039027E+02 -0.44968720416E+02  0.36144977869E+03  0.00000000000E+00 0.  1.
<mgrwt>
<rscale>  0 0.15089941E+04</rscale>
<asrwt>0</asrwt>
<pdfrwt beam="1">  1        2 0.25156169E+00 0.15089941E+04</pdfrwt>
<pdfrwt beam="2">  1       -1 0.53560404E-01 0.15089941E+04</pdfrwt>
<totfact> 0.41237241E+01</totfact>
</mgrwt>
</event>
<event>
12    7  0.1729738E-007  0.1767795E+04  0.7818608E-02  0.8723616E-01
          2   -1    0    0  501    0  0.00000000000E+00  0.00000000000E+00  0.14652499984E+04  0.14652499984E+04  0.00000000000E+00 0. -1.
         -1   -1    0    0    0  501 -0.00000000000E+00 -0.00000000000E+00 -0.53320234708E+03  0.53320234708E+03  0.00000000000E+00 0.  1.
         24    2    1    2    0    0 -0.47799832702E+02 -0.27857999570E+03 -0.32365117420E+03  0.43689177046E+03  0.78947441525E+02 0.  0.
        254    2    1    2    0    0  0.47799832702E+02  0.27857999570E+03  0.12556988255E+04  0.15615605750E+04  0.88419469068E+03 0.  0.
         23    2    4    4    0    0  0.12582977208E+03  0.58173842393E+03  0.81830158244E+03  0.10160112650E+04  0.91698884636E+02 0.  0.
         23    2    4    4    0    0 -0.78029939375E+02 -0.30315842823E+03  0.43739724307E+03  0.54554930997E+03  0.91181123713E+02 0.  0.
          2    1    3    3  502    0 -0.43551055444E+02 -0.58123156330E+02 -0.71268713895E+02  0.10175571390E+03  0.00000000000E+00 0. -1.
         -1    1    3    3    0  502 -0.42487772585E+01 -0.22045683937E+03 -0.25238246030E+03  0.33513605655E+03  0.00000000000E+00 0.  1.
         13    1    5    5    0    0  0.90131420165E+01  0.88598179584E+01  0.34409976810E+01  0.13098609404E+02  0.00000000000E+00 0.  1.
        -13    1    5    5    0    0  0.11681663006E+03  0.57287860597E+03  0.81486058476E+03  0.10029126556E+04  0.00000000000E+00 0. -1.
          3    1    6    6  503    0 -0.82684227797E+02 -0.25273486211E+03  0.40797029232E+03  0.48698188002E+03  0.00000000000E+00 0. -1.
         -3    1    6    6    0  503  0.46542884218E+01 -0.50423566116E+02  0.29426950747E+02  0.58567429949E+02  0.00000000000E+00 0.  1.
<mgrwt>
<rscale>  0 0.17677949E+04</rscale>
<asrwt>0</asrwt>
<pdfrwt beam="1">  1        2 0.22542308E+00 0.17677949E+04</pdfrwt>
<pdfrwt beam="2">  1       -1 0.82031131E-01 0.17677949E+04</pdfrwt>
<totfact> 0.21179592E+01</totfact>
</mgrwt>
</event>
<event>
12    7  0.1729738E-007  0.1591318E+04  0.7818608E-02  0.8825899E-01
         -1   -1    0    0    0  501 -0.00000000000E+00  0.00000000000E+00  0.73749525775E+03  0.73749525775E+03  0.00000000000E+00 0.  1.
          2   -1    0    0  501    0  0.00000000000E+00 -0.00000000000E+00 -0.85840996973E+03  0.85840996973E+03  0.00000000000E+00 0. -1.
         24    2    1    2    0    0 -0.52939732881E+03 -0.10771547491E+03 -0.61523314601E+02  0.54956876348E+03  0.79853317211E+02 0.  0.
        254    2    1    2    0    0  0.52939732881E+03  0.10771547491E+03 -0.59391397378E+02  0.10463364640E+04  0.89410765711E+03 0.  0.
         23    2    4    4    0    0  0.10729622123E+03  0.46014029868E+03 -0.82255576753E+02  0.48810808698E+03  0.90785192091E+02 0.  0.
         23    2    4    4    0    0  0.42210110758E+03 -0.35242482377E+03  0.22864179375E+02  0.55822837701E+03  0.93399939890E+02 0.  0.
          2    1    3    3  502    0 -0.51982232433E+02 -0.35639120742E+02 -0.16746262710E+01  0.63048424161E+02  0.00000000000E+00 0. -1.
         -1    1    3    3    0  502 -0.47741509638E+03 -0.72076354166E+02 -0.59848688330E+02  0.48652033932E+03  0.00000000000E+00 0.  1.
         13    1    5    5    0    0 -0.11333879594E+02  0.91394901979E+01  0.43333837170E-01  0.14559841536E+02  0.00000000000E+00 0.  1.
        -13    1    5    5    0    0  0.11863010082E+03  0.45100080848E+03 -0.82298910590E+02  0.47354824544E+03  0.00000000000E+00 0. -1.
          4    1    6    6  503    0  0.32521230776E+03 -0.31510954525E+03  0.48949695860E+01  0.45285873223E+03  0.00000000000E+00 0. -1.
         -4    1    6    6    0  503  0.96888799823E+02 -0.37315278523E+02  0.17969209789E+02  0.10536964479E+03  0.00000000000E+00 0.  1.
<mgrwt>
<rscale>  0 0.15913180E+04</rscale>
<asrwt>0</asrwt>
<pdfrwt beam="1">  1        2 0.13206307E+00 0.15913180E+04</pdfrwt>
<pdfrwt beam="2">  1       -1 0.11346081E+00 0.15913180E+04</pdfrwt>
<totfact> 0.24320961E+01</totfact>
</mgrwt>
</event>
<event>
12    7  0.1729738E-007  0.1776932E+04  0.7818608E-02  0.8718664E-01
          2   -1    0    0  501    0  0.00000000000E+00  0.00000000000E+00  0.14762167035E+04  0.14762167035E+04  0.00000000000E+00 0. -1.
         -1   -1    0    0    0  501 -0.00000000000E+00 -0.00000000000E+00 -0.53472637026E+03  0.53472637026E+03  0.00000000000E+00 0.  1.
         24    2    1    2    0    0  0.82065595271E+02 -0.37276664227E+03  0.78900676365E+03  0.88056820838E+03  0.84728773154E+02 0.  0.
        254    2    1    2    0    0 -0.82065595271E+02  0.37276664227E+03  0.15248356960E+03  0.11303748654E+04  0.10529987492E+04 0.  0.
         23    2    4    4    0    0 -0.51054583330E+03  0.17068738347E+03 -0.14334557071E+03  0.56445795647E+03  0.90959338223E+02 0.  0.
         23    2    4    4    0    0  0.42848023803E+03  0.20207925880E+03  0.29582914030E+03  0.56591690891E+03  0.91190604342E+02 0.  0.
          2    1    3    3  502    0  0.86650949695E+02 -0.33888491140E+03  0.65825454775E+03  0.74541962672E+03  0.00000000000E+00 0. -1.
         -1    1    3    3    0  502 -0.45853544243E+01 -0.33881730865E+02  0.13075221590E+03  0.13514858166E+03  0.00000000000E+00 0.  1.
         13    1    5    5    0    0 -0.40526922774E+03  0.98341172274E+02 -0.12532636623E+03  0.43545474069E+03  0.00000000000E+00 0. -1.
        -13    1    5    5    0    0 -0.10527660556E+03  0.72346211196E+02 -0.18019204480E+02  0.12900321578E+03  0.00000000000E+00 0.  1.
          1    1    6    6  503    0  0.40598336118E+03  0.21023989665E+03  0.28957789527E+03  0.54118265043E+03  0.00000000000E+00 0. -1.
         -1    1    6    6    0  503  0.22496876853E+02 -0.81606378492E+01  0.62512450322E+01  0.24734258483E+02  0.00000000000E+00 0.  1.
<mgrwt>
<rscale>  0 0.17769322E+04</rscale>
<asrwt>0</asrwt>
<pdfrwt beam="1">  1        2 0.22711026E+00 0.17769322E+04</pdfrwt>
<pdfrwt beam="2">  1       -1 0.82265596E-01 0.17769322E+04</pdfrwt>
<totfact> 0.20735050E+01</totfact>
</mgrwt>
</event>
<event>
12    7  0.1859420E-007  0.2587042E+04  0.7818608E-02  0.8372616E-01
         -1   -1    0    0    0  501 -0.00000000000E+00  0.00000000000E+00  0.52364462265E+03  0.52364462265E+03  0.00000000000E+00 0.  1.
          2   -1    0    0  501    0  0.00000000000E+00 -0.00000000000E+00 -0.31952894179E+04  0.31952894179E+04  0.00000000000E+00 0. -1.
         24    2    1    2    0    0  0.79248567285E+03 -0.34095649376E+03 -0.11565457139E+03  0.87426019314E+03  0.81670270607E+02 0.  0.
        254    2    1    2    0    0 -0.79248567285E+03  0.34095649376E+03 -0.25559902239E+04  0.28446738474E+04  0.90266184222E+03 0.  0.
         23    2    4    4    0    0 -0.44113070854E+03  0.33907944320E+03 -0.49071504135E+03  0.74771876008E+03  0.93332317810E+02 0.  0.
         23    2    4    4    0    0 -0.35135496431E+03  0.18770505629E+01 -0.20652751825E+04  0.20969550874E+04  0.91680011748E+02 0.  0.
          2    1    3    3  502    0  0.51763694015E+02 -0.21798605207E+01 -0.11925418606E+02  0.53164343492E+02  0.00000000000E+00 0. -1.
         -1    1    3    3    0  502  0.74072197884E+03 -0.33877663324E+03 -0.10372915278E+03  0.82109584964E+03  0.00000000000E+00 0.  1.
         13    1    5    5    0    0 -0.41490983791E+03  0.33635421341E+03 -0.48333007161E+03  0.72034178596E+03  0.00000000000E+00 0. -1.
        -13    1    5    5    0    0 -0.26220870629E+02  0.27252297900E+01 -0.73849697405E+01  0.27376974121E+02  0.00000000000E+00 0.  1.
          1    1    6    6  503    0 -0.35317610315E+03 -0.77669871095E+01 -0.20147275772E+04  0.20454634918E+04  0.00000000000E+00 0. -1.
         -1    1    6    6    0  503  0.18211388359E+01  0.96440376724E+01 -0.50547605362E+02  0.51491595597E+02  0.00000000000E+00 0.  1.
<mgrwt>
<rscale>  0 0.25870416E+04</rscale>
<asrwt>0</asrwt>
<pdfrwt beam="1">  1        2 0.49158299E+00 0.25870416E+04</pdfrwt>
<pdfrwt beam="2">  1       -1 0.80560711E-01 0.25870416E+04</pdfrwt>
<totfact> 0.20211272E+00</totfact>
</mgrwt>
</event>
<event>
12    7  0.1729738E-007  0.1440671E+04  0.7818608E-02  0.8924894E-01
          2   -1    0    0  501    0  0.00000000000E+00  0.00000000000E+00  0.10087680443E+04  0.10087680443E+04  0.00000000000E+00 0. -1.
         -1   -1    0    0    0  501 -0.00000000000E+00 -0.00000000000E+00 -0.51437312458E+03  0.51437312458E+03  0.00000000000E+00 0.  1.
         24    2    1    2    0    0 -0.22016590043E+03  0.14614065565E+03 -0.20717581348E+03  0.34549800396E+03  0.81344564092E+02 0.  0.
        254    2    1    2    0    0  0.22016590043E+03 -0.14614065565E+03  0.70157073321E+03  0.11776431649E+04  0.90819150805E+03 0.  0.
         23    2    4    4    0    0  0.39178558193E+03  0.23108730952E+03  0.56769667528E+03  0.73268244146E+03  0.87445743609E+02 0.  0.
         23    2    4    4    0    0 -0.17161968150E+03 -0.37722796517E+03  0.13387405792E+03  0.44496072347E+03  0.91178557043E+02 0.  0.
          4    1    3    3  502    0 -0.15060358081E+03  0.51938821776E+02 -0.11527970831E+03  0.19664305456E+03  0.00000000000E+00 0. -1.
         -3    1    3    3    0  502 -0.69562319618E+02  0.94201833870E+02 -0.91896105169E+02  0.14885494940E+03  0.00000000000E+00 0.  1.
         13    1    5    5    0    0  0.39552904345E+03  0.22959820445E+03  0.55388200874E+03  0.71829230770E+03  0.00000000000E+00 0.  1.
        -13    1    5    5    0    0 -0.37434615203E+01  0.14891050767E+01  0.13814666542E+02  0.14390133764E+02  0.00000000000E+00 0. -1.
          2    1    6    6  503    0 -0.44900184486E+02 -0.49784871571E+02 -0.53551974719E+01  0.67255023189E+02  0.00000000000E+00 0. -1.
         -2    1    6    6    0  503 -0.12671949701E+03 -0.32744309360E+03  0.13922925540E+03  0.37770570028E+03  0.00000000000E+00 0.  1.
<mgrwt>
<rscale>  0 0.14406709E+04</rscale>
<asrwt>0</asrwt>
<pdfrwt beam="1">  1        2 0.15519508E+00 0.14406709E+04</pdfrwt>
<pdfrwt beam="2">  1       -1 0.79134327E-01 0.14406709E+04</pdfrwt>
<totfact> 0.43957672E+01</totfact>
</mgrwt>
</event>
<event>
12    7  0.1729738E-007  0.1745552E+04  0.7818608E-02  0.8735803E-01
         -1   -1    0    0    0  501 -0.00000000000E+00  0.00000000000E+00  0.13602313728E+04  0.13602313728E+04  0.00000000000E+00 0.  1.
          2   -1    0    0  501    0  0.00000000000E+00 -0.00000000000E+00 -0.56000590685E+03  0.56000590685E+03  0.00000000000E+00 0. -1.
         24    2    1    2    0    0  0.58346774509E+03  0.62279972540E+02  0.58340077979E+03  0.83133211382E+03  0.80269602417E+02 0.  0.
        254    2    1    2    0    0 -0.58346774509E+03 -0.62279972540E+02  0.21682468620E+03  0.10889051659E+04  0.89128452875E+03 0.  0.
         23    2    4    4    0    0 -0.74144745212E+03  0.15264901829E+03  0.25669340925E+03  0.80466991394E+03  0.92499281110E+02 0.  0.
         23    2    4    4    0    0  0.15797970703E+03 -0.21492899083E+03 -0.39868723047E+02  0.28423525194E+03  0.89711228040E+02 0.  0.
          2    1    3    3  502    0  0.17818305664E+03  0.90721170615E+01  0.12921472508E+03  0.22029060388E+03  0.00000000000E+00 0. -1.
         -1    1    3    3    0  502  0.40528468845E+03  0.53207855479E+02  0.45418605471E+03  0.61104150994E+03  0.00000000000E+00 0.  1.
         13    1    5    5    0    0 -0.42285398653E+03  0.43595420273E+02  0.12499133938E+03  0.44309015957E+03  0.00000000000E+00 0. -1.
        -13    1    5    5    0    0 -0.31859346559E+03  0.10905359802E+03  0.13170206987E+03  0.36157975436E+03  0.00000000000E+00 0.  1.
          3    1    6    6  503    0  0.88761851182E+02 -0.76007964555E+02  0.18694563173E+02  0.11834425881E+03  0.00000000000E+00 0. -1.
         -3    1    6    6    0  503  0.69217855850E+02 -0.13892102627E+03 -0.58563286220E+02  0.16589099313E+03  0.00000000000E+00 0.  1.
<mgrwt>
<rscale>  0 0.17455516E+04</rscale>
<asrwt>0</asrwt>
<pdfrwt beam="1">  1        2 0.86154755E-01 0.17455516E+04</pdfrwt>
<pdfrwt beam="2">  1       -1 0.20926636E+00 0.17455516E+04</pdfrwt>
<totfact> 0.75896165E+00</totfact>
</mgrwt>
</event>
<event>
12    7  0.1729738E-007  0.3817178E+04  0.7818608E-02  0.8042479E-01
         -1   -1    0    0    0  501 -0.00000000000E+00  0.00000000000E+00  0.16233522198E+04  0.16233522198E+04  0.00000000000E+00 0.  1.
          2   -1    0    0  501    0  0.00000000000E+00 -0.00000000000E+00 -0.22439438096E+04  0.22439438096E+04  0.00000000000E+00 0. -1.
         24    2    1    2    0    0  0.16312268940E+04  0.57876929375E+03  0.21781372823E+03  0.17463841289E+04  0.80867981479E+02 0.  0.
        254    2    1    2    0    0 -0.16312268940E+04 -0.57876929375E+03 -0.83840531796E+03  0.21209119005E+04  0.89413015685E+03 0.  0.
         23    2    4    4    0    0 -0.12492683304E+04 -0.80734888377E+03 -0.58577869222E+03  0.16012524010E+04  0.91591450953E+02 0.  0.
         23    2    4    4    0    0 -0.38195856359E+03  0.22857959002E+03 -0.25262662574E+03  0.51965949951E+03  0.89915572236E+02 0.  0.
          4    1    3    3  502    0  0.80769664928E+03  0.27580161429E+03  0.14684193582E+03  0.86602711379E+03  0.00000000000E+00 0. -1.
         -3    1    3    3    0  502  0.82353024471E+03  0.30296767946E+03  0.70971792413E+02  0.88035701511E+03  0.00000000000E+00 0.  1.
         13    1    5    5    0    0 -0.11433661730E+04 -0.75933469081E+03 -0.52063935200E+03  0.14679716323E+04  0.00000000000E+00 0.  1.
        -13    1    5    5    0    0 -0.10590215737E+03 -0.48014192964E+02 -0.65139340220E+02  0.13328076870E+03  0.00000000000E+00 0. -1.
          4    1    6    6  503    0 -0.38297136568E+03  0.21701051003E+03 -0.23622506267E+03  0.49956271741E+03  0.00000000000E+00 0.  1.
         -4    1    6    6    0  503  0.10128020881E+01  0.11569079991E+02 -0.16401563067E+02  0.20096782104E+02  0.00000000000E+00 0. -1.
<mgrwt>
<rscale>  0 0.38171776E+04</rscale>
<asrwt>0</asrwt>
<pdfrwt beam="1">  1        2 0.34522212E+00 0.38171776E+04</pdfrwt>
<pdfrwt beam="2">  1       -1 0.24974650E+00 0.38171776E+04</pdfrwt>
<totfact> 0.31078398E-01</totfact>
</mgrwt>
</event>
<event>
12    7  0.1729738E-007  0.1806915E+04  0.7818608E-02  0.8702631E-01
          2   -1    0    0  501    0  0.00000000000E+00  0.00000000000E+00  0.18134632710E+04  0.18134632710E+04  0.00000000000E+00 0. -1.
         -3   -1    0    0    0  501 -0.00000000000E+00 -0.00000000000E+00 -0.45009781172E+03  0.45009781172E+03  0.00000000000E+00 0.  1.
         24    2    1    2    0    0  0.66991370123E+03  0.76042400806E+02  0.41032332986E+03  0.79359057112E+03  0.82788560400E+02 0.  0.
        254    2    1    2    0    0 -0.66991370123E+03 -0.76042400806E+02  0.95304212940E+03  0.14699705116E+04  0.89328449595E+03 0.  0.
         23    2    4    4    0    0 -0.63746233456E+03  0.22232027817E+03  0.93479421737E+03  0.11564885363E+04  0.88549261541E+02 0.  0.
         23    2    4    4    0    0 -0.32451366664E+02 -0.29836267898E+03  0.18247912030E+02  0.31348197527E+03  0.88682484875E+02 0.  0.
          4    1    3    3  502    0  0.24539811753E+03  0.95936838475E+00  0.18376939120E+03  0.30658171116E+03  0.00000000000E+00 0. -1.
         -3    1    3    3    0  502  0.42451558370E+03  0.75083032421E+02  0.22655393866E+03  0.48700885996E+03  0.00000000000E+00 0.  1.
         13    1    5    5    0    0 -0.46661613217E+03  0.15018744249E+03  0.61081580399E+03  0.78318760785E+03  0.00000000000E+00 0. -1.
        -13    1    5    5    0    0 -0.17084620239E+03  0.72132835683E+02  0.32397841338E+03  0.37330092846E+03  0.00000000000E+00 0.  1.
          1    1    6    6  503    0 -0.49624385614E+01 -0.23548305650E+03 -0.17348815260E+02  0.23617340469E+03  0.00000000000E+00 0. -1.
         -1    1    6    6    0  503 -0.27488928103E+02 -0.62879622481E+02  0.35596727290E+02  0.77308570582E+02  0.00000000000E+00 0.  1.
<mgrwt>
<rscale>  0 0.18069154E+04</rscale>
<asrwt>0</asrwt>
<pdfrwt beam="1">  1        2 0.27899435E+00 0.18069154E+04</pdfrwt>
<pdfrwt beam="2">  1       -3 0.69245818E-01 0.18069154E+04</pdfrwt>
<totfact> 0.10225892E+01</totfact>
</mgrwt>
</event>
<event>
12    7  0.1729738E-007  0.1340885E+04  0.7818608E-02  0.8997757E-01
          2   -1    0    0  501    0  0.00000000000E+00  0.00000000000E+00  0.11206561623E+04  0.11206561623E+04  0.00000000000E+00 0. -1.
         -1   -1    0    0    0  501 -0.00000000000E+00 -0.00000000000E+00 -0.40109840962E+03  0.40109840962E+03  0.00000000000E+00 0.  1.
         24    2    1    2    0    0  0.13945474284E+03  0.74819147377E+02 -0.17575560182E+03  0.24568847246E+03  0.66537687173E+02 0.  0.
        254    2    1    2    0    0 -0.13945474284E+03 -0.74819147377E+02  0.89531335446E+03  0.12760660994E+04  0.89538436287E+03 0.  0.
         23    2    4    4    0    0 -0.23177330110E+03  0.20198237183E+03 -0.10139453994E+02  0.32067613590E+03  0.90634617976E+02 0.  0.
         23    2    4    4    0    0  0.92318558262E+02 -0.27680151921E+03  0.90545280845E+03  0.95538996350E+03  0.88223561401E+02 0.  0.
          2    1    3    3  502    0  0.79846736301E+02  0.49073217885E+02 -0.55226564332E+02  0.10878260624E+03  0.00000000000E+00 0. -1.
         -1    1    3    3    0  502  0.59608006538E+02  0.25745929491E+02 -0.12052903749E+03  0.13690586623E+03  0.00000000000E+00 0.  1.
         13    1    5    5    0    0 -0.38960421844E+02  0.79103502104E+02 -0.24705430025E+02  0.91573122629E+02  0.00000000000E+00 0.  1.
        -13    1    5    5    0    0 -0.19281287926E+03  0.12287886973E+03  0.14565976031E+02  0.22910301327E+03  0.00000000000E+00 0. -1.
          2    1    6    6  503    0  0.93622074309E+02 -0.14424175157E+03  0.53248440078E+03  0.55956269780E+03  0.00000000000E+00 0. -1.
         -2    1    6    6    0  503 -0.13035160468E+01 -0.13255976764E+03  0.37296840767E+03  0.39582726570E+03  0.00000000000E+00 0.  1.
<mgrwt>
<rscale>  0 0.13408854E+04</rscale>
<asrwt>0</asrwt>
<pdfrwt beam="1">  1        2 0.17240864E+00 0.13408854E+04</pdfrwt>
<pdfrwt beam="2">  1       -1 0.61707448E-01 0.13408854E+04</pdfrwt>
<totfact> 0.62817234E+01</totfact>
</mgrwt>
</event>
<event>
12    7  0.1729738E-007  0.1736871E+04  0.7818608E-02  0.8740610E-01
         -1   -1    0    0    0  501 -0.00000000000E+00  0.00000000000E+00  0.12432258592E+04  0.12432258592E+04  0.00000000000E+00 0.  1.
          2   -1    0    0  501    0  0.00000000000E+00 -0.00000000000E+00 -0.60663195035E+03  0.60663195035E+03  0.00000000000E+00 0. -1.
         24    2    1    2    0    0 -0.22554083552E+03  0.12787235661E+03 -0.37868124978E+03  0.46592839638E+03  0.80434902531E+02 0.  0.
        254    2    1    2    0    0  0.22554083552E+03 -0.12787235661E+03  0.10152751586E+04  0.13839294131E+04  0.90402265724E+03 0.  0.
         23    2    4    4    0    0  0.77631694411E+02 -0.96816897237E+02 -0.14445953092E+03  0.21072978197E+03  0.90212490089E+02 0.  0.
         23    2    4    4    0    0  0.14790914111E+03 -0.31055459377E+02  0.11597346895E+04  0.11731996312E+04  0.92581147721E+02 0.  0.
          4    1    3    3  502    0 -0.16006104809E+03  0.81625145362E+02 -0.31851549367E+03  0.36569703742E+03  0.00000000000E+00 0. -1.
         -3    1    3    3    0  502 -0.65479787428E+02  0.46247211252E+02 -0.60165756111E+02  0.10023135896E+03  0.00000000000E+00 0.  1.
         13    1    5    5    0    0  0.87561582130E+02 -0.61876851247E+02 -0.13644749641E+03  0.17353297860E+03  0.00000000000E+00 0.  1.
        -13    1    5    5    0    0 -0.99298877187E+01 -0.34940045991E+02 -0.80120345085E+01  0.37196803369E+02  0.00000000000E+00 0. -1.
          3    1    6    6  503    0 -0.12051800683E+02 -0.55354099453E+01  0.14644518789E+03  0.14704448211E+03  0.00000000000E+00 0. -1.
         -3    1    6    6    0  503  0.15996094179E+03 -0.25520049431E+02  0.10132895016E+04  0.10261551491E+04  0.00000000000E+00 0.  1.
<mgrwt>
<rscale>  0 0.17368714E+04</rscale>
<asrwt>0</asrwt>
<pdfrwt beam="1">  1        2 0.93327992E-01 0.17368714E+04</pdfrwt>
<pdfrwt beam="2">  1       -1 0.19126552E+00 0.17368714E+04</pdfrwt>
<totfact> 0.91813351E+00</totfact>
</mgrwt>
</event>
<event>
12    7  0.1729738E-007  0.1414285E+04  0.7818608E-02  0.8943543E-01
         -1   -1    0    0    0  501 -0.00000000000E+00  0.00000000000E+00  0.16008906529E+03  0.16008906529E+03  0.00000000000E+00 0.  1.
          2   -1    0    0  501    0  0.00000000000E+00 -0.00000000000E+00 -0.31235762076E+04  0.31235762076E+04  0.00000000000E+00 0. -1.
         24    2    1    2    0    0  0.21412355559E+03 -0.12671883969E+03 -0.16369225646E+04  0.16577663982E+04  0.82264131581E+02 0.  0.
        254    2    1    2    0    0 -0.21412355559E+03  0.12671883969E+03 -0.13265645777E+04  0.16258988746E+04  0.90656881167E+03 0.  0.
         23    2    4    4    0    0 -0.17838054662E+03  0.48226461474E+03 -0.51193950695E+03  0.73144801612E+03  0.92387030835E+02 0.  0.
         23    2    4    4    0    0 -0.35743008970E+02 -0.35554577505E+03 -0.81462507077E+03  0.89445085852E+03  0.93477117702E+02 0.  0.
          2    1    3    3  502    0  0.14900735419E+03 -0.12403133948E+03 -0.11066500963E+04  0.11235040723E+04  0.00000000000E+00 0. -1.
         -1    1    3    3    0  502  0.65116201393E+02 -0.26875002154E+01 -0.53027246823E+03  0.53426232593E+03  0.00000000000E+00 0.  1.
         13    1    5    5    0    0 -0.82224817918E+02  0.15982008899E+03 -0.23377400786E+03  0.29487907399E+03  0.00000000000E+00 0. -1.
        -13    1    5    5    0    0 -0.96155728699E+02  0.32244452575E+03 -0.27816549909E+03  0.43656894213E+03  0.00000000000E+00 0.  1.
          4    1    6    6  503    0  0.65765945340E+01 -0.29121893016E+01 -0.59939589676E+02  0.60369585494E+02  0.00000000000E+00 0.  1.
         -4    1    6    6    0  503 -0.42319603504E+02 -0.35263358575E+03 -0.75468548109E+03  0.83408127302E+03  0.00000000000E+00 0. -1.
<mgrwt>
<rscale>  0 0.14142848E+04</rscale>
<asrwt>0</asrwt>
<pdfrwt beam="1">  1        2 0.48055014E+00 0.14142848E+04</pdfrwt>
<pdfrwt beam="2">  1       -1 0.24629089E-01 0.14142848E+04</pdfrwt>
<totfact> 0.23373199E+01</totfact>
</mgrwt>
</event>
<event>
12    7  0.1729738E-007  0.1935162E+04  0.7818608E-02  0.8637549E-01
         -1   -1    0    0    0  501 -0.00000000000E+00  0.00000000000E+00  0.26338968025E+03  0.26338968025E+03  0.00000000000E+00 0.  1.
          2   -1    0    0  501    0  0.00000000000E+00 -0.00000000000E+00 -0.35544792131E+04  0.35544792131E+04  0.00000000000E+00 0. -1.
         24    2    1    2    0    0  0.39653745363E+03  0.53930015420E+03 -0.19655056682E+04  0.20778995496E+04  0.79795975901E+02 0.  0.
        254    2    1    2    0    0 -0.39653745363E+03 -0.53930015420E+03 -0.13255838646E+04  0.17399693438E+04  0.90677126483E+03 0.  0.
         23    2    4    4    0    0 -0.58936216891E+03 -0.62585041494E+03 -0.85425676373E+03  0.12153001249E+04  0.90350800033E+02 0.  0.
         23    2    4    4    0    0  0.19282471528E+03  0.86550260738E+02 -0.47132710086E+03  0.52466921891E+03  0.91957788186E+02 0.  0.
          4    1    3    3  502    0  0.31848388405E+03  0.46866984149E+03 -0.15916569462E+04  0.16895133143E+04  0.00000000000E+00 0. -1.
         -3    1    3    3    0  502  0.78053569579E+02  0.70630312713E+02 -0.37384872200E+03  0.38838623526E+03  0.00000000000E+00 0.  1.
         13    1    5    5    0    0 -0.45002861087E+03 -0.48645167534E+03 -0.60309419701E+03  0.89603771880E+03  0.00000000000E+00 0.  1.
        -13    1    5    5    0    0 -0.13933355804E+03 -0.13939873960E+03 -0.25116256672E+03  0.31926240606E+03  0.00000000000E+00 0. -1.
          2    1    6    6  503    0  0.27015122565E+02 -0.19639045075E+02 -0.76318674450E+02  0.83306956543E+02  0.00000000000E+00 0. -1.
         -2    1    6    6    0  503  0.16580959272E+03  0.10618930581E+03 -0.39500842641E+03  0.44136226237E+03  0.00000000000E+00 0.  1.
<mgrwt>
<rscale>  0 0.19351622E+04</rscale>
<asrwt>0</asrwt>
<pdfrwt beam="1">  1        2 0.54684294E+00 0.19351622E+04</pdfrwt>
<pdfrwt beam="2">  1       -1 0.40521490E-01 0.19351622E+04</pdfrwt>
<totfact> 0.47375627E+00</totfact>
</mgrwt>
</event>
<event>
12    7  0.1729738E-007  0.2406508E+04  0.7818608E-02  0.8437071E-01
          2   -1    0    0  501    0  0.00000000000E+00  0.00000000000E+00  0.14531174547E+04  0.14531174547E+04  0.00000000000E+00 0. -1.
         -1   -1    0    0    0  501 -0.00000000000E+00 -0.00000000000E+00 -0.99635464719E+03  0.99635464719E+03  0.00000000000E+00 0.  1.
         24    2    1    2    0    0  0.35536000767E+03  0.40079523426E+03 -0.70387666917E+03  0.88817200028E+03  0.80557940727E+02 0.  0.
        254    2    1    2    0    0 -0.35536000767E+03 -0.40079523426E+03  0.11606394766E+04  0.15613001016E+04  0.89646888266E+03 0.  0.
         23    2    4    4    0    0 -0.53779571220E+03 -0.47452367301E+03  0.11306241144E+04  0.13420282295E+04  0.91279441912E+02 0.  0.
         23    2    4    4    0    0  0.18243570454E+03  0.73728438747E+02  0.30015362248E+02  0.21927187203E+03  0.91981318346E+02 0.  0.
          4    1    3    3  502    0  0.24594641372E+02  0.68461593607E+02 -0.98358461187E+02  0.12233672004E+03  0.00000000000E+00 0. -1.
         -3    1    3    3    0  502  0.33076536629E+03  0.33233364066E+03 -0.60551820799E+03  0.76583528024E+03  0.00000000000E+00 0.  1.
         13    1    5    5    0    0 -0.48949566253E+03 -0.42895710099E+03  0.10683582190E+04  0.12509993934E+04  0.00000000000E+00 0.  1.
        -13    1    5    5    0    0 -0.48300049675E+02 -0.45566572021E+02  0.62265895416E+02  0.91028836181E+02  0.00000000000E+00 0. -1.
          1    1    6    6  503    0  0.28840557299E+02  0.27047731595E+02  0.42754727830E+02  0.58235077758E+02  0.00000000000E+00 0. -1.
         -1    1    6    6    0  503  0.15359514724E+03  0.46680707153E+02 -0.12739365581E+02  0.16103679428E+03  0.00000000000E+00 0.  1.
<mgrwt>
<rscale>  0 0.24065081E+04</rscale>
<asrwt>0</asrwt>
<pdfrwt beam="1">  1        2 0.22355653E+00 0.24065081E+04</pdfrwt>
<pdfrwt beam="2">  1       -1 0.15328533E+00 0.24065081E+04</pdfrwt>
<totfact> 0.45456323E+00</totfact>
</mgrwt>
</event>
<event>
12    7  0.1729738E-007  0.1674524E+04  0.7818608E-02  0.8776029E-01
         -1   -1    0    0    0  501 -0.00000000000E+00  0.00000000000E+00  0.10779983573E+04  0.10779983573E+04  0.00000000000E+00 0.  1.
          2   -1    0    0  501    0  0.00000000000E+00 -0.00000000000E+00 -0.65028636359E+03  0.65028636359E+03  0.00000000000E+00 0. -1.
         24    2    1    2    0    0  0.39304429317E+03 -0.14551413271E+03  0.56355034063E+03  0.70689157210E+03  0.80302733966E+02 0.  0.
        254    2    1    2    0    0 -0.39304429317E+03  0.14551413271E+03 -0.13583834694E+03  0.10213931488E+04  0.92148452436E+03 0.  0.
         23    2    4    4    0    0 -0.17388141344E+03  0.52334267014E+03 -0.13675991745E+03  0.57502545040E+03  0.88479925792E+02 0.  0.
         23    2    4    4    0    0 -0.21916287973E+03 -0.37782853742E+03  0.92157050039E+00  0.44636769836E+03  0.91959237192E+02 0.  0.
          2    1    3    3  502    0  0.78485509017E+02 -0.59950948100E+02  0.10358900280E+03  0.14312502509E+03  0.00000000000E+00 0. -1.
         -1    1    3    3    0  502  0.31455878415E+03 -0.85563184614E+02  0.45996133782E+03  0.56376654702E+03  0.00000000000E+00 0.  1.
         13    1    5    5    0    0 -0.10332561933E+03  0.41884564775E+03 -0.91024356813E+02  0.44090054864E+03  0.00000000000E+00 0. -1.
        -13    1    5    5    0    0 -0.70555794101E+02  0.10449702238E+03 -0.45735560632E+02  0.13412490177E+03  0.00000000000E+00 0.  1.
          1    1    6    6  503    0 -0.19670268023E+03 -0.34735334194E+03 -0.25822549610E+02  0.40001636546E+03  0.00000000000E+00 0. -1.
         -1    1    6    6    0  503 -0.22460199496E+02 -0.30475195484E+02  0.26744120111E+02  0.46351332901E+02  0.00000000000E+00 0.  1.
<mgrwt>
<rscale>  0 0.16745240E+04</rscale>
<asrwt>0</asrwt>
<pdfrwt beam="1">  1        2 0.10004406E+00 0.16745240E+04</pdfrwt>
<pdfrwt beam="2">  1       -1 0.16584590E+00 0.16745240E+04</pdfrwt>
<totfact> 0.12925378E+01</totfact>
</mgrwt>
</event>
<event>
12    7  0.1729738E-007  0.1390935E+04  0.7818608E-02  0.8960407E-01
          2   -1    0    0  501    0  0.00000000000E+00  0.00000000000E+00  0.23014329759E+04  0.23014329759E+04  0.00000000000E+00 0. -1.
         -1   -1    0    0    0  501 -0.00000000000E+00 -0.00000000000E+00 -0.21016241811E+03  0.21016241811E+03  0.00000000000E+00 0.  1.
         24    2    1    2    0    0  0.30646452799E+03  0.97116208942E+02  0.10089187472E+04  0.10617521700E+04  0.77772534164E+02 0.  0.
        254    2    1    2    0    0 -0.30646452799E+03 -0.97116208942E+02  0.10823518106E+04  0.14498432240E+04  0.90950968516E+03 0.  0.
         23    2    4    4    0    0  0.95625832213E+02 -0.15903919660E+01 -0.11908843790E+03  0.17593997810E+03  0.87326918640E+02 0.  0.
         23    2    4    4    0    0 -0.40209036020E+03 -0.95525816976E+02  0.12014402485E+04  0.12739032459E+04  0.92568730032E+02 0.  0.
          4    1    3    3  502    0  0.28512409851E+03  0.66362493980E+02  0.87319469599E+03  0.92096075338E+03  0.00000000000E+00 0. -1.
         -3    1    3    3    0  502  0.21340429479E+02  0.30753714962E+02  0.13572405124E+03  0.14079141664E+03  0.00000000000E+00 0.  1.
         13    1    5    5    0    0  0.11649465813E+02 -0.22761654711E+02  0.35399510490E+01  0.25813450609E+02  0.00000000000E+00 0. -1.
        -13    1    5    5    0    0  0.83976366400E+02  0.21171262745E+02 -0.12262838895E+03  0.15012652749E+03  0.00000000000E+00 0.  1.
          3    1    6    6  503    0  0.17316629599E+01 -0.10204738398E+02  0.21568296330E+02  0.23923351541E+02  0.00000000000E+00 0. -1.
         -3    1    6    6    0  503 -0.40382202316E+03 -0.85321078578E+02  0.11798719522E+04  0.12499798944E+04  0.00000000000E+00 0.  1.
<mgrwt>
<rscale>  0 0.13909345E+04</rscale>
<asrwt>0</asrwt>
<pdfrwt beam="1">  1        2 0.35406659E+00 0.13909345E+04</pdfrwt>
<pdfrwt beam="2">  1       -1 0.32332681E-01 0.13909345E+04</pdfrwt>
<totfact> 0.44973492E+01</totfact>
</mgrwt>
</event>
<event>
12    7  0.1729738E-007  0.3382501E+04  0.7818608E-02  0.8142215E-01
          2   -1    0    0  501    0  0.00000000000E+00  0.00000000000E+00  0.12484884681E+04  0.12484884681E+04  0.00000000000E+00 0. -1.
         -1   -1    0    0    0  501 -0.00000000000E+00 -0.00000000000E+00 -0.22910331280E+04  0.22910331280E+04  0.00000000000E+00 0.  1.
         24    2    1    2    0    0 -0.94632089213E+03  0.47608544344E+03  0.73017934599E+03  0.12889988838E+04  0.78585398064E+02 0.  0.
        254    2    1    2    0    0  0.94632089213E+03 -0.47608544344E+03 -0.17727240059E+04  0.22505227123E+04  0.89449510727E+03 0.  0.
         23    2    4    4    0    0  0.79862867226E+03 -0.67119126844E+03 -0.16650297644E+04  0.19669206303E+04  0.90261699767E+02 0.  0.
         23    2    4    4    0    0  0.14769221986E+03  0.19510582500E+03 -0.10769424150E+03  0.28360208198E+03  0.94619324106E+02 0.  0.
          2    1    3    3  502    0 -0.40104854456E+03  0.16885881417E+03  0.33007163656E+03  0.54616894774E+03  0.00000000000E+00 0. -1.
         -1    1    3    3    0  502 -0.54527234757E+03  0.30722662927E+03  0.40010770943E+03  0.74282993606E+03  0.00000000000E+00 0.  1.
         13    1    5    5    0    0  0.94031130141E+02 -0.11443142505E+03 -0.26665686059E+03  0.30502833601E+03  0.00000000000E+00 0. -1.
        -13    1    5    5    0    0  0.70459754212E+03 -0.55675984339E+03 -0.13983729039E+04  0.16618922943E+04  0.00000000000E+00 0.  1.
          3    1    6    6  503    0  0.38480818734E+02  0.12237743116E+03 -0.32366440472E+02  0.13230493391E+03  0.00000000000E+00 0.  1.
         -3    1    6    6    0  503  0.10921140113E+03  0.72728393840E+02 -0.75327801024E+02  0.15129714807E+03  0.00000000000E+00 0. -1.
<mgrwt>
<rscale>  0 0.33825011E+04</rscale>
<asrwt>0</asrwt>
<pdfrwt beam="1">  1        2 0.19207515E+00 0.33825011E+04</pdfrwt>
<pdfrwt beam="2">  1       -1 0.35246663E+00 0.33825011E+04</pdfrwt>
<totfact> 0.25050080E-01</totfact>
</mgrwt>
</event>
<event>
12    7  0.1729738E-007  0.3972989E+04  0.7818608E-02  0.8010018E-01
          2   -1    0    0  501    0  0.00000000000E+00  0.00000000000E+00  0.13886834912E+04  0.13886834912E+04  0.00000000000E+00 0. -1.
         -1   -1    0    0    0  501 -0.00000000000E+00 -0.00000000000E+00 -0.28416563126E+04  0.28416563126E+04  0.00000000000E+00 0.  1.
         24    2    1    2    0    0 -0.41202527957E+03  0.62126865013E+03 -0.25330487645E+04  0.26417068171E+04  0.80865922954E+02 0.  0.
        254    2    1    2    0    0  0.41202527957E+03 -0.62126865013E+03  0.10800759431E+04  0.15886329868E+04  0.89523804491E+03 0.  0.
         23    2    4    4    0    0 -0.18868319862E+03  0.38590467304E+02  0.43412190026E+03  0.48331877290E+03  0.89691907918E+02 0.  0.
         23    2    4    4    0    0  0.60070847819E+03 -0.65985911744E+03  0.64595404286E+03  0.11053142138E+04  0.90543664733E+02 0.  0.
          4    1    3    3  502    0 -0.19897987047E+01  0.26994486929E+02 -0.71348929939E+02  0.76310755644E+02  0.00000000000E+00 0. -1.
         -3    1    3    3    0  502 -0.41003548086E+03  0.59427416320E+03 -0.24616998346E+04  0.25653960615E+04  0.00000000000E+00 0.  1.
         13    1    5    5    0    0 -0.16809676437E+03  0.20531647081E+02  0.28349990661E+03  0.33022759996E+03  0.00000000000E+00 0. -1.
        -13    1    5    5    0    0 -0.20586434246E+02  0.18058820223E+02  0.15062199365E+03  0.15309117295E+03  0.00000000000E+00 0.  1.
          2    1    6    6  503    0  0.39425867877E+03 -0.45570339390E+03  0.48372422224E+03  0.77271897361E+03  0.00000000000E+00 0. -1.
         -2    1    6    6    0  503  0.20644979941E+03 -0.20415572353E+03  0.16222982062E+03  0.33259524024E+03  0.00000000000E+00 0.  1.
<mgrwt>
<rscale>  0 0.39729894E+04</rscale>
<asrwt>0</asrwt>
<pdfrwt beam="1">  1        2 0.21364362E+00 0.39729894E+04</pdfrwt>
<pdfrwt beam="2">  1       -1 0.43717789E+00 0.39729894E+04</pdfrwt>
<totfact> 0.52465454E-02</totfact>
</mgrwt>
</event>
<event>
12    7  0.1729738E-007  0.2560755E+04  0.7818608E-02  0.8381655E-01
          2   -1    0    0  501    0  0.00000000000E+00  0.00000000000E+00  0.12736217468E+04  0.12736217468E+04  0.00000000000E+00 0. -1.
         -1   -1    0    0    0  501 -0.00000000000E+00 -0.00000000000E+00 -0.12871695612E+04  0.12871695612E+04  0.00000000000E+00 0.  1.
         24    2    1    2    0    0  0.15805714163E+03  0.10545581665E+04  0.35073760871E+03  0.11255623249E+04  0.82454171913E+02 0.  0.
        254    2    1    2    0    0 -0.15805714163E+03 -0.10545581665E+04 -0.36428542313E+03  0.14352289832E+04  0.88887759451E+03 0.  0.
         23    2    4    4    0    0  0.73594748893E+02  0.12450672149E+03 -0.10975494872E+03  0.20343977411E+03  0.91779530178E+02 0.  0.
         23    2    4    4    0    0 -0.23165189053E+03 -0.11790648880E+04 -0.25453047441E+03  0.12317892090E+04  0.93071395287E+02 0.  0.
          2    1    3    3  502    0  0.24570247223E+02  0.16178094758E+03  0.85905097707E+02  0.18481465814E+03  0.00000000000E+00 0. -1.
         -1    1    3    3    0  502  0.13348689441E+03  0.89277721893E+03  0.26483251100E+03  0.94074766675E+03  0.00000000000E+00 0.  1.
         13    1    5    5    0    0  0.40049342787E+02  0.12696454446E+03 -0.10482130770E+03  0.16944453947E+03  0.00000000000E+00 0. -1.
        -13    1    5    5    0    0  0.33545406107E+02 -0.24578229693E+01 -0.49336410232E+01  0.33995234642E+02  0.00000000000E+00 0.  1.
          3    1    6    6  503    0 -0.12482189876E+03 -0.84940826075E+03 -0.17283230958E+03  0.87575447877E+03  0.00000000000E+00 0. -1.
         -3    1    6    6    0  503 -0.10682999177E+03 -0.32965662725E+03 -0.81698164827E+02  0.35603473028E+03  0.00000000000E+00 0.  1.
<mgrwt>
<rscale>  0 0.25607555E+04</rscale>
<asrwt>0</asrwt>
<pdfrwt beam="1">  1        2 0.19594181E+00 0.25607555E+04</pdfrwt>
<pdfrwt beam="2">  1       -1 0.19802609E+00 0.25607555E+04</pdfrwt>
<totfact> 0.26903211E+00</totfact>
</mgrwt>
</event>
<event>
12    7  0.1729738E-007  0.2517288E+04  0.7818608E-02  0.8396853E-01
         -1   -1    0    0    0  501 -0.00000000000E+00  0.00000000000E+00  0.80257513118E+03  0.80257513118E+03  0.00000000000E+00 0.  1.
          2   -1    0    0  501    0  0.00000000000E+00 -0.00000000000E+00 -0.19738764468E+04  0.19738764468E+04  0.00000000000E+00 0. -1.
         24    2    1    2    0    0 -0.64930947902E+01 -0.42932012380E+03 -0.16237816328E+04  0.16815005059E+04  0.80120105655E+02 0.  0.
        254    2    1    2    0    0  0.64930947902E+01  0.42932012380E+03  0.45248031721E+03  0.10949510721E+04  0.89990081884E+03 0.  0.
         23    2    4    4    0    0  0.84512549074E+00 -0.54996250682E+02  0.57664563188E+03  0.58672110620E+03  0.93253256606E+02 0.  0.
         23    2    4    4    0    0  0.56479692995E+01  0.48431637449E+03 -0.12416531468E+03  0.50822996585E+03  0.91029789987E+02 0.  0.
          4    1    3    3  502    0  0.25785853427E+02 -0.33679960642E+03 -0.12089439896E+04  0.12552467706E+04  0.00000000000E+00 0. -1.
         -3    1    3    3    0  502 -0.32278948217E+02 -0.92520517384E+02 -0.41483764327E+03  0.42625373536E+03  0.00000000000E+00 0.  1.
         13    1    5    5    0    0  0.32471290423E+02 -0.65906613854E+02  0.43631090894E+03  0.44245369895E+03  0.00000000000E+00 0. -1.
        -13    1    5    5    0    0 -0.31626164932E+02  0.10910363172E+02  0.14033472294E+03  0.14426740725E+03  0.00000000000E+00 0.  1.
          1    1    6    6  503    0 -0.14913154811E+02  0.41441803561E+03 -0.77949645022E+02  0.42194888030E+03  0.00000000000E+00 0. -1.
         -1    1    6    6    0  503  0.20561124110E+02  0.69898338877E+02 -0.46215669654E+02  0.86281085552E+02  0.00000000000E+00 0.  1.
<mgrwt>
<rscale>  0 0.25172875E+04</rscale>
<asrwt>0</asrwt>
<pdfrwt beam="1">  1        2 0.30367330E+00 0.25172875E+04</pdfrwt>
<pdfrwt beam="2">  1       -1 0.12347310E+00 0.25172875E+04</pdfrwt>
<totfact> 0.40396295E+00</totfact>
</mgrwt>
</event>
<event>
12    7  0.1729738E-007  0.1609885E+04  0.7818608E-02  0.8814498E-01
         -1   -1    0    0    0  501 -0.00000000000E+00  0.00000000000E+00  0.10983203238E+04  0.10983203238E+04  0.00000000000E+00 0.  1.
          2   -1    0    0  501    0  0.00000000000E+00 -0.00000000000E+00 -0.58992999289E+03  0.58992999289E+03  0.00000000000E+00 0. -1.
         24    2    1    2    0    0  0.42602407477E+02  0.53754426113E+03  0.30180710327E+03  0.62190504506E+03  0.70068250249E+02 0.  0.
        254    2    1    2    0    0 -0.42602407477E+02 -0.53754426113E+03  0.20658322766E+03  0.10663452716E+04  0.89646350211E+03 0.  0.
         23    2    4    4    0    0  0.29231263210E+02  0.18847948797E+03  0.25155166777E+03  0.32884432535E+03  0.92094324621E+02 0.  0.
         23    2    4    4    0    0 -0.71833670687E+02 -0.72602374910E+03 -0.44968440105E+02  0.73750094629E+03  0.98055722328E+02 0.  0.
          4    1    3    3  502    0 -0.29274272701E+01  0.34583558243E+02  0.40340355092E+02  0.53215942913E+02  0.00000000000E+00 0. -1.
         -3    1    3    3    0  502  0.45529834747E+02  0.50296070288E+03  0.26146674818E+03  0.56868910215E+03  0.00000000000E+00 0.  1.
         13    1    5    5    0    0  0.32874139974E+02  0.34174390005E+02  0.22116520727E+02  0.52323402989E+02  0.00000000000E+00 0.  1.
        -13    1    5    5    0    0 -0.36428767639E+01  0.15430509796E+03  0.22943514704E+03  0.27652092236E+03  0.00000000000E+00 0. -1.
          1    1    6    6  503    0  0.21242654981E+02 -0.61509826512E+02 -0.64994625797E+01  0.65398411005E+02  0.00000000000E+00 0. -1.
         -1    1    6    6    0  503 -0.93076325668E+02 -0.66451392258E+03 -0.38468977525E+02  0.67210253529E+03  0.00000000000E+00 0.  1.
<mgrwt>
<rscale>  0 0.16098846E+04</rscale>
<asrwt>0</asrwt>
<pdfrwt beam="1">  1        2 0.90758461E-01 0.16098846E+04</pdfrwt>
<pdfrwt beam="2">  1       -1 0.16897236E+00 0.16098846E+04</pdfrwt>
<totfact> 0.13876602E+01</totfact>
</mgrwt>
</event>
<event>
12    7  0.1729738E-007  0.2116650E+04  0.7818608E-02  0.8553944E-01
          2   -1    0    0  501    0  0.00000000000E+00  0.00000000000E+00  0.23315387374E+04  0.23315387374E+04  0.00000000000E+00 0. -1.
         -1   -1    0    0    0  501 -0.00000000000E+00 -0.00000000000E+00 -0.48039172451E+03  0.48039172451E+03  0.00000000000E+00 0.  1.
         24    2    1    2    0    0 -0.43538364264E+03  0.21614667205E+03  0.16462394414E+04  0.17183586833E+04  0.79837121004E+02 0.  0.
        254    2    1    2    0    0  0.43538364264E+03 -0.21614667205E+03  0.20490757148E+03  0.10935717786E+04  0.95793205502E+03 0.  0.
         23    2    4    4    0    0  0.54759048618E+02 -0.27530123737E+03  0.51290725096E+03  0.59210699386E+03  0.93421193427E+02 0.  0.
         23    2    4    4    0    0  0.38062459402E+03  0.59154565322E+02 -0.30799967948E+03  0.50146478477E+03  0.90712643139E+02 0.  0.
          2    1    3    3  502    0 -0.21094718880E+03  0.69886953593E+02  0.83306408577E+03  0.86219410445E+03  0.00000000000E+00 0. -1.
         -1    1    3    3    0  502 -0.22443645384E+03  0.14625971846E+03  0.81317535568E+03  0.85616457889E+03  0.00000000000E+00 0.  1.
         13    1    5    5    0    0  0.56902246528E+02 -0.93049902803E+02  0.14413063839E+03  0.18074786581E+03  0.00000000000E+00 0.  1.
        -13    1    5    5    0    0 -0.21431979095E+01 -0.18225133457E+03  0.36877661257E+03  0.41135912805E+03  0.00000000000E+00 0. -1.
          3    1    6    6  503    0  0.20838795702E+03 -0.11849291490E+02 -0.14773986015E+03  0.25572057527E+03  0.00000000000E+00 0. -1.
         -3    1    6    6    0  503  0.17223663701E+03  0.71003856811E+02 -0.16025981933E+03  0.24574420950E+03  0.00000000000E+00 0.  1.
<mgrwt>
<rscale>  0 0.21166501E+04</rscale>
<asrwt>0</asrwt>
<pdfrwt beam="1">  1        2 0.35869826E+00 0.21166501E+04</pdfrwt>
<pdfrwt beam="2">  1       -1 0.73906421E-01 0.21166501E+04</pdfrwt>
<totfact> 0.84014376E+00</totfact>
</mgrwt>
</event>
<event>
12    7  0.1729738E-007  0.2511853E+04  0.7818608E-02  0.8398775E-01
         -1   -1    0    0    0  501 -0.00000000000E+00  0.00000000000E+00  0.13246126742E+04  0.13246126742E+04  0.00000000000E+00 0.  1.
          2   -1    0    0  501    0  0.00000000000E+00 -0.00000000000E+00 -0.11908021010E+04  0.11908021010E+04  0.00000000000E+00 0. -1.
         24    2    1    2    0    0 -0.32489375558E+03  0.13881127279E+02 -0.98261649151E+03  0.10379949913E+04  0.78420625324E+02 0.  0.
        254    2    1    2    0    0  0.32489375558E+03 -0.13881127279E+02  0.11164270647E+04  0.14774197839E+04  0.91137872976E+03 0.  0.
         23    2    4    4    0    0 -0.20200407560E+03 -0.41417200663E+02  0.84886396939E+03  0.87890563440E+03  0.96871278443E+02 0.  0.
         23    2    4    4    0    0  0.52689783119E+03  0.27536073384E+02  0.26756309528E+03  0.59851414950E+03  0.90827404217E+02 0.  0.
          2    1    3    3  502    0 -0.22824822487E+03 -0.82571687753E+01 -0.77436846694E+03  0.80734871994E+03  0.00000000000E+00 0. -1.
         -1    1    3    3    0  502 -0.96645530711E+02  0.22138296055E+02 -0.20824802457E+03  0.23064627137E+03  0.00000000000E+00 0.  1.
         13    1    5    5    0    0 -0.18074339012E+03 -0.63487799179E+02  0.64822228779E+03  0.67593713325E+03  0.00000000000E+00 0. -1.
        -13    1    5    5    0    0 -0.21260685484E+02  0.22070598516E+02  0.20064168160E+03  0.20296850115E+03  0.00000000000E+00 0.  1.
          2    1    6    6  503    0  0.75225240432E+02  0.27590951518E+02  0.66432591730E+02  0.10408355609E+03  0.00000000000E+00 0.  1.
         -2    1    6    6    0  503  0.45167259075E+03 -0.54878134702E-01  0.20113050355E+03  0.49443059342E+03  0.00000000000E+00 0. -1.
<mgrwt>
<rscale>  0 0.25118531E+04</rscale>
<asrwt>0</asrwt>
<pdfrwt beam="1">  1        2 0.18320032E+00 0.25118531E+04</pdfrwt>
<pdfrwt beam="2">  1       -1 0.20378657E+00 0.25118531E+04</pdfrwt>
<totfact> 0.27610667E+00</totfact>
</mgrwt>
</event>
<event>
12    7  0.1729738E-007  0.1689149E+04  0.7818608E-02  0.8767577E-01
         -1   -1    0    0    0  501 -0.00000000000E+00  0.00000000000E+00  0.50707811439E+03  0.50707811439E+03  0.00000000000E+00 0.  1.
          2   -1    0    0  501    0  0.00000000000E+00 -0.00000000000E+00 -0.14066991632E+04  0.14066991632E+04  0.00000000000E+00 0. -1.
         24    2    1    2    0    0 -0.16106964318E+03 -0.54680152939E+03 -0.56561618338E+03  0.80701136573E+03  0.80064567862E+02 0.  0.
        254    2    1    2    0    0  0.16106964318E+03  0.54680152939E+03 -0.33400486540E+03  0.11067659118E+04  0.88793929464E+03 0.  0.
         23    2    4    4    0    0  0.14486943518E+03  0.77801634388E+03 -0.18822880299E+03  0.81869637778E+03  0.92396385823E+02 0.  0.
         23    2    4    4    0    0  0.16200208001E+02 -0.23121481450E+03 -0.14577606241E+03  0.28806953404E+03  0.89502284274E+02 0.  0.
          2    1    3    3  502    0 -0.12900845003E+03 -0.40319151153E+03 -0.37001845133E+03  0.56224570205E+03  0.00000000000E+00 0. -1.
         -1    1    3    3    0  502 -0.32061193146E+02 -0.14361001786E+03 -0.19559773205E+03  0.24476566368E+03  0.00000000000E+00 0.  1.
         13    1    5    5    0    0  0.15214142124E+03  0.77312160181E+03 -0.18709862981E+03  0.80985796317E+03  0.00000000000E+00 0. -1.
        -13    1    5    5    0    0 -0.72719860633E+01  0.48947420754E+01 -0.11301731769E+01  0.88384146032E+01  0.00000000000E+00 0.  1.
          4    1    6    6  503    0  0.44335571442E+02 -0.75740100171E+02 -0.72819420534E+02  0.11403891299E+03  0.00000000000E+00 0. -1.
         -4    1    6    6    0  503 -0.28135363441E+02 -0.15547471432E+03 -0.72956641877E+02  0.17403062105E+03  0.00000000000E+00 0.  1.
<mgrwt>
<rscale>  0 0.16891493E+04</rscale>
<asrwt>0</asrwt>
<pdfrwt beam="1">  1        2 0.21641526E+00 0.16891493E+04</pdfrwt>
<pdfrwt beam="2">  1       -1 0.78012017E-01 0.16891493E+04</pdfrwt>
<totfact> 0.25620051E+01</totfact>
</mgrwt>
</event>
<event>
12    7  0.1729738E-007  0.1556276E+04  0.7818608E-02  0.8847869E-01
          2   -1    0    0  501    0  0.00000000000E+00  0.00000000000E+00  0.24933126616E+04  0.24933126616E+04  0.00000000000E+00 0. -1.
         -1   -1    0    0    0  501 -0.00000000000E+00 -0.00000000000E+00 -0.24284900856E+03  0.24284900856E+03  0.00000000000E+00 0.  1.
         24    2    1    2    0    0 -0.43834394801E+03 -0.36312127516E+02  0.39928077256E+03  0.59854219983E+03  0.73236891578E+02 0.  0.
        254    2    1    2    0    0  0.43834394801E+03  0.36312127516E+02  0.18511828804E+04  0.21376194703E+04  0.97420478112E+03 0.  0.
         23    2    4    4    0    0  0.50922836498E+03 -0.32540821433E+03  0.15024713735E+04  0.16220628421E+04  0.91997837327E+02 0.  0.
         23    2    4    4    0    0 -0.70884416971E+02  0.36172034185E+03  0.34871150697E+03  0.51555662815E+03  0.91283708651E+02 0.  0.
          4    1    3    3  502    0 -0.34330404266E+03 -0.11986173168E+02  0.34301339343E+03  0.48544775427E+03  0.00000000000E+00 0. -1.
         -3    1    3    3    0  502 -0.95039905352E+02 -0.24325954348E+02  0.56267379131E+02  0.11309444557E+03  0.00000000000E+00 0.  1.
         13    1    5    5    0    0  0.13284136019E+02 -0.43765975311E+01  0.10831513313E+02  0.17690239014E+02  0.00000000000E+00 0.  1.
        -13    1    5    5    0    0  0.49594422896E+03 -0.32103161680E+03  0.14916398602E+04  0.16043726031E+04  0.00000000000E+00 0. -1.
          3    1    6    6  503    0 -0.42834271135E+02  0.32474627580E+03  0.27140355454E+03  0.42538783227E+03  0.00000000000E+00 0. -1.
         -3    1    6    6    0  503 -0.28050145835E+02  0.36974066045E+02  0.77307952429E+02  0.90168795877E+02  0.00000000000E+00 0.  1.
<mgrwt>
<rscale>  0 0.15562757E+04</rscale>
<asrwt>0</asrwt>
<pdfrwt beam="1">  1        2 0.38358655E+00 0.15562757E+04</pdfrwt>
<pdfrwt beam="2">  1       -1 0.37361388E-01 0.15562757E+04</pdfrwt>
<totfact> 0.26607837E+01</totfact>
</mgrwt>
</event>
<event>
12    7  0.1729738E-007  0.1609557E+04  0.7818608E-02  0.8814698E-01
          2   -1    0    0  501    0  0.00000000000E+00  0.00000000000E+00  0.29192246541E+04  0.29192246541E+04  0.00000000000E+00 0. -1.
         -1   -1    0    0    0  501 -0.00000000000E+00 -0.00000000000E+00 -0.22186328290E+03  0.22186328290E+03  0.00000000000E+00 0.  1.
         24    2    1    2    0    0  0.14413355741E+03  0.81024688523E+01 -0.10348942604E+03  0.19524103122E+03  0.81048544703E+02 0.  0.
        254    2    1    2    0    0 -0.14413355741E+03 -0.81024688523E+01  0.28008507973E+04  0.29458469058E+04  0.90133715753E+03 0.  0.
         23    2    4    4    0    0 -0.43811323974E+03  0.88704355030E+02  0.23389028407E+04  0.23829712328E+04  0.90960018819E+02 0.  0.
         23    2    4    4    0    0  0.29397968234E+03 -0.96806823883E+02  0.46194795660E+03  0.56287567297E+03  0.87392756212E+02 0.  0.
          2    1    3    3  502    0  0.19960195412E+02 -0.29537890091E+02 -0.18895762305E+02  0.40347815121E+02  0.00000000000E+00 0. -1.
         -1    1    3    3    0  502  0.12417336199E+03  0.37640358943E+02 -0.84593663734E+02  0.15489321610E+03  0.00000000000E+00 0.  1.
         13    1    5    5    0    0 -0.38834490448E+03  0.10328162080E+03  0.19825982571E+04  0.20229124319E+04  0.00000000000E+00 0.  1.
        -13    1    5    5    0    0 -0.49768335256E+02 -0.14577265771E+02  0.35630458353E+03  0.36005880092E+03  0.00000000000E+00 0. -1.
          1    1    6    6  503    0 -0.20890752343E+01 -0.14031185876E+02  0.20781740671E+02  0.25161859186E+02  0.00000000000E+00 0. -1.
         -1    1    6    6    0  503  0.29606875757E+03 -0.82775638007E+02  0.44116621593E+03  0.53771381379E+03  0.00000000000E+00 0.  1.
<mgrwt>
<rscale>  0 0.16095574E+04</rscale>
<asrwt>0</asrwt>
<pdfrwt beam="1">  1        2 0.44911146E+00 0.16095574E+04</pdfrwt>
<pdfrwt beam="2">  1       -1 0.34132815E-01 0.16095574E+04</pdfrwt>
<totfact> 0.17402252E+01</totfact>
</mgrwt>
</event>
<event>
12    7  0.1729738E-007  0.3075965E+04  0.7818608E-02  0.8222365E-01
          2   -1    0    0  501    0  0.00000000000E+00  0.00000000000E+00  0.13915382584E+04  0.13915382584E+04  0.00000000000E+00 0. -1.
         -1   -1    0    0    0  501 -0.00000000000E+00 -0.00000000000E+00 -0.16998381959E+04  0.16998381959E+04  0.00000000000E+00 0.  1.
         24    2    1    2    0    0 -0.13174500021E+04  0.49578322013E+03 -0.17648698406E+03  0.14208877383E+04  0.79364978931E+02 0.  0.
        254    2    1    2    0    0  0.13174500021E+04 -0.49578322013E+03 -0.13181295340E+03  0.16704887161E+04  0.88976535472E+03 0.  0.
         23    2    4    4    0    0  0.10370598454E+04 -0.11967164765E+03  0.22675452076E+03  0.10724244962E+04  0.94139583431E+02 0.  0.
         23    2    4    4    0    0  0.28039015666E+03 -0.37611157248E+03 -0.35856747416E+03  0.59806421984E+03  0.95034849506E+02 0.  0.
          2    1    3    3  502    0 -0.50284279823E+03  0.18692801103E+03 -0.28538193697E+02  0.53722191834E+03  0.00000000000E+00 0. -1.
         -1    1    3    3    0  502 -0.81460720385E+03  0.30885520910E+03 -0.14794879037E+03  0.88366581993E+03  0.00000000000E+00 0.  1.
         13    1    5    5    0    0  0.44014688604E+03 -0.49946197912E+02  0.14395669900E+03  0.46577616423E+03  0.00000000000E+00 0.  1.
        -13    1    5    5    0    0  0.59691295939E+03 -0.69725449740E+02  0.82797821763E+02  0.60664833200E+03  0.00000000000E+00 0. -1.
          3    1    6    6  503    0  0.11299181119E+03 -0.21058538359E+03 -0.14083181633E+03  0.27739313919E+03  0.00000000000E+00 0. -1.
         -3    1    6    6    0  503  0.16739834546E+03 -0.16552618888E+03 -0.21773565783E+03  0.32067108065E+03  0.00000000000E+00 0.  1.
<mgrwt>
<rscale>  0 0.30759648E+04</rscale>
<asrwt>0</asrwt>
<pdfrwt beam="1">  1        2 0.21408281E+00 0.30759648E+04</pdfrwt>
<pdfrwt beam="2">  1       -1 0.26151357E+00 0.30759648E+04</pdfrwt>
<totfact> 0.83153671E-01</totfact>
</mgrwt>
</event>
<event>
12    7  0.1729738E-007  0.2978579E+04  0.7818608E-02  0.8249874E-01
          2   -1    0    0  501    0  0.00000000000E+00  0.00000000000E+00  0.23056830557E+04  0.23056830557E+04  0.00000000000E+00 0. -1.
         -1   -1    0    0    0  501 -0.00000000000E+00 -0.00000000000E+00 -0.96196381610E+03  0.96196381610E+03  0.00000000000E+00 0.  1.
         24    2    1    2    0    0 -0.99085225689E+03  0.62103855545E+03  0.13620353842E+04  0.17968811163E+04  0.78512903268E+02 0.  0.
        254    2    1    2    0    0  0.99085225689E+03 -0.62103855545E+03 -0.18316144553E+02  0.14707657555E+04  0.89181799949E+03 0.  0.
         23    2    4    4    0    0 -0.10516580614E+03  0.77529060193E+02 -0.55709319598E+02  0.16757786853E+03  0.88928127017E+02 0.  0.
         23    2    4    4    0    0  0.10960180630E+04 -0.69856761564E+03  0.37393175045E+02  0.13031878870E+04  0.87453480445E+02 0.  0.
          4    1    3    3  502    0 -0.96471146002E+03  0.59757447934E+03  0.13002476361E+04  0.17258062969E+04  0.00000000000E+00 0. -1.
         -3    1    3    3    0  502 -0.26140796863E+02  0.23464076113E+02  0.61787748120E+02  0.71074819354E+02  0.00000000000E+00 0.  1.
         13    1    5    5    0    0 -0.87077069650E+02  0.97423075230E+02 -0.41103150993E+02  0.13697861391E+03  0.00000000000E+00 0. -1.
        -13    1    5    5    0    0 -0.18088736488E+02 -0.19894015037E+02 -0.14606168604E+02  0.30599254620E+02  0.00000000000E+00 0.  1.
          4    1    6    6  503    0  0.63877949634E+03 -0.44642141941E+03 -0.48286325227E+01  0.77932961214E+03  0.00000000000E+00 0. -1.
         -4    1    6    6    0  503  0.45723856668E+03 -0.25214619623E+03  0.42221807568E+02  0.52385827489E+03  0.00000000000E+00 0.  1.
<mgrwt>
<rscale>  0 0.29785793E+04</rscale>
<asrwt>0</asrwt>
<pdfrwt beam="1">  1        2 0.35472047E+00 0.29785793E+04</pdfrwt>
<pdfrwt beam="2">  1       -1 0.14799443E+00 0.29785793E+04</pdfrwt>
<totfact> 0.15870175E+00</totfact>
</mgrwt>
</event>
<event>
12    7  0.1729738E-007  0.1325002E+04  0.7818608E-02  0.9009970E-01
          2   -1    0    0  501    0  0.00000000000E+00  0.00000000000E+00  0.22530980623E+04  0.22530980623E+04  0.00000000000E+00 0. -1.
         -1   -1    0    0    0  501 -0.00000000000E+00 -0.00000000000E+00 -0.19480179569E+03  0.19480179569E+03  0.00000000000E+00 0.  1.
         24    2    1    2    0    0 -0.53703045221E+02  0.13676182685E+03  0.11355330192E+04  0.11487121350E+04  0.92284977246E+02 0.  0.
        254    2    1    2    0    0  0.53703045221E+02 -0.13676182685E+03  0.92276324738E+03  0.12991877230E+04  0.90266766558E+03 0.  0.
         23    2    4    4    0    0 -0.78448310125E+02 -0.13432500268E+03  0.10672234470E+04  0.10826289244E+04  0.94457176758E+02 0.  0.
         23    2    4    4    0    0  0.13215135535E+03 -0.24368241662E+01 -0.14446019966E+03  0.21655879862E+03  0.92515107658E+02 0.  0.
          4    1    3    3  502    0 -0.39836441520E+02  0.68209710247E+02  0.88745508309E+03  0.89096354086E+03  0.00000000000E+00 0. -1.
         -3    1    3    3    0  502 -0.13866603701E+02  0.68552116599E+02  0.24807793611E+03  0.25774859412E+03  0.00000000000E+00 0.  1.
         13    1    5    5    0    0 -0.77214304009E+01  0.88070746000E+01  0.23127607834E+03  0.23157247130E+03  0.00000000000E+00 0.  1.
        -13    1    5    5    0    0 -0.70726879724E+02 -0.14313207728E+03  0.83594736870E+03  0.85105645306E+03  0.00000000000E+00 0. -1.
          1    1    6    6  503    0  0.10514832179E+03  0.14116121497E+02 -0.15067899944E+03  0.18428129404E+03  0.00000000000E+00 0. -1.
         -1    1    6    6    0  503  0.27003033553E+02 -0.16552945664E+02  0.62187997834E+01  0.32277504581E+02  0.00000000000E+00 0.  1.
<mgrwt>
<rscale>  0 0.13250020E+04</rscale>
<asrwt>0</asrwt>
<pdfrwt beam="1">  1        2 0.34663045E+00 0.13250020E+04</pdfrwt>
<pdfrwt beam="2">  1       -1 0.29969508E-01 0.13250020E+04</pdfrwt>
<totfact> 0.55036878E+01</totfact>
</mgrwt>
</event>
<event>
12    7  0.1729738E-007  0.1784944E+04  0.7818608E-02  0.8714348E-01
          2   -1    0    0  501    0  0.00000000000E+00  0.00000000000E+00  0.24520285628E+04  0.24520285628E+04  0.00000000000E+00 0. -1.
         -1   -1    0    0    0  501 -0.00000000000E+00 -0.00000000000E+00 -0.32483547041E+03  0.32483547041E+03  0.00000000000E+00 0.  1.
         24    2    1    2    0    0 -0.25049910874E+03  0.13083260449E+03 -0.13628370020E+03  0.32368837849E+03  0.79586088925E+02 0.  0.
        254    2    1    2    0    0  0.25049910874E+03 -0.13083260449E+03  0.22634767926E+04  0.24531756547E+04  0.90270517247E+03 0.  0.
         23    2    4    4    0    0 -0.33235065719E+03 -0.57564049767E+02  0.79500996974E+03  0.86897890440E+03  0.96503394493E+02 0.  0.
         23    2    4    4    0    0  0.58284976593E+03 -0.73268554725E+02  0.14684668228E+04  0.15841967503E+04  0.90567119493E+02 0.  0.
          4    1    3    3  502    0 -0.13360303313E+02 -0.10779238958E+02 -0.50584420871E+01  0.17896299435E+02  0.00000000000E+00 0. -1.
         -3    1    3    3    0  502 -0.23713880543E+03  0.14161184345E+03 -0.13122525812E+03  0.30579207906E+03  0.00000000000E+00 0.  1.
         13    1    5    5    0    0 -0.75719111688E+02  0.96859855413E+01  0.10573561625E+03  0.13041174308E+03  0.00000000000E+00 0. -1.
        -13    1    5    5    0    0 -0.25663154550E+03 -0.67250035309E+02  0.68927435349E+03  0.73856716132E+03  0.00000000000E+00 0.  1.
          2    1    6    6  503    0  0.41294322494E+03 -0.68903599325E+02  0.93852503009E+03  0.10276667967E+04  0.00000000000E+00 0.  1.
         -2    1    6    6    0  503  0.16990654099E+03 -0.43649553998E+01  0.52994179273E+03  0.55652995354E+03  0.00000000000E+00 0. -1.
<mgrwt>
<rscale>  0 0.17849435E+04</rscale>
<asrwt>0</asrwt>
<pdfrwt beam="1">  1        2 0.37723515E+00 0.17849435E+04</pdfrwt>
<pdfrwt beam="2">  1       -1 0.49974689E-01 0.17849435E+04</pdfrwt>
<totfact> 0.16062781E+01</totfact>
</mgrwt>
</event>
<event>
12    7  0.1947112E-007  0.1726644E+04  0.7818608E-02  0.8746312E-01
         -1   -1    0    0    0  501 -0.00000000000E+00  0.00000000000E+00  0.98672941730E+03  0.98672941730E+03  0.00000000000E+00 0.  1.
          2   -1    0    0  501    0  0.00000000000E+00 -0.00000000000E+00 -0.75534907539E+03  0.75534907539E+03  0.00000000000E+00 0. -1.
         24    2    1    2    0    0  0.15618259951E+03 -0.28450256250E+03 -0.44112706990E+03  0.55373699511E+03  0.81834317357E+02 0.  0.
        254    2    1    2    0    0 -0.15618259951E+03  0.28450256250E+03  0.67250741181E+03  0.11883414976E+04  0.92442121540E+03 0.  0.
         23    2    4    4    0    0 -0.67945654553E+02  0.35473949815E+03 -0.11159664325E+03  0.39047939999E+03  0.97793801005E+02 0.  0.
         23    2    4    4    0    0 -0.88236944956E+02 -0.70236935649E+02  0.78410405506E+03  0.79786209759E+03  0.95109263622E+02 0.  0.
          2    1    3    3  502    0  0.13018744377E+03 -0.25385417340E+03 -0.42160222775E+03  0.50905711890E+03  0.00000000000E+00 0. -1.
         -1    1    3    3    0  502  0.25995155741E+02 -0.30648389103E+02 -0.19524842149E+02  0.44679876203E+02  0.00000000000E+00 0.  1.
         13    1    5    5    0    0 -0.69173497729E+02  0.30270504249E+03 -0.12807439086E+03  0.33588445205E+03  0.00000000000E+00 0. -1.
        -13    1    5    5    0    0  0.12278431757E+01  0.52034455663E+02  0.16477747606E+02  0.54594947945E+02  0.00000000000E+00 0.  1.
          3    1    6    6  503    0 -0.10301803555E+03 -0.73340290744E+02  0.74967664225E+03  0.76026744099E+03  0.00000000000E+00 0. -1.
         -3    1    6    6    0  503  0.14781090598E+02  0.31033550958E+01  0.34427412813E+02  0.37594656603E+02  0.00000000000E+00 0.  1.
<mgrwt>
<rscale>  0 0.17266443E+04</rscale>
<asrwt>0</asrwt>
<pdfrwt beam="1">  1        2 0.11620755E+00 0.17266443E+04</pdfrwt>
<pdfrwt beam="2">  1       -1 0.15180453E+00 0.17266443E+04</pdfrwt>
<totfact> 0.13607213E+01</totfact>
</mgrwt>
</event>
<event>
12    7  0.1729738E-007  0.1531040E+04  0.7818608E-02  0.8864070E-01
          2   -1    0    0  501    0  0.00000000000E+00  0.00000000000E+00  0.10868758643E+04  0.10868758643E+04  0.00000000000E+00 0. -1.
         -1   -1    0    0    0  501 -0.00000000000E+00 -0.00000000000E+00 -0.53917891031E+03  0.53917891031E+03  0.00000000000E+00 0.  1.
         24    2    1    2    0    0  0.31360641205E+03  0.38673674999E+03  0.16947162762E+03  0.53188868458E+03  0.79187402741E+02 0.  0.
        254    2    1    2    0    0 -0.31360641205E+03 -0.38673674999E+03  0.37822532634E+03  0.10941660900E+04  0.89790352463E+03 0.  0.
         23    2    4    4    0    0 -0.25709273669E+03 -0.29925947654E+03 -0.23268910865E+03  0.46704620271E+03  0.91296356033E+02 0.  0.
         23    2    4    4    0    0 -0.56513675357E+02 -0.87477273441E+02  0.61091443499E+03  0.62711988728E+03  0.96004360742E+02 0.  0.
          2    1    3    3  502    0 -0.63937528086E+00 -0.23680019542E+01 -0.19935264791E+01  0.31607565277E+01  0.00000000000E+00 0. -1.
         -1    1    3    3    0  502  0.31424578733E+03  0.38910475194E+03  0.17146515409E+03  0.52872792806E+03  0.00000000000E+00 0.  1.
         13    1    5    5    0    0 -0.13232394975E+03 -0.19081250908E+03 -0.17914908193E+03  0.29328047132E+03  0.00000000000E+00 0.  1.
        -13    1    5    5    0    0 -0.12476878695E+03 -0.10844696746E+03 -0.53540026720E+02  0.17376573140E+03  0.00000000000E+00 0. -1.
          1    1    6    6  503    0  0.19182305715E+02  0.52111830262E+01  0.13157076135E+03  0.13306382876E+03  0.00000000000E+00 0. -1.
         -1    1    6    6    0  503 -0.75695981072E+02 -0.92688456467E+02  0.47934367364E+03  0.49405605853E+03  0.00000000000E+00 0.  1.
<mgrwt>
<rscale>  0 0.15310396E+04</rscale>
<asrwt>0</asrwt>
<pdfrwt beam="1">  1        2 0.16721167E+00 0.15310396E+04</pdfrwt>
<pdfrwt beam="2">  1       -1 0.82950602E-01 0.15310396E+04</pdfrwt>
<totfact> 0.35233158E+01</totfact>
</mgrwt>
</event>
<event>
12    7  0.1729738E-007  0.2021602E+04  0.7818608E-02  0.8596587E-01
          2   -1    0    0  501    0  0.00000000000E+00  0.00000000000E+00  0.51724648185E+04  0.51724648185E+04  0.00000000000E+00 0. -1.
         -1   -1    0    0    0  501 -0.00000000000E+00 -0.00000000000E+00 -0.19753036677E+03  0.19753036677E+03  0.00000000000E+00 0.  1.
         24    2    1    2    0    0  0.48047549760E+03 -0.25243696132E+03  0.40808225011E+03  0.68368937303E+03  0.79491588948E+02 0.  0.
        254    2    1    2    0    0 -0.48047549760E+03  0.25243696132E+03  0.45668522017E+04  0.46863058123E+04  0.90041213407E+03 0.  0.
         23    2    4    4    0    0 -0.27380105087E+03 -0.24707423276E+03  0.30478868961E+04  0.30714401348E+04  0.90095938117E+02 0.  0.
         23    2    4    4    0    0 -0.20667444672E+03  0.49951119407E+03  0.15189653055E+04  0.16148656775E+04  0.91158087901E+02 0.  0.
          4    1    3    3  502    0  0.69674010522E+02 -0.15668689755E+02  0.79212649830E+02  0.10665186109E+03  0.00000000000E+00 0. -1.
         -3    1    3    3    0  502  0.41080148707E+03 -0.23676827156E+03  0.32886960028E+03  0.57703751194E+03  0.00000000000E+00 0.  1.
         13    1    5    5    0    0 -0.24469488490E+03 -0.20243031208E+03  0.23245900168E+04  0.23461825087E+04  0.00000000000E+00 0. -1.
        -13    1    5    5    0    0 -0.29106165976E+02 -0.44643920682E+02  0.72329687938E+03  0.72525762614E+03  0.00000000000E+00 0.  1.
          4    1    6    6  503    0 -0.10732813576E+03  0.30040455275E+03  0.10153500316E+04  0.10642828152E+04  0.00000000000E+00 0. -1.
         -4    1    6    6    0  503 -0.99346310967E+02  0.19910664132E+03  0.50361527396E+03  0.55058286232E+03  0.00000000000E+00 0.  1.
<mgrwt>
<rscale>  0 0.20216022E+04</rscale>
<asrwt>0</asrwt>
<pdfrwt beam="1">  1        2 0.79576372E+00 0.20216022E+04</pdfrwt>
<pdfrwt beam="2">  1       -1 0.30389291E-01 0.20216022E+04</pdfrwt>
<totfact> 0.21867356E-01</totfact>
</mgrwt>
</event>
<event>
12    7  0.1729738E-007  0.1651539E+04  0.7818608E-02  0.8789497E-01
         -1   -1    0    0    0  501 -0.00000000000E+00  0.00000000000E+00  0.41888080213E+03  0.41888080213E+03  0.00000000000E+00 0.  1.
          2   -1    0    0  501    0  0.00000000000E+00 -0.00000000000E+00 -0.16278977073E+04  0.16278977073E+04  0.00000000000E+00 0. -1.
         24    2    1    2    0    0  0.24734874026E+03  0.20921468634E+03 -0.10260930743E+04  0.10789285854E+04  0.79168876077E+02 0.  0.
        254    2    1    2    0    0 -0.24734874026E+03 -0.20921468634E+03 -0.18292383085E+03  0.96784992402E+03  0.89348764023E+03 0.  0.
         23    2    4    4    0    0  0.22195916299E+00  0.22661590294E+03 -0.35464144211E+03  0.43042764373E+03  0.90236285912E+02 0.  0.
         23    2    4    4    0    0 -0.24757069943E+03 -0.43583058928E+03  0.17171761127E+03  0.53742228029E+03  0.89978972892E+02 0.  0.
          2    1    3    3  502    0  0.15731449275E+03  0.14968009024E+03 -0.79058448827E+03  0.81986328869E+03  0.00000000000E+00 0. -1.
         -1    1    3    3    0  502  0.90034247510E+02  0.59534596101E+02 -0.23550858601E+03  0.25906529668E+03  0.00000000000E+00 0.  1.
         13    1    5    5    0    0 -0.47635073891E+01  0.23402529969E+03 -0.33320394210E+03  0.40720436998E+03  0.00000000000E+00 0. -1.
        -13    1    5    5    0    0  0.49854665521E+01 -0.74093967550E+01 -0.21437500017E+02  0.23223273757E+02  0.00000000000E+00 0.  1.
          2    1    6    6  503    0 -0.20029425896E+03 -0.40258734655E+03  0.16609279632E+03  0.47935496113E+03  0.00000000000E+00 0. -1.
         -2    1    6    6    0  503 -0.47276440466E+02 -0.33243242733E+02  0.56248149432E+01  0.58067319154E+02  0.00000000000E+00 0.  1.
<mgrwt>
<rscale>  0 0.16515388E+04</rscale>
<asrwt>0</asrwt>
<pdfrwt beam="1">  1        2 0.25044580E+00 0.16515388E+04</pdfrwt>
<pdfrwt beam="2">  1       -1 0.64443201E-01 0.16515388E+04</pdfrwt>
<totfact> 0.28583881E+01</totfact>
</mgrwt>
</event>
<event>
12    7  0.1729738E-007  0.1333426E+04  0.7818608E-02  0.9003470E-01
          2   -1    0    0  501    0  0.00000000000E+00  0.00000000000E+00  0.80937895771E+03  0.80937895771E+03  0.00000000000E+00 0. -1.
         -1   -1    0    0    0  501 -0.00000000000E+00 -0.00000000000E+00 -0.54919436653E+03  0.54919436653E+03  0.00000000000E+00 0.  1.
         24    2    1    2    0    0 -0.28082895931E+03 -0.13161129847E+03  0.21173182238E+03  0.38356205454E+03  0.78121999466E+02 0.  0.
        254    2    1    2    0    0  0.28082895931E+03  0.13161129847E+03  0.48452768802E+02  0.97501126971E+03  0.92309959754E+03 0.  0.
         23    2    4    4    0    0 -0.21508444224E+03  0.11078711398E+03 -0.27171377679E+03  0.37730492610E+03  0.99977641722E+02 0.  0.
         23    2    4    4    0    0  0.49591340154E+03  0.20824184494E+02  0.32016654559E+03  0.59770634361E+03  0.91556036314E+02 0.  0.
          2    1    3    3  502    0 -0.10655793584E+03 -0.73745213357E+02  0.50109326813E+02  0.13893845694E+03  0.00000000000E+00 0. -1.
         -1    1    3    3    0  502 -0.17427102346E+03 -0.57866085117E+02  0.16162249557E+03  0.24462359760E+03  0.00000000000E+00 0.  1.
         13    1    5    5    0    0 -0.25187072137E+02 -0.17904643236E+02 -0.46511780753E+02  0.55841835581E+02  0.00000000000E+00 0. -1.
        -13    1    5    5    0    0 -0.18989737010E+03  0.12869175722E+03 -0.22520199604E+03  0.32146309052E+03  0.00000000000E+00 0.  1.
          3    1    6    6  503    0  0.38209135668E+03  0.54538627513E+02  0.24839478865E+03  0.45898609758E+03  0.00000000000E+00 0. -1.
         -3    1    6    6    0  503  0.11382204486E+03 -0.33714443019E+02  0.71771756944E+02  0.13872024603E+03  0.00000000000E+00 0.  1.
<mgrwt>
<rscale>  0 0.13334262E+04</rscale>
<asrwt>0</asrwt>
<pdfrwt beam="1">  1        2 0.12451984E+00 0.13334262E+04</pdfrwt>
<pdfrwt beam="2">  1       -1 0.84491441E-01 0.13334262E+04</pdfrwt>
<totfact> 0.52539009E+01</totfact>
</mgrwt>
</event>
<event>
12    7  0.1729738E-007  0.1352063E+04  0.7818608E-02  0.8989268E-01
          2   -1    0    0  501    0  0.00000000000E+00  0.00000000000E+00  0.30280377744E+03  0.30280377744E+03  0.00000000000E+00 0. -1.
         -1   -1    0    0    0  501 -0.00000000000E+00 -0.00000000000E+00 -0.15092900471E+04  0.15092900471E+04  0.00000000000E+00 0.  1.
         24    2    1    2    0    0 -0.15395966800E+03 -0.13781209841E+03  0.67378467854E+02  0.23180338196E+03  0.80605186696E+02 0.  0.
        254    2    1    2    0    0  0.15395966800E+03  0.13781209841E+03 -0.12738647376E+04  0.15802904426E+04  0.91208045677E+03 0.  0.
         23    2    4    4    0    0  0.58843735939E+02  0.51152273122E+03 -0.57798543416E+03  0.77927523240E+03  0.89914603429E+02 0.  0.
         23    2    4    4    0    0  0.95115932058E+02 -0.37371063281E+03 -0.69587930339E+03  0.80101521023E+03  0.93116510428E+02 0.  0.
          4    1    3    3  502    0 -0.86799308650E+02 -0.25461168153E+02  0.34768450521E+02  0.96908390851E+02  0.00000000000E+00 0. -1.
         -3    1    3    3    0  502 -0.67160359347E+02 -0.11235093026E+03  0.32610017333E+02  0.13489499111E+03  0.00000000000E+00 0.  1.
         13    1    5    5    0    0 -0.86295401439E+00  0.87899832935E+02 -0.15175902341E+03  0.17537937880E+03  0.00000000000E+00 0. -1.
        -13    1    5    5    0    0  0.59706689954E+02  0.42362289829E+03 -0.42622641075E+03  0.60389585360E+03  0.00000000000E+00 0.  1.
          3    1    6    6  503    0  0.23534639629E+02 -0.16302421293E+03 -0.21235406854E+03  0.26874713708E+03  0.00000000000E+00 0. -1.
         -3    1    6    6    0  503  0.71581292429E+02 -0.21068641988E+03 -0.48352523486E+03  0.53226807315E+03  0.00000000000E+00 0.  1.
<mgrwt>
<rscale>  0 0.13520632E+04</rscale>
<asrwt>0</asrwt>
<pdfrwt beam="1">  1        2 0.46585197E-01 0.13520632E+04</pdfrwt>
<pdfrwt beam="2">  1       -1 0.23219846E+00 0.13520632E+04</pdfrwt>
<totfact> 0.11101522E+01</totfact>
</mgrwt>
</event>
<event>
12    7  0.1729738E-007  0.1195196E+04  0.7818608E-02  0.9117072E-01
         -1   -1    0    0    0  501 -0.00000000000E+00  0.00000000000E+00  0.32250021954E+03  0.32250021954E+03  0.00000000000E+00 0.  1.
          2   -1    0    0  501    0  0.00000000000E+00 -0.00000000000E+00 -0.11073578184E+04  0.11073578184E+04  0.00000000000E+00 0. -1.
         24    2    1    2    0    0 -0.20298393489E+03 -0.15682226106E+03 -0.93650090585E+02  0.28470422323E+03  0.80563365560E+02 0.  0.
        254    2    1    2    0    0  0.20298393489E+03  0.15682226106E+03 -0.69120750829E+03  0.11451538147E+04  0.87624981626E+03 0.  0.
         23    2    4    4    0    0  0.35273894535E+02  0.38013347823E+03 -0.74956212551E+03  0.84601189175E+03  0.90260911105E+02 0.  0.
         23    2    4    4    0    0  0.16771004035E+03 -0.22331121717E+03  0.58354617221E+02  0.29914192298E+03  0.89922585521E+02 0.  0.
          4    1    3    3  502    0 -0.30277645906E+02 -0.42919733967E+02 -0.51518731626E+02  0.73573222804E+02  0.00000000000E+00 0. -1.
         -3    1    3    3    0  502 -0.17270628898E+03 -0.11390252709E+03 -0.42131358959E+02  0.21113100042E+03  0.00000000000E+00 0.  1.
         13    1    5    5    0    0  0.32999549092E+02  0.40058349454E+02 -0.11106079434E+03  0.12258932107E+03  0.00000000000E+00 0. -1.
        -13    1    5    5    0    0  0.22743454427E+01  0.34007512877E+03 -0.63850133118E+03  0.72342257068E+03  0.00000000000E+00 0.  1.
          3    1    6    6  503    0  0.74408406660E+02 -0.63790268120E+02 -0.17170285652E+02  0.99501899469E+02  0.00000000000E+00 0. -1.
         -3    1    6    6    0  503  0.93301633691E+02 -0.15952094905E+03  0.75524902873E+02  0.19964002351E+03  0.00000000000E+00 0.  1.
<mgrwt>
<rscale>  0 0.11951956E+04</rscale>
<asrwt>0</asrwt>
<pdfrwt beam="1">  1        2 0.17036274E+00 0.11951956E+04</pdfrwt>
<pdfrwt beam="2">  1       -1 0.49615418E-01 0.11951956E+04</pdfrwt>
<totfact> 0.98811091E+01</totfact>
</mgrwt>
</event>
<event>
12    7  0.1729738E-007  0.2072045E+04  0.7818608E-02  0.8573659E-01
          2   -1    0    0  501    0  0.00000000000E+00  0.00000000000E+00  0.16281881913E+04  0.16281881913E+04  0.00000000000E+00 0. -1.
         -1   -1    0    0    0  501 -0.00000000000E+00 -0.00000000000E+00 -0.65922491118E+03  0.65922491118E+03  0.00000000000E+00 0.  1.
         24    2    1    2    0    0  0.52123755077E+03  0.47542707582E+03  0.90510783845E+03  0.11502843648E+04  0.78831668319E+02 0.  0.
        254    2    1    2    0    0 -0.52123755077E+03 -0.47542707582E+03  0.63855441717E+02  0.11371287377E+04  0.88953064027E+03 0.  0.
         23    2    4    4    0    0 -0.67652600145E+03 -0.57598800927E+03 -0.61297123924E+02  0.89513215178E+03  0.89747502937E+02 0.  0.
         23    2    4    4    0    0  0.15528845068E+03  0.10056093345E+03  0.12515256564E+03  0.24199658595E+03  0.93124533142E+02 0.  0.
          4    1    3    3  502    0  0.33448081392E+03  0.25921884536E+03  0.57022860133E+03  0.71009329137E+03  0.00000000000E+00 0. -1.
         -3    1    3    3    0  502  0.18675673685E+03  0.21620823046E+03  0.33487923712E+03  0.44019107343E+03  0.00000000000E+00 0.  1.
         13    1    5    5    0    0 -0.61846929658E+03 -0.55565964589E+03 -0.60402703559E+02  0.83361285947E+03  0.00000000000E+00 0. -1.
        -13    1    5    5    0    0 -0.58056704866E+02 -0.20328363385E+02 -0.89442036528E+00  0.61519292304E+02  0.00000000000E+00 0.  1.
          1    1    6    6  503    0  0.12459368850E+03  0.77419559034E+02  0.45548628346E+02  0.15359704710E+03  0.00000000000E+00 0. -1.
         -1    1    6    6    0  503  0.30694762186E+02  0.23141374414E+02  0.79603937295E+02  0.88399538846E+02  0.00000000000E+00 0.  1.
<mgrwt>
<rscale>  0 0.20720446E+04</rscale>
<asrwt>0</asrwt>
<pdfrwt beam="1">  1        2 0.25049049E+00 0.20720446E+04</pdfrwt>
<pdfrwt beam="2">  1       -1 0.10141922E+00 0.20720446E+04</pdfrwt>
<totfact> 0.10439718E+01</totfact>
</mgrwt>
</event>
<event>
12    7  0.1729738E-007  0.1371998E+04  0.7818608E-02  0.8974341E-01
         -1   -1    0    0    0  501 -0.00000000000E+00  0.00000000000E+00  0.19777354453E+03  0.19777354453E+03  0.00000000000E+00 0.  1.
          2   -1    0    0  501    0  0.00000000000E+00 -0.00000000000E+00 -0.23794610784E+04  0.23794610784E+04  0.00000000000E+00 0. -1.
         24    2    1    2    0    0 -0.14390922870E+03  0.21533760174E+03 -0.87667768489E+02  0.28469749044E+03  0.79289813977E+02 0.  0.
        254    2    1    2    0    0  0.14390922870E+03 -0.21533760174E+03 -0.20940197654E+04  0.22925371325E+04  0.89650854833E+03 0.  0.
         23    2    4    4    0    0  0.17376578058E+03  0.25282365676E+03 -0.30888057169E+03  0.44461232382E+03  0.90324764075E+02 0.  0.
         23    2    4    4    0    0 -0.29856551882E+02 -0.46816125849E+03 -0.17851391937E+04  0.18479248087E+04  0.89653667125E+02 0.  0.
          4    1    3    3  502    0 -0.25680860217E+02  0.29156688256E+02 -0.46060640373E+02  0.60259452728E+02  0.00000000000E+00 0. -1.
         -3    1    3    3    0  502 -0.11822836849E+03  0.18618091348E+03 -0.41607128116E+02  0.22443803771E+03  0.00000000000E+00 0.  1.
         13    1    5    5    0    0  0.23847518645E+02 -0.19350361230E+01 -0.18462674418E+02  0.30221165712E+02  0.00000000000E+00 0.  1.
        -13    1    5    5    0    0  0.14991826194E+03  0.25475869288E+03 -0.29041789727E+03  0.41439115811E+03  0.00000000000E+00 0. -1.
          4    1    6    6  503    0  0.93519895732E+01 -0.30859692758E+03 -0.10385939665E+04  0.10835113985E+04  0.00000000000E+00 0. -1.
         -4    1    6    6    0  503 -0.39208541455E+02 -0.15956433091E+03 -0.74654522718E+03  0.76441341017E+03  0.00000000000E+00 0.  1.
<mgrwt>
<rscale>  0 0.13719977E+04</rscale>
<asrwt>0</asrwt>
<pdfrwt beam="1">  1        2 0.36607095E+00 0.13719977E+04</pdfrwt>
<pdfrwt beam="2">  1       -1 0.30426698E-01 0.13719977E+04</pdfrwt>
<totfact> 0.45293110E+01</totfact>
</mgrwt>
</event>
<event>
12    7  0.1729738E-007  0.1308516E+04  0.7818608E-02  0.9022839E-01
         -1   -1    0    0    0  501 -0.00000000000E+00  0.00000000000E+00  0.24404368304E+03  0.24404368304E+03  0.00000000000E+00 0.  1.
          2   -1    0    0  501    0  0.00000000000E+00 -0.00000000000E+00 -0.17540038596E+04  0.17540038596E+04  0.00000000000E+00 0. -1.
         24    2    1    2    0    0 -0.19745465595E+03 -0.30610093013E+02 -0.81176890859E+03  0.83984830371E+03  0.80318698567E+02 0.  0.
        254    2    1    2    0    0  0.19745465595E+03  0.30610093013E+02 -0.69819126795E+03  0.11581992389E+04  0.90223561858E+03 0.  0.
         23    2    4    4    0    0  0.18082422113E+03  0.28425147210E+03  0.58235629885E+02  0.35485360949E+03  0.95044185719E+02 0.  0.
         23    2    4    4    0    0  0.16630434821E+02 -0.25364137909E+03 -0.75642689783E+03  0.80334562942E+03  0.92585247211E+02 0.  0.
          4    1    3    3  502    0 -0.34838524798E+02 -0.38415207868E+02 -0.22621090414E+03  0.23207934884E+03  0.00000000000E+00 0. -1.
         -3    1    3    3    0  502 -0.16261613115E+03  0.78051148558E+01 -0.58555800445E+03  0.60776895487E+03  0.00000000000E+00 0.  1.
         13    1    5    5    0    0 -0.34104471547E+01 -0.48678178950E+01  0.52949779641E+01  0.79601251556E+01  0.00000000000E+00 0.  1.
        -13    1    5    5    0    0  0.18423466828E+03  0.28911929000E+03  0.52940651921E+02  0.34689348433E+03  0.00000000000E+00 0. -1.
          1    1    6    6  503    0 -0.25524896877E+02 -0.20019226133E+03 -0.58870323520E+03  0.62233428396E+03  0.00000000000E+00 0. -1.
         -1    1    6    6    0  503  0.42155331698E+02 -0.53449117764E+02 -0.16772366263E+03  0.18101134547E+03  0.00000000000E+00 0.  1.
<mgrwt>
<rscale>  0 0.13085160E+04</rscale>
<asrwt>0</asrwt>
<pdfrwt beam="1">  1        2 0.26984675E+00 0.13085160E+04</pdfrwt>
<pdfrwt beam="2">  1       -1 0.37545181E-01 0.13085160E+04</pdfrwt>
<totfact> 0.69823903E+01</totfact>
</mgrwt>
</event>
<event>
12    7  0.1729738E-007  0.1240013E+04  0.7818608E-02  0.9078537E-01
         -1   -1    0    0    0  501 -0.00000000000E+00  0.00000000000E+00  0.27397598414E+03  0.27397598414E+03  0.00000000000E+00 0.  1.
          2   -1    0    0  501    0  0.00000000000E+00 -0.00000000000E+00 -0.14030712889E+04  0.14030712889E+04  0.00000000000E+00 0. -1.
         24    2    1    2    0    0 -0.52110518993E+02 -0.26963183551E+03 -0.15399108663E+03  0.32497530003E+03  0.80491353304E+02 0.  0.
        254    2    1    2    0    0  0.52110518993E+02  0.26963183551E+03 -0.97510421815E+03  0.13520719730E+04  0.89546275807E+03 0.  0.
         23    2    4    4    0    0  0.79234821788E+01  0.40618401612E+03 -0.10773085121E+04  0.11551467660E+04  0.93392634939E+02 0.  0.
         23    2    4    4    0    0  0.44187036814E+02 -0.13655218061E+03  0.10220429390E+03  0.19692520707E+03  0.87947866575E+02 0.  0.
          2    1    3    3  502    0 -0.32944701459E+02 -0.17158973730E+03 -0.14042665908E+03  0.22416074117E+03  0.00000000000E+00 0. -1.
         -1    1    3    3    0  502 -0.19165817534E+02 -0.98042098210E+02 -0.13564427550E+02  0.10081455886E+03  0.00000000000E+00 0.  1.
         13    1    5    5    0    0 -0.33900602827E+02  0.11994349675E+03 -0.39027278405E+03  0.40969322578E+03  0.00000000000E+00 0. -1.
        -13    1    5    5    0    0  0.41824085006E+02  0.28624051937E+03 -0.68703572801E+03  0.74545354018E+03  0.00000000000E+00 0.  1.
          1    1    6    6  503    0  0.62873323667E+02 -0.84540707997E+02  0.37502664338E+02  0.11183307190E+03  0.00000000000E+00 0. -1.
         -1    1    6    6    0  503 -0.18686286853E+02 -0.52011472612E+02  0.64701629562E+02  0.85092135169E+02  0.00000000000E+00 0.  1.
<mgrwt>
<rscale>  0 0.12400126E+04</rscale>
<asrwt>0</asrwt>
<pdfrwt beam="1">  1        2 0.21585712E+00 0.12400126E+04</pdfrwt>
<pdfrwt beam="2">  1       -1 0.42150152E-01 0.12400126E+04</pdfrwt>
<totfact> 0.89363744E+01</totfact>
</mgrwt>
</event>
<event>
12    7  0.1729738E-007  0.2231269E+04  0.7818608E-02  0.8505525E-01
          2   -1    0    0  501    0  0.00000000000E+00  0.00000000000E+00  0.22225558478E+04  0.22225558478E+04  0.00000000000E+00 0. -1.
         -1   -1    0    0    0  501 -0.00000000000E+00 -0.00000000000E+00 -0.56000386012E+03  0.56000386012E+03  0.00000000000E+00 0.  1.
         24    2    1    2    0    0 -0.90695902392E+03 -0.94836608210E+02  0.36672908964E+03  0.98615291224E+03  0.80241434452E+02 0.  0.
        254    2    1    2    0    0  0.90695902392E+03  0.94836608210E+02  0.12958228980E+04  0.17964067956E+04  0.84637564894E+03 0.  0.
         23    2    4    4    0    0  0.79624711892E+03 -0.45014610967E+02  0.13613296222E+04  0.15804567545E+04  0.92679140488E+02 0.  0.
         23    2    4    4    0    0  0.11071190500E+03  0.13985121918E+03 -0.65506724160E+02  0.21595004114E+03  0.10260506784E+03 0.  0.
          4    1    3    3  502    0 -0.80759760799E+02 -0.90764564089E+01  0.58654193848E+02  0.10022392669E+03  0.00000000000E+00 0. -1.
         -3    1    3    3    0  502 -0.82619926312E+03 -0.85760151801E+02  0.30807489579E+03  0.88592898555E+03  0.00000000000E+00 0.  1.
         13    1    5    5    0    0  0.69125131819E+03 -0.69503940761E+02  0.11624632605E+04  0.13542451826E+04  0.00000000000E+00 0. -1.
        -13    1    5    5    0    0  0.10499580073E+03  0.24489329795E+02  0.19886636165E+03  0.22621157185E+03  0.00000000000E+00 0.  1.
          1    1    6    6  503    0  0.59655740882E+02  0.14253364519E+03 -0.52568027263E+02  0.16321165682E+03  0.00000000000E+00 0. -1.
         -1    1    6    6    0  503  0.51056164117E+02 -0.26824260132E+01 -0.12938696898E+02  0.52738384324E+02  0.00000000000E+00 0.  1.
<mgrwt>
<rscale>  0 0.22312686E+04</rscale>
<asrwt>0</asrwt>
<pdfrwt beam="1">  1        2 0.34193166E+00 0.22312686E+04</pdfrwt>
<pdfrwt beam="2">  1       -1 0.86154441E-01 0.22312686E+04</pdfrwt>
<totfact> 0.69166982E+00</totfact>
</mgrwt>
</event>
<event>
12    7  0.1729738E-007  0.1738403E+04  0.7818608E-02  0.8739760E-01
         -1   -1    0    0    0  501 -0.00000000000E+00  0.00000000000E+00  0.52437985464E+03  0.52437985464E+03  0.00000000000E+00 0.  1.
          2   -1    0    0  501    0  0.00000000000E+00 -0.00000000000E+00 -0.14407710862E+04  0.14407710862E+04  0.00000000000E+00 0. -1.
         24    2    1    2    0    0  0.53209427968E+03 -0.33872326989E+03 -0.30637904097E+03  0.70586409232E+03  0.80735519075E+02 0.  0.
        254    2    1    2    0    0 -0.53209427968E+03  0.33872326989E+03 -0.61001219054E+03  0.12592868485E+04  0.90323347929E+03 0.  0.
         23    2    4    4    0    0 -0.76873161955E+03  0.17898186815E+03 -0.50653543896E+03  0.94235783652E+03  0.92072412341E+02 0.  0.
         23    2    4    4    0    0  0.23663733987E+03  0.15974140174E+03 -0.10347675157E+03  0.31692901195E+03  0.90675324386E+02 0.  0.
          2    1    3    3  502    0  0.26623245338E+02 -0.11911224490E+02  0.25840386072E+01  0.29280568927E+02  0.00000000000E+00 0. -1.
         -1    1    3    3    0  502  0.50547103434E+03 -0.32681204540E+03 -0.30896307958E+03  0.67658352339E+03  0.00000000000E+00 0.  1.
         13    1    5    5    0    0 -0.54697712721E+03  0.10039396130E+03 -0.39412768050E+03  0.68161540012E+03  0.00000000000E+00 0.  1.
        -13    1    5    5    0    0 -0.22175449234E+03  0.78587906851E+02 -0.11240775847E+03  0.26074243640E+03  0.00000000000E+00 0. -1.
          1    1    6    6  503    0  0.54756451268E+01 -0.87143708882E+01 -0.13711421372E+02  0.17144270926E+02  0.00000000000E+00 0. -1.
         -1    1    6    6    0  503  0.23116169474E+03  0.16845577263E+03 -0.89765330200E+02  0.29978474103E+03  0.00000000000E+00 0.  1.
<mgrwt>
<rscale>  0 0.17384031E+04</rscale>
<asrwt>0</asrwt>
<pdfrwt beam="1">  1        2 0.22165708E+00 0.17384031E+04</pdfrwt>
<pdfrwt beam="2">  1       -1 0.80673827E-01 0.17384031E+04</pdfrwt>
<totfact> 0.22719765E+01</totfact>
</mgrwt>
</event>
<event>
12    7  0.1729738E-007  0.2877233E+04  0.7818608E-02  0.8279684E-01
          2   -1    0    0  501    0  0.00000000000E+00  0.00000000000E+00  0.34963795865E+04  0.34963795865E+04  0.00000000000E+00 0. -1.
         -1   -1    0    0    0  501 -0.00000000000E+00 -0.00000000000E+00 -0.59193159500E+03  0.59193159500E+03  0.00000000000E+00 0.  1.
         24    2    1    2    0    0  0.21130958925E+03 -0.11660708764E+04  0.55857799990E+03  0.13123075067E+04  0.75951161707E+02 0.  0.
        254    2    1    2    0    0 -0.21130958925E+03  0.11660708764E+04  0.23458699916E+04  0.27760036748E+04  0.89370988234E+03 0.  0.
         23    2    4    4    0    0  0.12323166555E+03  0.61731592333E+03  0.18584741009E+04  0.19642483594E+04  0.89892385259E+02 0.  0.
         23    2    4    4    0    0 -0.33454125480E+03  0.54875495303E+03  0.48739589068E+03  0.81175531542E+03  0.91335032853E+02 0.  0.
          4    1    3    3  502    0  0.19272944120E+03 -0.95965332550E+03  0.48497775590E+03  0.10923747372E+04  0.00000000000E+00 0. -1.
         -3    1    3    3    0  502  0.18580148050E+02 -0.20641755086E+03  0.73600244002E+02  0.21993276955E+03  0.00000000000E+00 0.  1.
         13    1    5    5    0    0  0.48223625090E+02  0.16482274926E+03  0.62837327918E+03  0.65141771137E+03  0.00000000000E+00 0.  1.
        -13    1    5    5    0    0  0.75008040461E+02  0.45249317407E+03  0.12301008217E+04  0.13128306480E+04  0.00000000000E+00 0. -1.
          1    1    6    6  503    0 -0.21623259830E+03  0.28024325415E+03  0.23663296669E+03  0.42577926087E+03  0.00000000000E+00 0. -1.
         -1    1    6    6    0  503 -0.11830865650E+03  0.26851169889E+03  0.25076292399E+03  0.38597605455E+03  0.00000000000E+00 0.  1.
<mgrwt>
<rscale>  0 0.28772331E+04</rscale>
<asrwt>0</asrwt>
<pdfrwt beam="1">  1        2 0.53790454E+00 0.28772331E+04</pdfrwt>
<pdfrwt beam="2">  1       -1 0.91066402E-01 0.28772331E+04</pdfrwt>
<totfact> 0.94514476E-01</totfact>
</mgrwt>
</event>
<event>
12    7  0.1729738E-007  0.1211617E+04  0.7818608E-02  0.9102749E-01
          2   -1    0    0  501    0  0.00000000000E+00  0.00000000000E+00  0.79196856123E+03  0.79196856123E+03  0.00000000000E+00 0. -1.
         -1   -1    0    0    0  501 -0.00000000000E+00 -0.00000000000E+00 -0.46340710019E+03  0.46340710019E+03  0.00000000000E+00 0.  1.
         24    2    1    2    0    0 -0.28089381705E+03  0.53231882461E+02  0.92163477572E+02  0.31075924350E+03  0.79638125647E+02 0.  0.
        254    2    1    2    0    0  0.28089381705E+03 -0.53231882461E+02  0.23639798346E+03  0.94461641792E+03  0.86872389206E+03 0.  0.
         23    2    4    4    0    0  0.33680812630E+03  0.25847585406E+03  0.38659923999E+03  0.58150037049E+03  0.91838050104E+02 0.  0.
         23    2    4    4    0    0 -0.55914309256E+02 -0.31170773652E+03 -0.15020125653E+03  0.36311604742E+03  0.94893221278E+02 0.  0.
          2    1    3    3  502    0 -0.68048332943E+02 -0.12593613527E+02  0.46389842893E+02  0.83313817832E+02  0.00000000000E+00 0. -1.
         -1    1    3    3    0  502 -0.21284548410E+03  0.65825495988E+02  0.45773634678E+02  0.22744542567E+03  0.00000000000E+00 0.  1.
         13    1    5    5    0    0  0.79762804961E+02  0.78259903707E+02  0.15639511132E+03  0.19221380915E+03  0.00000000000E+00 0. -1.
        -13    1    5    5    0    0  0.25704532134E+03  0.18021595036E+03  0.23020412867E+03  0.38928656135E+03  0.00000000000E+00 0.  1.
          4    1    6    6  503    0 -0.25731780806E+02 -0.12731301100E+02 -0.23085869061E+02  0.36839760062E+02  0.00000000000E+00 0. -1.
         -4    1    6    6    0  503 -0.30182528450E+02 -0.29897643542E+03 -0.12711538747E+03  0.32627628736E+03  0.00000000000E+00 0.  1.
<mgrwt>
<rscale>  0 0.12116169E+04</rscale>
<asrwt>0</asrwt>
<pdfrwt beam="1">  1        2 0.12184132E+00 0.12116169E+04</pdfrwt>
<pdfrwt beam="2">  1       -1 0.71293400E-01 0.12116169E+04</pdfrwt>
<totfact> 0.78106423E+01</totfact>
</mgrwt>
</event>
<event>
12    7  0.1729738E-007  0.3872182E+04  0.7818608E-02  0.8030840E-01
          2   -1    0    0  501    0  0.00000000000E+00  0.00000000000E+00  0.28681012475E+04  0.28681012475E+04  0.00000000000E+00 0. -1.
         -1   -1    0    0    0  501 -0.00000000000E+00 -0.00000000000E+00 -0.13069439434E+04  0.13069439434E+04  0.00000000000E+00 0.  1.
         24    2    1    2    0    0  0.22288028265E+02 -0.71603045059E+03 -0.10805820607E+04  0.12989508569E+04  0.80121010645E+02 0.  0.
        254    2    1    2    0    0 -0.22288028265E+02  0.71603045059E+03  0.26417393648E+04  0.28760943340E+04  0.88313950439E+03 0.  0.
         23    2    4    4    0    0 -0.35561604040E+03  0.64850761349E+03  0.14071757378E+04  0.15923367266E+04  0.91475684518E+02 0.  0.
         23    2    4    4    0    0  0.33332801214E+03  0.67522837106E+02  0.12345636270E+04  0.12837576074E+04  0.90660621513E+02 0.  0.
          2    1    3    3  502    0 -0.38495883343E+01 -0.53855999912E+03 -0.85876509691E+03  0.10136760743E+04  0.00000000000E+00 0. -1.
         -1    1    3    3    0  502  0.26137616599E+02 -0.17747045147E+03 -0.22181696377E+03  0.28527478256E+03  0.00000000000E+00 0.  1.
         13    1    5    5    0    0  0.12060788250E+01  0.15247272104E+02  0.13072301313E+02  0.20120114174E+02  0.00000000000E+00 0.  1.
        -13    1    5    5    0    0 -0.35682211923E+03  0.63326034138E+03  0.13941034365E+04  0.15722166124E+04  0.00000000000E+00 0. -1.
          3    1    6    6  503    0  0.31948055372E+03  0.45994755290E+02  0.10840369166E+04  0.11310700148E+04  0.00000000000E+00 0. -1.
         -3    1    6    6    0  503  0.13847458413E+02  0.21528081816E+02  0.15052671035E+03  0.15268759262E+03  0.00000000000E+00 0.  1.
<mgrwt>
<rscale>  0 0.38721816E+04</rscale>
<asrwt>0</asrwt>
<pdfrwt beam="1">  1        2 0.44124634E+00 0.38721816E+04</pdfrwt>
<pdfrwt beam="2">  1       -1 0.20106830E+00 0.38721816E+04</pdfrwt>
<totfact> 0.28145264E-01</totfact>
</mgrwt>
</event>
<event>
12    7  0.1729738E-007  0.2549765E+04  0.7818608E-02  0.8385468E-01
          2   -1    0    0  501    0  0.00000000000E+00  0.00000000000E+00  0.10513113383E+04  0.10513113383E+04  0.00000000000E+00 0. -1.
         -1   -1    0    0    0  501 -0.00000000000E+00 -0.00000000000E+00 -0.15459981435E+04  0.15459981435E+04  0.00000000000E+00 0.  1.
         24    2    1    2    0    0  0.84602515063E+03  0.71963898518E+03 -0.21618399916E+03  0.11342467624E+04  0.78366906533E+02 0.  0.
        254    2    1    2    0    0 -0.84602515063E+03 -0.71963898518E+03 -0.27850280605E+03  0.14630627193E+04  0.91068649012E+03 0.  0.
         23    2    4    4    0    0 -0.50412143376E+03 -0.89281840717E+03 -0.11479727776E+03  0.10362475771E+04  0.96785835025E+02 0.  0.
         23    2    4    4    0    0 -0.34190371686E+03  0.17317942199E+03 -0.16370552829E+03  0.42681514227E+03  0.92099955871E+02 0.  0.
          4    1    3    3  502    0  0.69681120566E+03  0.60934728589E+03 -0.20666789620E+03  0.94845220780E+03  0.00000000000E+00 0. -1.
         -3    1    3    3    0  502  0.14921394496E+03  0.11029169929E+03 -0.95161029587E+01  0.18579455460E+03  0.00000000000E+00 0.  1.
         13    1    5    5    0    0 -0.31260404519E+03 -0.64416675525E+03 -0.80257335274E+02  0.72049520298E+03  0.00000000000E+00 0. -1.
        -13    1    5    5    0    0 -0.19151738857E+03 -0.24865165192E+03 -0.34539942482E+02  0.31575237410E+03  0.00000000000E+00 0.  1.
          2    1    6    6  503    0 -0.17235697962E+03  0.86247433484E+02 -0.32444098458E+02  0.19544351545E+03  0.00000000000E+00 0. -1.
         -2    1    6    6    0  503 -0.16954673724E+03  0.86931988508E+02 -0.13126142984E+03  0.23137162682E+03  0.00000000000E+00 0.  1.
<mgrwt>
<rscale>  0 0.25497650E+04</rscale>
<asrwt>0</asrwt>
<pdfrwt beam="1">  1        2 0.16174021E+00 0.25497650E+04</pdfrwt>
<pdfrwt beam="2">  1       -1 0.23784587E+00 0.25497650E+04</pdfrwt>
<totfact> 0.19815139E+00</totfact>
</mgrwt>
</event>
<event>
12    7  0.1729738E-007  0.1920952E+04  0.7818608E-02  0.8644497E-01
          2   -1    0    0  501    0  0.00000000000E+00  0.00000000000E+00  0.12838655963E+04  0.12838655963E+04  0.00000000000E+00 0. -1.
         -1   -1    0    0    0  501 -0.00000000000E+00 -0.00000000000E+00 -0.71854422362E+03  0.71854422362E+03  0.00000000000E+00 0.  1.
         24    2    1    2    0    0 -0.43316634672E+03  0.24249442491E+03  0.80375929496E+03  0.94734525100E+03  0.70692222477E+02 0.  0.
        254    2    1    2    0    0  0.43316634672E+03 -0.24249442491E+03 -0.23843792230E+03  0.10550645689E+04  0.89992887036E+03 0.  0.
         23    2    4    4    0    0  0.20830395841E+03 -0.26698440525E+03  0.30144922915E+03  0.46244756226E+03  0.91186064459E+02 0.  0.
         23    2    4    4    0    0  0.22486238831E+03  0.24489980340E+02 -0.53988715145E+03  0.59261700663E+03  0.92487444718E+02 0.  0.
          4    1    3    3  502    0 -0.36093118256E+03  0.19167191655E+03  0.60795522584E+03  0.73254283067E+03  0.00000000000E+00 0. -1.
         -3    1    3    3    0  502 -0.72235164164E+02  0.50822508357E+02  0.19580406912E+03  0.21480242034E+03  0.00000000000E+00 0.  1.
         13    1    5    5    0    0  0.13135839175E+03 -0.13829657374E+03  0.22226014050E+03  0.29288314982E+03  0.00000000000E+00 0. -1.
        -13    1    5    5    0    0  0.76945566659E+02 -0.12868783150E+03  0.79189088649E+02  0.16956441244E+03  0.00000000000E+00 0.  1.
          2    1    6    6  503    0  0.22674662032E+03  0.75549647305E+01 -0.49200523253E+03  0.54179355492E+03  0.00000000000E+00 0. -1.
         -2    1    6    6    0  503 -0.18842320065E+01  0.16935015609E+02 -0.47881918922E+02  0.50823451709E+02  0.00000000000E+00 0.  1.
<mgrwt>
<rscale>  0 0.19209521E+04</rscale>
<asrwt>0</asrwt>
<pdfrwt beam="1">  1        2 0.19751778E+00 0.19209521E+04</pdfrwt>
<pdfrwt beam="2">  1       -1 0.11054527E+00 0.19209521E+04</pdfrwt>
<totfact> 0.13583818E+01</totfact>
</mgrwt>
</event>
<event>
12    7  0.1729738E-007  0.1357886E+04  0.7818608E-02  0.8984880E-01
          2   -1    0    0  501    0  0.00000000000E+00  0.00000000000E+00  0.29605511553E+04  0.29605511553E+04  0.00000000000E+00 0. -1.
         -1   -1    0    0    0  501 -0.00000000000E+00 -0.00000000000E+00 -0.15570195022E+03  0.15570195022E+03  0.00000000000E+00 0.  1.
         24    2    1    2    0    0 -0.27638322192E+03  0.23050997494E+03  0.59932880932E+03  0.70411952694E+03  0.84063979403E+02 0.  0.
        254    2    1    2    0    0  0.27638322192E+03 -0.23050997494E+03  0.22055203958E+04  0.24121335786E+04  0.90804496082E+03 0.  0.
         23    2    4    4    0    0 -0.18398009830E+03 -0.41114427425E+03  0.85121821793E+03  0.96738605553E+03  0.91515217781E+02 0.  0.
         23    2    4    4    0    0  0.46036332022E+03  0.18063429931E+03  0.13543021779E+04  0.14447475231E+04  0.92724752726E+02 0.  0.
          4    1    3    3  502    0 -0.81471916453E+01  0.39378194903E+02  0.65889198602E+02  0.77190708365E+02  0.00000000000E+00 0. -1.
         -3    1    3    3    0  502 -0.26823603028E+03  0.19113178003E+03  0.53343961072E+03  0.62692881858E+03  0.00000000000E+00 0.  1.
         13    1    5    5    0    0 -0.24032916110E+02 -0.18841746023E+02  0.10434497506E+03  0.10872196774E+03  0.00000000000E+00 0. -1.
        -13    1    5    5    0    0 -0.15994718219E+03 -0.39230252823E+03  0.74687324287E+03  0.85866408779E+03  0.00000000000E+00 0.  1.
          1    1    6    6  503    0  0.30975609618E+02 -0.11043370922E+02  0.93001741380E+02  0.98644656886E+02  0.00000000000E+00 0. -1.
         -1    1    6    6    0  503  0.42938771060E+03  0.19167767024E+03  0.12613004365E+04  0.13461028662E+04  0.00000000000E+00 0.  1.
<mgrwt>
<rscale>  0 0.13578860E+04</rscale>
<asrwt>0</asrwt>
<pdfrwt beam="1">  1        2 0.45546937E+00 0.13578860E+04</pdfrwt>
<pdfrwt beam="2">  1       -1 0.23954148E-01 0.13578860E+04</pdfrwt>
<totfact> 0.31174257E+01</totfact>
</mgrwt>
</event>
<event>
12    7  0.1729738E-007  0.1766052E+04  0.7818608E-02  0.8724564E-01
         -1   -1    0    0    0  501 -0.00000000000E+00  0.00000000000E+00  0.94505089357E+03  0.94505089357E+03  0.00000000000E+00 0.  1.
          2   -1    0    0  501    0  0.00000000000E+00 -0.00000000000E+00 -0.82507224327E+03  0.82507224327E+03  0.00000000000E+00 0. -1.
         24    2    1    2    0    0  0.62745432504E+03 -0.19596496725E+03  0.38784615646E+02  0.66327004785E+03  0.79509191708E+02 0.  0.
        254    2    1    2    0    0 -0.62745432504E+03  0.19596496725E+03  0.81194034663E+02  0.11068530890E+04  0.88680893712E+03 0.  0.
         23    2    4    4    0    0 -0.31540821708E+03 -0.86792661882E+02  0.43295209518E+03  0.55034696083E+03  0.91754841906E+02 0.  0.
         23    2    4    4    0    0 -0.31204610796E+03  0.28275762913E+03 -0.35175806052E+03  0.55650612816E+03  0.92955296865E+02 0.  0.
          2    1    3    3  502    0  0.74594390517E+00 -0.74554051214E+01 -0.12708194964E+01  0.75996368351E+01  0.00000000000E+00 0. -1.
         -1    1    3    3    0  502  0.62670838113E+03 -0.18850956213E+03  0.40055435142E+02  0.65567041101E+03  0.00000000000E+00 0.  1.
         13    1    5    5    0    0 -0.26909976859E+03 -0.94808857269E+02  0.40582721706E+03  0.49608379834E+03  0.00000000000E+00 0.  1.
        -13    1    5    5    0    0 -0.46308448490E+02  0.80161953874E+01  0.27124878128E+02  0.54263162491E+02  0.00000000000E+00 0. -1.
          1    1    6    6  503    0 -0.22582080342E+02  0.59303201613E+02 -0.72785786682E+02  0.96563920887E+02  0.00000000000E+00 0. -1.
         -1    1    6    6    0  503 -0.28946402762E+03  0.22345442752E+03 -0.27897227384E+03  0.45994220727E+03  0.00000000000E+00 0.  1.
<mgrwt>
<rscale>  0 0.17660524E+04</rscale>
<asrwt>0</asrwt>
<pdfrwt beam="1">  1        2 0.12693419E+00 0.17660524E+04</pdfrwt>
<pdfrwt beam="2">  1       -1 0.14539245E+00 0.17660524E+04</pdfrwt>
<totfact> 0.13547452E+01</totfact>
</mgrwt>
</event>
<event>
12    7  0.1729738E-007  0.1992488E+04  0.7818608E-02  0.8610141E-01
          2   -1    0    0  501    0  0.00000000000E+00  0.00000000000E+00  0.16950101707E+04  0.16950101707E+04  0.00000000000E+00 0. -1.
         -1   -1    0    0    0  501 -0.00000000000E+00 -0.00000000000E+00 -0.58554356040E+03  0.58554356040E+03  0.00000000000E+00 0.  1.
         24    2    1    2    0    0 -0.11163848511E+01 -0.26189338974E+02  0.13490993681E+04  0.13516695045E+04  0.79083605549E+02 0.  0.
        254    2    1    2    0    0  0.11163848511E+01  0.26189338974E+02 -0.23963275781E+03  0.92888422657E+03  0.89705903928E+03 0.  0.
         23    2    4    4    0    0 -0.94165419862E+02  0.38233351956E+03 -0.34855585792E+03  0.53357817296E+03  0.90379389743E+02 0.  0.
         23    2    4    4    0    0  0.95281804713E+02 -0.35614418058E+03  0.10892310011E+03  0.39530605361E+03  0.92115876011E+02 0.  0.
          4    1    3    3  502    0 -0.35929491036E+02 -0.19582721595E+02  0.98509296054E+03  0.98594246902E+03  0.00000000000E+00 0. -1.
         -3    1    3    3    0  502  0.34813106185E+02 -0.66066173791E+01  0.36400640753E+03  0.36572703548E+03  0.00000000000E+00 0.  1.
         13    1    5    5    0    0 -0.32636954829E+02  0.59514124313E+02 -0.10294035742E+03  0.12330376717E+03  0.00000000000E+00 0. -1.
        -13    1    5    5    0    0 -0.61528465032E+02  0.32281939524E+03 -0.24561550050E+03  0.41027440578E+03  0.00000000000E+00 0.  1.
          3    1    6    6  503    0 -0.16075945180E+02 -0.85473314285E+02  0.17889421798E+02  0.88792763672E+02  0.00000000000E+00 0. -1.
         -3    1    6    6    0  503  0.11135774989E+03 -0.27067086630E+03  0.91033678309E+02  0.30651328994E+03  0.00000000000E+00 0.  1.
<mgrwt>
<rscale>  0 0.19924882E+04</rscale>
<asrwt>0</asrwt>
<pdfrwt beam="1">  1        2 0.26077079E+00 0.19924882E+04</pdfrwt>
<pdfrwt beam="2">  1       -1 0.90083625E-01 0.19924882E+04</pdfrwt>
<totfact> 0.12597071E+01</totfact>
</mgrwt>
</event>
<event>
12    7  0.1729738E-007  0.1442490E+04  0.7818608E-02  0.8923624E-01
         -1   -1    0    0    0  501 -0.00000000000E+00  0.00000000000E+00  0.29973876461E+03  0.29973876461E+03  0.00000000000E+00 0.  1.
          2   -1    0    0  501    0  0.00000000000E+00 -0.00000000000E+00 -0.17354917239E+04  0.17354917239E+04  0.00000000000E+00 0. -1.
         24    2    1    2    0    0 -0.20567772669E+03 -0.13359179258E+03 -0.96318881152E+03  0.99727433780E+03  0.81690414945E+02 0.  0.
        254    2    1    2    0    0  0.20567772669E+03  0.13359179258E+03 -0.47256414773E+03  0.10379561507E+04  0.89100280736E+03 0.  0.
         23    2    4    4    0    0  0.48899293123E+03  0.30282157786E+03 -0.28852864923E+03  0.64941669304E+03  0.87625709488E+02 0.  0.
         23    2    4    4    0    0 -0.28331520454E+03 -0.16922978528E+03 -0.18403549851E+03  0.38853945765E+03  0.90485468941E+02 0.  0.
          2    1    3    3  502    0 -0.21205155559E+03 -0.12723240459E+03 -0.89655034706E+03  0.93003036070E+03  0.00000000000E+00 0. -1.
         -1    1    3    3    0  502  0.63738289087E+01 -0.63593879911E+01 -0.66638464461E+02  0.67243977100E+02  0.00000000000E+00 0.  1.
         13    1    5    5    0    0  0.50541187356E+02  0.64774442775E+02 -0.29654905047E+02  0.87347315068E+02  0.00000000000E+00 0. -1.
        -13    1    5    5    0    0  0.43845174387E+03  0.23804713509E+03 -0.25887374418E+03  0.56206937797E+03  0.00000000000E+00 0.  1.
          3    1    6    6  503    0 -0.10508248123E+03 -0.19180516690E+02 -0.37035604152E+02  0.11305687090E+03  0.00000000000E+00 0. -1.
         -3    1    6    6    0  503 -0.17823272331E+03 -0.15004926859E+03 -0.14699989435E+03  0.27548258675E+03  0.00000000000E+00 0.  1.
<mgrwt>
<rscale>  0 0.14424897E+04</rscale>
<asrwt>0</asrwt>
<pdfrwt beam="1">  1        2 0.26699872E+00 0.14424897E+04</pdfrwt>
<pdfrwt beam="2">  1       -1 0.46113657E-01 0.14424897E+04</pdfrwt>
<totfact> 0.48458947E+01</totfact>
</mgrwt>
</event>
<event>
12    7  0.1729738E-007  0.1891778E+04  0.7818608E-02  0.8658960E-01
          2   -1    0    0  501    0  0.00000000000E+00  0.00000000000E+00  0.96313792880E+03  0.96313792880E+03  0.00000000000E+00 0. -1.
         -1   -1    0    0    0  501 -0.00000000000E+00 -0.00000000000E+00 -0.92894849962E+03  0.92894849962E+03  0.00000000000E+00 0.  1.
         24    2    1    2    0    0  0.10703649675E+03  0.33362146248E+02  0.69274229604E+03  0.70629811552E+03  0.79970587309E+02 0.  0.
        254    2    1    2    0    0 -0.10703649675E+03 -0.33362146248E+02 -0.65855286686E+03  0.11857883129E+04  0.97971026336E+03 0.  0.
         23    2    4    4    0    0  0.11551520435E+03 -0.43779689599E+03 -0.13331791926E+03  0.48076889431E+03  0.91406660408E+02 0.  0.
         23    2    4    4    0    0 -0.22255170110E+03  0.40443474975E+03 -0.52523494760E+03  0.70501941859E+03  0.89910533000E+02 0.  0.
          4    1    3    3  502    0  0.57447660990E+02  0.37734346632E+02  0.56554528313E+03  0.56970657530E+03  0.00000000000E+00 0. -1.
         -3    1    3    3    0  502  0.49588835761E+02 -0.43722003844E+01  0.12719701291E+03  0.13659154022E+03  0.00000000000E+00 0.  1.
         13    1    5    5    0    0  0.13123742873E+03 -0.38446455776E+03 -0.11459788715E+03  0.42210062143E+03  0.00000000000E+00 0.  1.
        -13    1    5    5    0    0 -0.15722224381E+02 -0.53332338235E+02 -0.18720032106E+02  0.58668272884E+02  0.00000000000E+00 0. -1.
          1    1    6    6  503    0 -0.16433944185E+03  0.24610768371E+03 -0.28024915387E+03  0.40757334600E+03  0.00000000000E+00 0. -1.
         -1    1    6    6    0  503 -0.58212259244E+02  0.15832706604E+03 -0.24498579373E+03  0.29744607259E+03  0.00000000000E+00 0.  1.
<mgrwt>
<rscale>  0 0.18917775E+04</rscale>
<asrwt>0</asrwt>
<pdfrwt beam="1">  1        2 0.14817507E+00 0.18917775E+04</pdfrwt>
<pdfrwt beam="2">  1       -1 0.14291515E+00 0.18917775E+04</pdfrwt>
<totfact> 0.11299810E+01</totfact>
</mgrwt>
</event>
<event>
12    7  0.1729738E-007  0.2367991E+04  0.7818608E-02  0.8451585E-01
         -1   -1    0    0    0  501 -0.00000000000E+00  0.00000000000E+00  0.63652360579E+03  0.63652360579E+03  0.00000000000E+00 0.  1.
          2   -1    0    0  501    0  0.00000000000E+00 -0.00000000000E+00 -0.22023457516E+04  0.22023457516E+04  0.00000000000E+00 0. -1.
         24    2    1    2    0    0  0.60428216684E+03 -0.16507230619E+03 -0.16208976349E+04  0.17399410902E+04  0.87635901145E+02 0.  0.
        254    2    1    2    0    0 -0.60428216684E+03  0.16507230619E+03  0.55075489049E+02  0.10989282672E+04  0.90122373668E+03 0.  0.
         23    2    4    4    0    0 -0.79330592245E+03 -0.14317694656E+00  0.15640036429E+03  0.81356211202E+03  0.89932914282E+02 0.  0.
         23    2    4    4    0    0  0.18902375561E+03  0.16521548314E+03 -0.10132487524E+03  0.28536615520E+03  0.90227358032E+02 0.  0.
          2    1    3    3  502    0  0.59206204014E+03 -0.17014872155E+03 -0.16055641808E+04  0.17196872929E+04  0.00000000000E+00 0. -1.
         -3    1    3    3    0  502  0.12220126703E+02  0.50764153597E+01 -0.15333454080E+02  0.20253797263E+02  0.00000000000E+00 0.  1.
         13    1    5    5    0    0 -0.21711514760E+03 -0.13268606722E+02  0.81895282071E+02  0.23242607527E+03  0.00000000000E+00 0. -1.
        -13    1    5    5    0    0 -0.57619077485E+03  0.13125429775E+02  0.74505082219E+02  0.58113603675E+03  0.00000000000E+00 0.  1.
          1    1    6    6  503    0  0.63909923606E+02  0.94880631085E+02 -0.81533085410E+02  0.14047938107E+03  0.00000000000E+00 0. -1.
         -1    1    6    6    0  503  0.12511383200E+03  0.70334852056E+02 -0.19791789830E+02  0.14488677413E+03  0.00000000000E+00 0.  1.
<mgrwt>
<rscale>  0 0.23679908E+04</rscale>
<asrwt>0</asrwt>
<pdfrwt beam="1">  1        2 0.33882242E+00 0.23679908E+04</pdfrwt>
<pdfrwt beam="2">  1       -1 0.97926708E-01 0.23679908E+04</pdfrwt>
<totfact> 0.52792513E+00</totfact>
</mgrwt>
</event>
<event>
12    7  0.1729738E-007  0.2068350E+04  0.7818608E-02  0.8575315E-01
         -1   -1    0    0    0  501 -0.00000000000E+00  0.00000000000E+00  0.26924305757E+03  0.26924305757E+03  0.00000000000E+00 0.  1.
          2   -1    0    0  501    0  0.00000000000E+00 -0.00000000000E+00 -0.39723135184E+04  0.39723135184E+04  0.00000000000E+00 0. -1.
         24    2    1    2    0    0  0.26719081710E+03 -0.75069124824E+03 -0.97424317512E+03  0.12611174149E+04  0.79618383261E+02 0.  0.
        254    2    1    2    0    0 -0.26719081710E+03  0.75069124824E+03 -0.27288272857E+04  0.29804391611E+04  0.89531612000E+03 0.  0.
         23    2    4    4    0    0  0.22288637190E+03  0.14714387849E+03 -0.23116760649E+03  0.36291183431E+03  0.83287942877E+02 0.  0.
         23    2    4    4    0    0 -0.49007718901E+03  0.60354736974E+03 -0.24976596792E+04  0.26175273268E+04  0.93275690842E+02 0.  0.
          2    1    3    3  502    0  0.42535546919E+02 -0.14217517132E+03 -0.23168897847E+03  0.27514148149E+03  0.00000000000E+00 0. -1.
         -1    1    3    3    0  502  0.22465527018E+03 -0.60851607692E+03 -0.74255419664E+03  0.98597593340E+03  0.00000000000E+00 0.  1.
         13    1    5    5    0    0  0.91638339427E+01  0.20602982995E+02  0.14780060686E+01  0.22597417170E+02  0.00000000000E+00 0. -1.
        -13    1    5    5    0    0  0.21372253796E+03  0.12654089550E+03 -0.23264561256E+03  0.34031441714E+03  0.00000000000E+00 0.  1.
          4    1    6    6  503    0 -0.44247009848E+03  0.56315280794E+03 -0.22091906090E+04  0.23223789570E+04  0.00000000000E+00 0.  1.
         -4    1    6    6    0  503 -0.47607090533E+02  0.40394561804E+02 -0.28846907026E+03  0.29514836979E+03  0.00000000000E+00 0. -1.
<mgrwt>
<rscale>  0 0.20683499E+04</rscale>
<asrwt>0</asrwt>
<pdfrwt beam="1">  1        2 0.61112510E+00 0.20683499E+04</pdfrwt>
<pdfrwt beam="2">  1       -1 0.41422013E-01 0.20683499E+04</pdfrwt>
<totfact> 0.21829740E+00</totfact>
</mgrwt>
</event>
<event>
12    7  0.1729738E-007  0.1869431E+04  0.7818608E-02  0.8670224E-01
         -1   -1    0    0    0  501 -0.00000000000E+00  0.00000000000E+00  0.13182272205E+04  0.13182272205E+04  0.00000000000E+00 0.  1.
          2   -1    0    0  501    0  0.00000000000E+00 -0.00000000000E+00 -0.66277878410E+03  0.66277878410E+03  0.00000000000E+00 0. -1.
         24    2    1    2    0    0  0.22768264024E+03 -0.50906271683E+03  0.72172567493E+03  0.91555007917E+03  0.79748124028E+02 0.  0.
        254    2    1    2    0    0 -0.22768264024E+03  0.50906271683E+03 -0.66277238513E+02  0.10654559254E+04  0.90543880101E+03 0.  0.
         23    2    4    4    0    0 -0.20271129444E+03  0.71300619007E+03 -0.24054453541E+03  0.78450091834E+03  0.90057322754E+02 0.  0.
         23    2    4    4    0    0 -0.24971345807E+02 -0.20394347324E+03  0.17426729690E+03  0.28095500710E+03  0.79687620488E+02 0.  0.
          2    1    3    3  502    0  0.19233127727E+02 -0.71615368512E+02  0.60084922015E+02  0.95440411058E+02  0.00000000000E+00 0. -1.
         -1    1    3    3    0  502  0.20844951252E+03 -0.43744734832E+03  0.66164075291E+03  0.82010966812E+03  0.00000000000E+00 0.  1.
         13    1    5    5    0    0 -0.14156332745E+03  0.41738112305E+03 -0.18282304419E+03  0.47714928801E+03  0.00000000000E+00 0.  1.
        -13    1    5    5    0    0 -0.61147966984E+02  0.29562506702E+03 -0.57721491221E+02  0.30735163032E+03  0.00000000000E+00 0. -1.
          3    1    6    6  503    0 -0.58922692011E+01 -0.35744264248E+02  0.78521929476E+02  0.86475803966E+02  0.00000000000E+00 0. -1.
         -3    1    6    6    0  503 -0.19079076606E+02 -0.16819920899E+03  0.95745367425E+02  0.19447920314E+03  0.00000000000E+00 0.  1.
<mgrwt>
<rscale>  0 0.18694310E+04</rscale>
<asrwt>0</asrwt>
<pdfrwt beam="1">  1        2 0.10196597E+00 0.18694310E+04</pdfrwt>
<pdfrwt beam="2">  1       -1 0.20280419E+00 0.18694310E+04</pdfrwt>
<totfact> 0.67722022E+00</totfact>
</mgrwt>
</event>
<event>
12    7  0.1729738E-007  0.1306303E+04  0.7818608E-02  0.9024582E-01
         -1   -1    0    0    0  501 -0.00000000000E+00  0.00000000000E+00  0.28547844952E+03  0.28547844952E+03  0.00000000000E+00 0.  1.
          2   -1    0    0  501    0  0.00000000000E+00 -0.00000000000E+00 -0.14943568466E+04  0.14943568466E+04  0.00000000000E+00 0. -1.
         24    2    1    2    0    0  0.14608101865E+03 -0.48974533580E+02 -0.71425221999E+03  0.73467446394E+03  0.76499446144E+02 0.  0.
        254    2    1    2    0    0 -0.14608101865E+03  0.48974533580E+02 -0.49462617709E+03  0.10451608322E+04  0.90772679871E+03 0.  0.
         23    2    4    4    0    0 -0.41562937461E+03 -0.25914328229E+02 -0.59623185015E+03  0.73279484714E+03  0.89869568875E+02 0.  0.
         23    2    4    4    0    0  0.26954835597E+03  0.74888861809E+02  0.10160567306E+03  0.31236598503E+03  0.94784692741E+02 0.  0.
          2    1    3    3  502    0  0.15304841336E+03 -0.45814953751E+02 -0.70390135100E+03  0.72180325488E+03  0.00000000000E+00 0. -1.
         -3    1    3    3    0  502 -0.69673947155E+01 -0.31595798289E+01 -0.10350868992E+02  0.12871209062E+02  0.00000000000E+00 0.  1.
         13    1    5    5    0    0 -0.32976554135E+03 -0.33518944254E+02 -0.52543017885E+03  0.62124528548E+03  0.00000000000E+00 0.  1.
        -13    1    5    5    0    0 -0.85863833259E+02  0.76046160257E+01 -0.70801671307E+02  0.11154956166E+03  0.00000000000E+00 0. -1.
          3    1    6    6  503    0  0.69554977037E+01  0.21136260885E+02  0.25269108646E+02  0.33669694449E+02  0.00000000000E+00 0. -1.
         -3    1    6    6    0  503  0.26259285826E+03  0.53752600923E+02  0.76336564415E+02  0.27869629058E+03  0.00000000000E+00 0.  1.
<mgrwt>
<rscale>  0 0.13063027E+04</rscale>
<asrwt>0</asrwt>
<pdfrwt beam="1">  1        2 0.22990106E+00 0.13063027E+04</pdfrwt>
<pdfrwt beam="2">  1       -1 0.43919761E-01 0.13063027E+04</pdfrwt>
<totfact> 0.73138573E+01</totfact>
</mgrwt>
</event>
<event>
12    7  0.1729738E-007  0.2221215E+04  0.7818608E-02  0.8509649E-01
          2   -1    0    0  501    0  0.00000000000E+00  0.00000000000E+00  0.14847012589E+04  0.14847012589E+04  0.00000000000E+00 0. -1.
         -1   -1    0    0    0  501 -0.00000000000E+00 -0.00000000000E+00 -0.83077273706E+03  0.83077273706E+03  0.00000000000E+00 0.  1.
         24    2    1    2    0    0 -0.30605861088E+02 -0.49252545420E+03  0.10932244054E+04  0.12021369218E+04  0.80470717503E+02 0.  0.
        254    2    1    2    0    0  0.30605861088E+02  0.49252545420E+03 -0.43929588358E+03  0.11133370741E+04  0.89611412530E+03 0.  0.
         23    2    4    4    0    0 -0.29516459726E+03 -0.71607623169E+02  0.11710352147E+02  0.31605656102E+03  0.86630400228E+02 0.  0.
         23    2    4    4    0    0  0.32577045835E+03  0.56413307737E+03 -0.45100623573E+03  0.79728051313E+03  0.88752867180E+02 0.  0.
          4    1    3    3  502    0  0.33149259746E+01 -0.41794632678E+03  0.92294029159E+03  0.10131677564E+04  0.00000000000E+00 0. -1.
         -3    1    3    3    0  502 -0.33920787062E+02 -0.74579127422E+02  0.17028411379E+03  0.18896916535E+03  0.00000000000E+00 0.  1.
         13    1    5    5    0    0 -0.66623530712E+02 -0.36093372961E+01 -0.31412700590E+02  0.73746050190E+02  0.00000000000E+00 0. -1.
        -13    1    5    5    0    0 -0.22854106655E+03 -0.67998285873E+02  0.43123052737E+02  0.24231051083E+03  0.00000000000E+00 0.  1.
          4    1    6    6  503    0  0.44730451510E+02  0.78456155812E+02 -0.27937763856E+02  0.94534122551E+02  0.00000000000E+00 0. -1.
         -4    1    6    6    0  503  0.28104000684E+03  0.48567692156E+03 -0.42306847187E+03  0.70274639058E+03  0.00000000000E+00 0.  1.
<mgrwt>
<rscale>  0 0.22212153E+04</rscale>
<asrwt>0</asrwt>
<pdfrwt beam="1">  1        2 0.22841558E+00 0.22212153E+04</pdfrwt>
<pdfrwt beam="2">  1       -1 0.12781119E+00 0.22212153E+04</pdfrwt>
<totfact> 0.71254903E+00</totfact>
</mgrwt>
</event>
<event>
12    7  0.1729738E-007  0.1662425E+04  0.7818608E-02  0.8783090E-01
         -1   -1    0    0    0  501 -0.00000000000E+00  0.00000000000E+00  0.47864874399E+03  0.47864874399E+03  0.00000000000E+00 0.  1.
          2   -1    0    0  501    0  0.00000000000E+00 -0.00000000000E+00 -0.14434687312E+04  0.14434687312E+04  0.00000000000E+00 0. -1.
         24    2    1    2    0    0 -0.33979874409E+03 -0.28130308974E+03  0.10048545533E+03  0.45955920552E+03  0.80639456019E+02 0.  0.
        254    2    1    2    0    0  0.33979874409E+03  0.28130308974E+03 -0.10653054426E+04  0.14625582697E+04  0.89978130206E+03 0.  0.
         23    2    4    4    0    0 -0.12862229779E+03 -0.14353987561E+03 -0.68912600955E+03  0.72124881473E+03  0.90320564288E+02 0.  0.
         23    2    4    4    0    0  0.46842104188E+03  0.42484296535E+03 -0.37617943302E+03  0.74130945497E+03  0.90105074909E+02 0.  0.
          2    1    3    3  502    0 -0.11534538681E+03 -0.14656945427E+03  0.36181309805E+02  0.18999013228E+03  0.00000000000E+00 0. -1.
         -1    1    3    3    0  502 -0.22445335727E+03 -0.13473363547E+03  0.64304145520E+02  0.26956907324E+03  0.00000000000E+00 0.  1.
         13    1    5    5    0    0 -0.14446539478E+02 -0.16835224939E+02 -0.17360451872E+02  0.28169355527E+02  0.00000000000E+00 0. -1.
        -13    1    5    5    0    0 -0.11417575831E+03 -0.12670465068E+03 -0.67176555768E+03  0.69307945920E+03  0.00000000000E+00 0.  1.
          2    1    6    6  503    0  0.23164739791E+02  0.55643076444E+02 -0.39093676564E+02  0.71840606018E+02  0.00000000000E+00 0. -1.
         -2    1    6    6    0  503  0.44525630208E+03  0.36919988891E+03 -0.33708575646E+03  0.66946884895E+03  0.00000000000E+00 0.  1.
<mgrwt>
<rscale>  0 0.16624253E+04</rscale>
<asrwt>0</asrwt>
<pdfrwt beam="1">  1        2 0.22207211E+00 0.16624253E+04</pdfrwt>
<pdfrwt beam="2">  1       -1 0.73638270E-01 0.16624253E+04</pdfrwt>
<totfact> 0.27612289E+01</totfact>
</mgrwt>
</event>
<event>
12    7  0.1729738E-007  0.1854206E+04  0.7818608E-02  0.8677993E-01
          2   -1    0    0  501    0  0.00000000000E+00  0.00000000000E+00  0.11104523885E+04  0.11104523885E+04  0.00000000000E+00 0. -1.
         -1   -1    0    0    0  501 -0.00000000000E+00 -0.00000000000E+00 -0.77402708451E+03  0.77402708451E+03  0.00000000000E+00 0.  1.
         24    2    1    2    0    0  0.16927414879E+03  0.40496386067E+03 -0.43519505209E+03  0.62328378436E+03  0.80240118350E+02 0.  0.
        254    2    1    2    0    0 -0.16927414879E+03 -0.40496386067E+03  0.77162035612E+03  0.12611956887E+04  0.89586110826E+03 0.  0.
         23    2    4    4    0    0 -0.36435650200E+03 -0.49658043414E+03  0.21730875269E+03  0.65969462482E+03  0.92876885706E+02 0.  0.
         23    2    4    4    0    0  0.19508235321E+03  0.91616573469E+02  0.55431160342E+03  0.60150106387E+03  0.89952515684E+02 0.  0.
          2    1    3    3  502    0  0.76655979413E+02  0.25581007499E+03 -0.22332412010E+03  0.34812152514E+03  0.00000000000E+00 0. -1.
         -1    1    3    3    0  502  0.92618169378E+02  0.14915378568E+03 -0.21187093198E+03  0.27516225922E+03  0.00000000000E+00 0.  1.
         13    1    5    5    0    0 -0.88787805528E+02 -0.65020640094E+02  0.51295519623E+02  0.12141741383E+03  0.00000000000E+00 0.  1.
        -13    1    5    5    0    0 -0.27556869647E+03 -0.43155979404E+03  0.16601323307E+03  0.53827721098E+03  0.00000000000E+00 0. -1.
          3    1    6    6  503    0  0.19407703798E+03  0.70085208042E+02  0.53134082289E+03  0.57000079222E+03  0.00000000000E+00 0. -1.
         -3    1    6    6    0  503  0.10053152312E+01  0.21531365427E+02  0.22970780527E+02  0.31500271648E+02  0.00000000000E+00 0.  1.
<mgrwt>
<rscale>  0 0.18542063E+04</rscale>
<asrwt>0</asrwt>
<pdfrwt beam="1">  1        2 0.17083883E+00 0.18542063E+04</pdfrwt>
<pdfrwt beam="2">  1       -1 0.11908109E+00 0.18542063E+04</pdfrwt>
<totfact> 0.14518810E+01</totfact>
</mgrwt>
</event>
<event>
12    7  0.1729738E-007  0.3682055E+04  0.7818608E-02  0.8071950E-01
          2   -1    0    0  501    0  0.00000000000E+00  0.00000000000E+00  0.19904570617E+04  0.19904570617E+04  0.00000000000E+00 0. -1.
         -1   -1    0    0    0  501 -0.00000000000E+00 -0.00000000000E+00 -0.17028162370E+04  0.17028162370E+04  0.00000000000E+00 0.  1.
         24    2    1    2    0    0 -0.10385098338E+04 -0.27209552903E+03  0.15034805908E+04  0.18490963135E+04  0.78515207607E+02 0.  0.
        254    2    1    2    0    0  0.10385098338E+04  0.27209552903E+03 -0.12158397661E+04  0.18441769852E+04  0.87760114181E+03 0.  0.
         23    2    4    4    0    0  0.10574842828E+04  0.19363537799E+03 -0.63756593623E+03  0.12531793782E+04  0.90556959466E+02 0.  0.
         23    2    4    4    0    0 -0.18974449058E+02  0.78460151042E+02 -0.57827382987E+03  0.59099760697E+03  0.91441369801E+02 0.  0.
          4    1    3    3  502    0 -0.99388413536E+03 -0.27623528646E+03  0.14445655822E+04  0.17750722040E+04  0.00000000000E+00 0. -1.
         -3    1    3    3    0  502 -0.44625698424E+02  0.41397574254E+01  0.58915008591E+02  0.74024109509E+02  0.00000000000E+00 0.  1.
         13    1    5    5    0    0  0.11247624042E+03  0.48958540839E+02 -0.65213459569E+02  0.13892673857E+03  0.00000000000E+00 0.  1.
        -13    1    5    5    0    0  0.94500804242E+03  0.14467683715E+03 -0.57235247666E+03  0.11142526397E+04  0.00000000000E+00 0. -1.
          2    1    6    6  503    0 -0.36032758908E+02  0.90373740345E+02 -0.52224202902E+03  0.53122736143E+03  0.00000000000E+00 0. -1.
         -2    1    6    6    0  503  0.17058309851E+02 -0.11913589303E+02 -0.56031800848E+02  0.59770245535E+02  0.00000000000E+00 0.  1.
<mgrwt>
<rscale>  0 0.36820552E+04</rscale>
<asrwt>0</asrwt>
<pdfrwt beam="1">  1        2 0.30622416E+00 0.36820552E+04</pdfrwt>
<pdfrwt beam="2">  1       -1 0.26197173E+00 0.36820552E+04</pdfrwt>
<totfact> 0.36287625E-01</totfact>
</mgrwt>
</event>
<event>
12    7  0.1729738E-007  0.2139789E+04  0.7818608E-02  0.8543916E-01
          2   -1    0    0  501    0  0.00000000000E+00  0.00000000000E+00  0.20764078496E+04  0.20764078496E+04  0.00000000000E+00 0. -1.
         -1   -1    0    0    0  501 -0.00000000000E+00 -0.00000000000E+00 -0.55127627990E+03  0.55127627990E+03  0.00000000000E+00 0.  1.
         24    2    1    2    0    0 -0.18564469599E+03 -0.85176291260E+03  0.50283585224E+03  0.10094767281E+04  0.78964282165E+02 0.  0.
        254    2    1    2    0    0  0.18564469599E+03  0.85176291260E+03  0.10222957175E+04  0.16182074014E+04  0.90196599024E+03 0.  0.
         23    2    4    4    0    0  0.39887913163E+03  0.65797646589E+02  0.49149879256E+03  0.64227296421E+03  0.86657980152E+02 0.  0.
         23    2    4    4    0    0 -0.21323443565E+03  0.78596526601E+03  0.53079692490E+03  0.97593443717E+03  0.86558224689E+02 0.  0.
          4    1    3    3  502    0 -0.96243030381E+01 -0.54741884765E+02  0.11441424923E+02  0.56746870934E+02  0.00000000000E+00 0. -1.
         -3    1    3    3    0  502 -0.17602039295E+03 -0.79702102784E+03  0.49139442732E+03  0.95272985717E+03  0.00000000000E+00 0.  1.
         13    1    5    5    0    0  0.54173652301E+01  0.40578416189E+01 -0.29373121104E+01  0.73784637340E+01  0.00000000000E+00 0.  1.
        -13    1    5    5    0    0  0.39346176640E+03  0.61739804971E+02  0.49443610467E+03  0.63489450048E+03  0.00000000000E+00 0. -1.
          4    1    6    6  503    0 -0.85519843725E+02  0.46515249647E+03  0.32687999784E+03  0.57491827387E+03  0.00000000000E+00 0. -1.
         -4    1    6    6    0  503 -0.12771459192E+03  0.32081276954E+03  0.20391692706E+03  0.40101616331E+03  0.00000000000E+00 0.  1.
<mgrwt>
<rscale>  0 0.21397891E+04</rscale>
<asrwt>0</asrwt>
<pdfrwt beam="1">  1        2 0.31944736E+00 0.21397891E+04</pdfrwt>
<pdfrwt beam="2">  1       -1 0.84811736E-01 0.21397891E+04</pdfrwt>
<totfact> 0.87116846E+00</totfact>
</mgrwt>
</event>
<event>
12    7  0.1729738E-007  0.1826875E+04  0.7818608E-02  0.8692137E-01
          2   -1    0    0  501    0  0.00000000000E+00  0.00000000000E+00  0.18278884564E+04  0.18278884564E+04  0.00000000000E+00 0. -1.
         -1   -1    0    0    0  501 -0.00000000000E+00 -0.00000000000E+00 -0.45646540536E+03  0.45646540536E+03  0.00000000000E+00 0.  1.
         24    2    1    2    0    0  0.36532577094E+03 -0.93991692229E+02 -0.19810015403E+03  0.43328276083E+03  0.78695124924E+02 0.  0.
        254    2    1    2    0    0 -0.36532577094E+03  0.93991692229E+02  0.15695232050E+04  0.18510711009E+04  0.90596013836E+03 0.  0.
         23    2    4    4    0    0 -0.49879245621E+03 -0.26511877670E+03  0.10796485203E+04  0.12221474901E+04  0.94454645637E+02 0.  0.
         23    2    4    4    0    0  0.13346668527E+03  0.35911046893E+03  0.48987468478E+03  0.62892361081E+03  0.93776417500E+02 0.  0.
          4    1    3    3  502    0  0.11198753336E+03 -0.30157148189E+02 -0.21541456110E+02  0.11796056776E+03  0.00000000000E+00 0. -1.
         -3    1    3    3    0  502  0.25333823758E+03 -0.63834544040E+02 -0.17655869792E+03  0.31532219308E+03  0.00000000000E+00 0.  1.
         13    1    5    5    0    0 -0.49885703939E+03 -0.26619697703E+03  0.10507492633E+04  0.11932280548E+04  0.00000000000E+00 0.  1.
        -13    1    5    5    0    0  0.64583183403E-01  0.10782003308E+01  0.28899256923E+02  0.28919435292E+02  0.00000000000E+00 0. -1.
          4    1    6    6  503    0  0.33129632091E+02  0.18411753293E+02  0.64047563479E+02  0.74422144348E+02  0.00000000000E+00 0. -1.
         -4    1    6    6    0  503  0.10033705318E+03  0.34069871564E+03  0.42582712130E+03  0.55450146647E+03  0.00000000000E+00 0.  1.
<mgrwt>
<rscale>  0 0.18268748E+04</rscale>
<asrwt>0</asrwt>
<pdfrwt beam="1">  1        2 0.28121361E+00 0.18268748E+04</pdfrwt>
<pdfrwt beam="2">  1       -1 0.70225448E-01 0.18268748E+04</pdfrwt>
<totfact> 0.18309805E+01</totfact>
</mgrwt>
</event>
<event>
12    7  0.1729738E-007  0.2369844E+04  0.7818608E-02  0.8450881E-01
         -1   -1    0    0    0  501 -0.00000000000E+00  0.00000000000E+00  0.53065688629E+03  0.53065688629E+03  0.00000000000E+00 0.  1.
          2   -1    0    0  501    0  0.00000000000E+00 -0.00000000000E+00 -0.26458521269E+04  0.26458521269E+04  0.00000000000E+00 0. -1.
         24    2    1    2    0    0  0.22042049449E+03  0.56721256436E+03 -0.19786880427E+04  0.20717241137E+04  0.80741223089E+02 0.  0.
        254    2    1    2    0    0 -0.22042049449E+03 -0.56721256436E+03 -0.13650719784E+03  0.11047848995E+04  0.91192114326E+03 0.  0.
         23    2    4    4    0    0 -0.46141163655E+03 -0.42212693335E+03  0.19438412275E+03  0.66131266365E+03  0.91964154577E+02 0.  0.
         23    2    4    4    0    0  0.24099114206E+03 -0.14508563102E+03 -0.33089132059E+03  0.44347223584E+03  0.89732864876E+02 0.  0.
          2    1    3    3  502    0  0.19078695158E+03  0.53584764072E+03 -0.17915827086E+04  0.18797076786E+04  0.00000000000E+00 0. -1.
         -1    1    3    3    0  502  0.29633542916E+02  0.31364923643E+02 -0.18710533411E+03  0.19201643512E+03  0.00000000000E+00 0.  1.
         13    1    5    5    0    0 -0.45896430476E+03 -0.39847539024E+03  0.19201475684E+03  0.63741708207E+03  0.00000000000E+00 0.  1.
        -13    1    5    5    0    0 -0.24473317895E+01 -0.23651543107E+02  0.23693659102E+01  0.23895581580E+02  0.00000000000E+00 0. -1.
          2    1    6    6  503    0 -0.63830958881E+01 -0.70158021562E+01 -0.24032212545E+02  0.25836265845E+02  0.00000000000E+00 0. -1.
         -2    1    6    6    0  503  0.24737423795E+03 -0.13806982886E+03 -0.30685910804E+03  0.41763596999E+03  0.00000000000E+00 0.  1.
<mgrwt>
<rscale>  0 0.23698436E+04</rscale>
<asrwt>0</asrwt>
<pdfrwt beam="1">  1        2 0.40705418E+00 0.23698436E+04</pdfrwt>
<pdfrwt beam="2">  1       -1 0.81639521E-01 0.23698436E+04</pdfrwt>
<totfact> 0.43801119E+00</totfact>
</mgrwt>
</event>
<event>
12    7  0.1729738E-007  0.1917927E+04  0.7818608E-02  0.8645984E-01
         -1   -1    0    0    0  501 -0.00000000000E+00  0.00000000000E+00  0.68183943166E+03  0.68183943166E+03  0.00000000000E+00 0.  1.
          2   -1    0    0  501    0  0.00000000000E+00 -0.00000000000E+00 -0.13487202159E+04  0.13487202159E+04  0.00000000000E+00 0. -1.
         24    2    1    2    0    0 -0.84730272528E+02  0.55092503418E+03 -0.78223952204E+03  0.96391998539E+03  0.80903992586E+02 0.  0.
        254    2    1    2    0    0  0.84730272528E+02 -0.55092503418E+03  0.11535873784E+03  0.10666396621E+04  0.90206148243E+03 0.  0.
         23    2    4    4    0    0 -0.30884866647E+03  0.59779215597E+02  0.22202107764E+02  0.32844129049E+03  0.91758892282E+02 0.  0.
         23    2    4    4    0    0  0.39357893900E+03 -0.61070424978E+03  0.93156630073E+02  0.73819837166E+03  0.91622138526E+02 0.  0.
          4    1    3    3  502    0 -0.41201818290E+02  0.34920986211E+03 -0.55450599061E+03  0.65659882062E+03  0.00000000000E+00 0. -1.
         -3    1    3    3    0  502 -0.43528454238E+02  0.20171517208E+03 -0.22773353143E+03  0.30732116477E+03  0.00000000000E+00 0.  1.
         13    1    5    5    0    0 -0.60939556813E+02  0.36545515898E+01  0.41040098181E+02  0.73561368874E+02  0.00000000000E+00 0. -1.
        -13    1    5    5    0    0 -0.24790910965E+03  0.56124664007E+02 -0.18837990417E+02  0.25487992162E+03  0.00000000000E+00 0.  1.
          1    1    6    6  503    0  0.19513825618E+01 -0.27073704144E+02 -0.75422348695E+01  0.28172303008E+02  0.00000000000E+00 0. -1.
         -1    1    6    6    0  503  0.39162755643E+03 -0.58363054564E+03  0.10069886494E+03  0.71002606865E+03  0.00000000000E+00 0.  1.
<mgrwt>
<rscale>  0 0.19179266E+04</rscale>
<asrwt>0</asrwt>
<pdfrwt beam="1">  1        2 0.20749542E+00 0.19179266E+04</pdfrwt>
<pdfrwt beam="2">  1       -1 0.10489838E+00 0.19179266E+04</pdfrwt>
<totfact> 0.14088479E+01</totfact>
</mgrwt>
</event>
<event>
12    7  0.1729738E-007  0.1940727E+04  0.7818608E-02  0.8634845E-01
          2   -1    0    0  501    0  0.00000000000E+00  0.00000000000E+00  0.11952740709E+04  0.11952740709E+04  0.00000000000E+00 0. -1.
         -1   -1    0    0    0  501 -0.00000000000E+00 -0.00000000000E+00 -0.78777337177E+03  0.78777337177E+03  0.00000000000E+00 0.  1.
         24    2    1    2    0    0 -0.72003525777E+03 -0.19471620279E+03  0.55506770170E+01  0.75018885336E+03  0.79920796004E+02 0.  0.
        254    2    1    2    0    0  0.72003525777E+03  0.19471620279E+03  0.40195002216E+03  0.12328585894E+04  0.89555084109E+03 0.  0.
         23    2    4    4    0    0  0.75479527070E+03  0.39670749134E+03  0.49527364124E+03  0.99013085186E+03  0.89277039313E+02 0.  0.
         23    2    4    4    0    0 -0.34760012930E+02 -0.20199128855E+03 -0.93323619078E+02  0.24272773750E+03  0.90546769827E+02 0.  0.
          2    1    3    3  502    0 -0.61199404063E+03 -0.14695444676E+03  0.27713726129E+02  0.63000029033E+03  0.00000000000E+00 0. -1.
         -1    1    3    3    0  502 -0.10804121713E+03 -0.47761756023E+02 -0.22163049112E+02  0.12018856303E+03  0.00000000000E+00 0.  1.
         13    1    5    5    0    0  0.25738464144E+03  0.13284799436E+03  0.21788906875E+03  0.36245149956E+03  0.00000000000E+00 0. -1.
        -13    1    5    5    0    0  0.49741062926E+03  0.26385949698E+03  0.27738457248E+03  0.62767935229E+03  0.00000000000E+00 0.  1.
          2    1    6    6  503    0 -0.10357551373E+02 -0.12927621575E+03 -0.10916130569E+02  0.13014907121E+03  0.00000000000E+00 0. -1.
         -2    1    6    6    0  503 -0.24402461558E+02 -0.72715072795E+02 -0.82407488510E+02  0.11257866629E+03  0.00000000000E+00 0.  1.
<mgrwt>
<rscale>  0 0.19407268E+04</rscale>
<asrwt>0</asrwt>
<pdfrwt beam="1">  1        2 0.18388832E+00 0.19407268E+04</pdfrwt>
<pdfrwt beam="2">  1       -1 0.12119590E+00 0.19407268E+04</pdfrwt>
<totfact> 0.12261197E+01</totfact>
</mgrwt>
</event>
<event>
12    7  0.1729738E-007  0.1217038E+04  0.7818608E-02  0.9098072E-01
          2   -1    0    0  501    0  0.00000000000E+00  0.00000000000E+00  0.79497190211E+03  0.79497190211E+03  0.00000000000E+00 0. -1.
         -1   -1    0    0    0  501 -0.00000000000E+00 -0.00000000000E+00 -0.46579714601E+03  0.46579714601E+03  0.00000000000E+00 0.  1.
         24    2    1    2    0    0  0.12096792137E+03  0.35123186984E+02 -0.17495400040E+03  0.23023942131E+03  0.80835713675E+02 0.  0.
        254    2    1    2    0    0 -0.12096792137E+03 -0.35123186984E+02  0.50412875650E+03  0.10305296268E+04  0.88993181331E+03 0.  0.
         23    2    4    4    0    0 -0.47769644211E+03 -0.13706851825E+02  0.12629136003E+03  0.50264976401E+03  0.91244227489E+02 0.  0.
         23    2    4    4    0    0  0.35672852074E+03 -0.21416335159E+02  0.37783739647E+03  0.52787986280E+03  0.90455262183E+02 0.  0.
          4    1    3    3  502    0  0.54201953246E+02 -0.10965105526E+02 -0.12034906040E+03  0.13244614609E+03  0.00000000000E+00 0. -1.
         -3    1    3    3    0  502  0.66765968125E+02  0.46088292510E+02 -0.54604940000E+02  0.97793275222E+02  0.00000000000E+00 0.  1.
         13    1    5    5    0    0 -0.74472255302E+02 -0.34720169527E+02  0.30710214958E+02  0.87719577544E+02  0.00000000000E+00 0. -1.
        -13    1    5    5    0    0 -0.40322418681E+03  0.21013317702E+02  0.95581145073E+02  0.41493018647E+03  0.00000000000E+00 0.  1.
          3    1    6    6  503    0  0.45024669434E+02 -0.34406600841E+02  0.58361209304E+02  0.81345348917E+02  0.00000000000E+00 0. -1.
         -3    1    6    6    0  503  0.31170385130E+03  0.12990265682E+02  0.31947618717E+03  0.44653451388E+03  0.00000000000E+00 0.  1.
<mgrwt>
<rscale>  0 0.12170384E+04</rscale>
<asrwt>0</asrwt>
<pdfrwt beam="1">  1        2 0.12230337E+00 0.12170384E+04</pdfrwt>
<pdfrwt beam="2">  1       -1 0.71661100E-01 0.12170384E+04</pdfrwt>
<totfact> 0.76864253E+01</totfact>
</mgrwt>
</event>
<event>
12    7  0.1729738E-007  0.1316100E+04  0.7818608E-02  0.9016894E-01
         -1   -1    0    0    0  501 -0.00000000000E+00  0.00000000000E+00  0.68993298690E+03  0.68993298690E+03  0.00000000000E+00 0.  1.
          2   -1    0    0  501    0  0.00000000000E+00 -0.00000000000E+00 -0.62764028582E+03  0.62764028582E+03  0.00000000000E+00 0. -1.
         24    2    1    2    0    0  0.23491611888E+03  0.12017569029E+03 -0.19714147587E+03  0.33927265204E+03  0.81322761068E+02 0.  0.
        254    2    1    2    0    0 -0.23491611888E+03 -0.12017569029E+03  0.25943417695E+03  0.97830062068E+03  0.90561483690E+03 0.  0.
         23    2    4    4    0    0  0.23346444557E+03 -0.17491122851E+03 -0.15570943579E+03  0.34286460964E+03  0.90615268813E+02 0.  0.
         23    2    4    4    0    0 -0.46838056444E+03  0.54735538227E+02  0.41514361274E+03  0.63543601104E+03  0.95175483376E+02 0.  0.
          2    1    3    3  502    0  0.21116903387E+03  0.13256751921E+03 -0.17808824410E+03  0.30640158404E+03  0.00000000000E+00 0. -1.
         -1    1    3    3    0  502  0.23747085007E+02 -0.12391828924E+02 -0.19053231778E+02  0.32871068002E+02  0.00000000000E+00 0.  1.
         13    1    5    5    0    0  0.61442628571E+02 -0.77949494063E+02 -0.92109332371E+02  0.13540845373E+03  0.00000000000E+00 0.  1.
        -13    1    5    5    0    0  0.17202181700E+03 -0.96961734450E+02 -0.63600103423E+02  0.20745615591E+03  0.00000000000E+00 0. -1.
          2    1    6    6  503    0 -0.44719312476E+02  0.10596976588E+02  0.88867637684E+01  0.46809052451E+02  0.00000000000E+00 0. -1.
         -2    1    6    6    0  503 -0.42366125197E+03  0.44138561639E+02  0.40625684897E+03  0.58862695859E+03  0.00000000000E+00 0.  1.
<mgrwt>
<rscale>  0 0.13160999E+04</rscale>
<asrwt>0</asrwt>
<pdfrwt beam="1">  1        2 0.96560045E-01 0.13160999E+04</pdfrwt>
<pdfrwt beam="2">  1       -1 0.10614354E+00 0.13160999E+04</pdfrwt>
<totfact> 0.43617609E+01</totfact>
</mgrwt>
</event>
<event>
12    7  0.1729738E-007  0.1430956E+04  0.7818608E-02  0.8931711E-01
         -1   -1    0    0    0  501 -0.00000000000E+00  0.00000000000E+00  0.23201811395E+03  0.23201811395E+03  0.00000000000E+00 0.  1.
          2   -1    0    0  501    0  0.00000000000E+00 -0.00000000000E+00 -0.22063310218E+04  0.22063310218E+04  0.00000000000E+00 0. -1.
         24    2    1    2    0    0  0.40488563160E+03 -0.73067298342E+02 -0.82289413387E+03  0.92295514173E+03  0.73622233812E+02 0.  0.
        254    2    1    2    0    0 -0.40488563160E+03  0.73067298342E+02 -0.11514187740E+04  0.15153939940E+04  0.89519973150E+03 0.  0.
         23    2    4    4    0    0  0.27055919995E+03  0.81280925138E+02 -0.27488278614E+03  0.40495949893E+03  0.92858926286E+02 0.  0.
         23    2    4    4    0    0 -0.67544483155E+03 -0.82136267960E+01 -0.87653598783E+03  0.11104344951E+04  0.91957847801E+02 0.  0.
          2    1    3    3  502    0  0.14746447871E+03 -0.47192694540E+02 -0.37502738716E+03  0.40573201009E+03  0.00000000000E+00 0. -1.
         -1    1    3    3    0  502  0.25742115290E+03 -0.25874603802E+02 -0.44786674672E+03  0.51722313163E+03  0.00000000000E+00 0.  1.
         13    1    5    5    0    0  0.20877940230E+02 -0.12345115797E+01 -0.65683745358E+02  0.68933060366E+02  0.00000000000E+00 0.  1.
        -13    1    5    5    0    0  0.24968125972E+03  0.82515436718E+02 -0.20919904078E+03  0.33602643856E+03  0.00000000000E+00 0. -1.
          4    1    6    6  503    0 -0.13849777322E+03  0.35320740563E+01 -0.24451427524E+03  0.28103618901E+03  0.00000000000E+00 0. -1.
         -4    1    6    6    0  503 -0.53694705833E+03 -0.11745700852E+02 -0.63202171259E+03  0.82939830608E+03  0.00000000000E+00 0.  1.
<mgrwt>
<rscale>  0 0.14309560E+04</rscale>
<asrwt>0</asrwt>
<pdfrwt beam="1">  1        2 0.33943554E+00 0.14309560E+04</pdfrwt>
<pdfrwt beam="2">  1       -1 0.35695095E-01 0.14309560E+04</pdfrwt>
<totfact> 0.42493427E+01</totfact>
</mgrwt>
</event>
<event>
12    7  0.1729738E-007  0.1828462E+04  0.7818608E-02  0.8691309E-01
          2   -1    0    0  501    0  0.00000000000E+00  0.00000000000E+00  0.76637460517E+03  0.76637460517E+03  0.00000000000E+00 0. -1.
         -1   -1    0    0    0  501 -0.00000000000E+00 -0.00000000000E+00 -0.10906127291E+04  0.10906127291E+04  0.00000000000E+00 0.  1.
         24    2    1    2    0    0  0.11289748254E+03 -0.40612566196E+03  0.43053555567E+03  0.60795339865E+03  0.81009723914E+02 0.  0.
        254    2    1    2    0    0 -0.11289748254E+03  0.40612566196E+03 -0.75477367963E+03  0.12490339356E+04  0.90150905157E+03 0.  0.
         23    2    4    4    0    0  0.13374661775E+02  0.60696375517E+03 -0.21230574151E+03  0.64995273509E+03  0.93706714283E+02 0.  0.
         23    2    4    4    0    0 -0.12627214431E+03 -0.20083809321E+03 -0.54246793813E+03  0.59908120056E+03  0.91357686343E+02 0.  0.
          2    1    3    3  502    0  0.41816178809E+02 -0.28680689909E+03  0.30479553823E+03  0.42060326949E+03  0.00000000000E+00 0. -1.
         -1    1    3    3    0  502  0.71081303730E+02 -0.11931876287E+03  0.12574001744E+03  0.18735012916E+03  0.00000000000E+00 0.  1.
         13    1    5    5    0    0  0.26135736328E+00  0.18428531987E+03 -0.11090422858E+03  0.21508346134E+03  0.00000000000E+00 0. -1.
        -13    1    5    5    0    0  0.13113304411E+02  0.42267843531E+03 -0.10140151293E+03  0.43486927375E+03  0.00000000000E+00 0.  1.
          3    1    6    6  503    0 -0.65579313962E+01 -0.25889988797E+02 -0.15619757068E+03  0.15846444102E+03  0.00000000000E+00 0. -1.
         -3    1    6    6    0  503 -0.11971421292E+03 -0.17494810441E+03 -0.38627036745E+03  0.44061675953E+03  0.00000000000E+00 0.  1.
<mgrwt>
<rscale>  0 0.18284615E+04</rscale>
<asrwt>0</asrwt>
<pdfrwt beam="1">  1        2 0.11790379E+00 0.18284615E+04</pdfrwt>
<pdfrwt beam="2">  1       -1 0.16778657E+00 0.18284615E+04</pdfrwt>
<totfact> 0.10015877E+01</totfact>
</mgrwt>
</event>
<event>
12    7  0.1729738E-007  0.1731163E+04  0.7818608E-02  0.8743788E-01
          2   -1    0    0  501    0  0.00000000000E+00  0.00000000000E+00  0.23612709247E+04  0.23612709247E+04  0.00000000000E+00 0. -1.
         -1   -1    0    0    0  501 -0.00000000000E+00 -0.00000000000E+00 -0.31730015332E+03  0.31730015332E+03  0.00000000000E+00 0.  1.
         24    2    1    2    0    0  0.20996161026E+03  0.60021187510E+03  0.67212816172E+03  0.92873915679E+03  0.80386458983E+02 0.  0.
        254    2    1    2    0    0 -0.20996161026E+03 -0.60021187510E+03  0.13718426096E+04  0.17498319212E+04  0.88069372321E+03 0.  0.
         23    2    4    4    0    0  0.62958245785E+02 -0.74538037381E+03  0.84456778716E+03  0.11318663185E+04  0.90944892268E+02 0.  0.
         23    2    4    4    0    0 -0.27291985605E+03  0.14516849871E+03  0.52727482248E+03  0.61796560274E+03  0.91124129103E+02 0.  0.
          2    1    3    3  502    0  0.18779136803E+03  0.51952145071E+03  0.61881686466E+03  0.82951940763E+03  0.00000000000E+00 0. -1.
         -1    1    3    3    0  502  0.22170242228E+02  0.80690424388E+02  0.53311297060E+02  0.99219749156E+02  0.00000000000E+00 0.  1.
         13    1    5    5    0    0  0.55816571759E+02 -0.19908102463E+03  0.24933234497E+03  0.32390640979E+03  0.00000000000E+00 0. -1.
        -13    1    5    5    0    0  0.71416740256E+01 -0.54629934918E+03  0.59523544219E+03  0.80795990870E+03  0.00000000000E+00 0.  1.
          2    1    6    6  503    0 -0.91551106328E+02  0.32517877428E+02  0.24855397832E+03  0.26686719087E+03  0.00000000000E+00 0. -1.
         -2    1    6    6    0  503 -0.18136874972E+03  0.11265062129E+03  0.27872084416E+03  0.35109841187E+03  0.00000000000E+00 0.  1.
<mgrwt>
<rscale>  0 0.17311633E+04</rscale>
<asrwt>0</asrwt>
<pdfrwt beam="1">  1        2 0.36327244E+00 0.17311633E+04</pdfrwt>
<pdfrwt beam="2">  1       -1 0.48815410E-01 0.17311633E+04</pdfrwt>
<totfact> 0.19016337E+01</totfact>
</mgrwt>
</event>
<event>
12    7  0.1729738E-007  0.1683565E+04  0.7818608E-02  0.8770794E-01
         -1   -1    0    0    0  501 -0.00000000000E+00  0.00000000000E+00  0.54192638126E+03  0.54192638126E+03  0.00000000000E+00 0.  1.
          2   -1    0    0  501    0  0.00000000000E+00 -0.00000000000E+00 -0.13075541165E+04  0.13075541165E+04  0.00000000000E+00 0. -1.
         24    2    1    2    0    0  0.27211823291E+03 -0.18566218128E+03  0.27003250358E+03  0.43335404686E+03  0.79745838130E+02 0.  0.
        254    2    1    2    0    0 -0.27211823291E+03  0.18566218128E+03 -0.10356602388E+04  0.14161264509E+04  0.90791145847E+03 0.  0.
         23    2    4    4    0    0  0.18318795438E+03  0.35434668084E+03 -0.22577543254E+03  0.46750345053E+03  0.92008333686E+02 0.  0.
         23    2    4    4    0    0 -0.45530618729E+03 -0.16868449956E+03 -0.80988480628E+03  0.94862300037E+03  0.90631191158E+02 0.  0.
          2    1    3    3  502    0  0.18518512500E+03 -0.12938256868E+03  0.13495689164E+03  0.26314775736E+03  0.00000000000E+00 0. -1.
         -1    1    3    3    0  502  0.86933107910E+02 -0.56279612593E+02  0.13507561194E+03  0.17020628950E+03  0.00000000000E+00 0.  1.
         13    1    5    5    0    0  0.53105819930E+02  0.11325684626E+03 -0.12150146376E+03  0.17438448048E+03  0.00000000000E+00 0. -1.
        -13    1    5    5    0    0  0.13008213445E+03  0.24108983457E+03 -0.10427396878E+03  0.29311897005E+03  0.00000000000E+00 0.  1.
          3    1    6    6  503    0 -0.24705130950E+03 -0.98462866134E+02 -0.35642381019E+03  0.44471026298E+03  0.00000000000E+00 0. -1.
         -3    1    6    6    0  503 -0.20825487779E+03 -0.70221633424E+02 -0.45346099609E+03  0.50391273738E+03  0.00000000000E+00 0.  1.
<mgrwt>
<rscale>  0 0.16835653E+04</rscale>
<asrwt>0</asrwt>
<pdfrwt beam="1">  1        2 0.20116217E+00 0.16835653E+04</pdfrwt>
<pdfrwt beam="2">  1       -1 0.83373290E-01 0.16835653E+04</pdfrwt>
<totfact> 0.25375776E+01</totfact>
</mgrwt>
</event>
<event>
12    7  0.1729738E-007  0.1811146E+04  0.7818608E-02  0.8700395E-01
          2   -1    0    0  501    0  0.00000000000E+00  0.00000000000E+00  0.23141680976E+04  0.23141680976E+04  0.00000000000E+00 0. -1.
         -1   -1    0    0    0  501 -0.00000000000E+00 -0.00000000000E+00 -0.35436584924E+03  0.35436584924E+03  0.00000000000E+00 0.  1.
         24    2    1    2    0    0  0.47858394153E+03  0.30920709206E+03  0.19540388453E+03  0.60758005401E+03  0.79493578820E+02 0.  0.
        254    2    1    2    0    0 -0.47858394153E+03 -0.30920709206E+03  0.17643983639E+04  0.20609538929E+04  0.89987651776E+03 0.  0.
         23    2    4    4    0    0 -0.62308999531E+03 -0.42751514167E+03  0.93315828206E+03  0.12039150293E+04  0.87273591040E+02 0.  0.
         23    2    4    4    0    0  0.14450605378E+03  0.11830804961E+03  0.83124008180E+03  0.85703886360E+03  0.93149052267E+02 0.  0.
          4    1    3    3  502    0  0.80043978873E+02  0.89672847574E+02  0.45340084614E+02  0.12846782250E+03  0.00000000000E+00 0. -1.
         -3    1    3    3    0  502  0.39853996266E+03  0.21953424448E+03  0.15006379992E+03  0.47911223151E+03  0.00000000000E+00 0.  1.
         13    1    5    5    0    0 -0.62456002090E+02 -0.65134017607E+02  0.79732610561E+02  0.12041794565E+03  0.00000000000E+00 0.  1.
        -13    1    5    5    0    0 -0.56063399322E+03 -0.36238112406E+03  0.85342567150E+03  0.10834970836E+04  0.00000000000E+00 0. -1.
          4    1    6    6  503    0  0.15677809227E+03  0.11158307928E+03  0.79981932573E+03  0.82264275819E+03  0.00000000000E+00 0. -1.
         -4    1    6    6    0  503 -0.12272038492E+02  0.67249703350E+01  0.31420756075E+02  0.34396105406E+02  0.00000000000E+00 0.  1.
<mgrwt>
<rscale>  0 0.18111457E+04</rscale>
<asrwt>0</asrwt>
<pdfrwt beam="1">  1        2 0.35602585E+00 0.18111457E+04</pdfrwt>
<pdfrwt beam="2">  1       -1 0.54517825E-01 0.18111457E+04</pdfrwt>
<totfact> 0.16253651E+01</totfact>
</mgrwt>
</event>
<event>
12    7  0.1729738E-007  0.1240066E+04  0.7818608E-02  0.9078492E-01
         -1   -1    0    0    0  501 -0.00000000000E+00  0.00000000000E+00  0.32702503984E+03  0.32702503984E+03  0.00000000000E+00 0.  1.
          2   -1    0    0  501    0  0.00000000000E+00 -0.00000000000E+00 -0.11755711599E+04  0.11755711599E+04  0.00000000000E+00 0. -1.
         24    2    1    2    0    0 -0.11495884917E+03 -0.16672186197E+03 -0.62565609316E+03  0.66230799357E+03  0.78705877655E+02 0.  0.
        254    2    1    2    0    0  0.11495884917E+03  0.16672186197E+03 -0.22289002690E+03  0.84028820617E+03  0.78446962279E+03 0.  0.
         23    2    4    4    0    0  0.10555776898E+03  0.41112583215E+03 -0.34375596678E+03  0.55394193054E+03  0.92285455319E+02 0.  0.
         23    2    4    4    0    0  0.94010801852E+01 -0.24440397018E+03  0.12086593988E+03  0.28634627563E+03  0.86970875555E+02 0.  0.
          2    1    3    3  502    0 -0.38641800881E+02 -0.49698677250E+02 -0.32141932244E+03  0.32752637776E+03  0.00000000000E+00 0. -1.
         -3    1    3    3    0  502 -0.76317048288E+02 -0.11702318472E+03 -0.30423677073E+03  0.33478161581E+03  0.00000000000E+00 0.  1.
         13    1    5    5    0    0  0.56345571458E+02  0.31266160969E+03 -0.21052907609E+03  0.38112281154E+03  0.00000000000E+00 0. -1.
        -13    1    5    5    0    0  0.49212197526E+02  0.98464222455E+02 -0.13322689069E+03  0.17281911900E+03  0.00000000000E+00 0.  1.
          4    1    6    6  503    0 -0.36323612761E+00 -0.24669349545E+03  0.12363625347E+03  0.27594154419E+03  0.00000000000E+00 0. -1.
         -4    1    6    6    0  503  0.97643163128E+01  0.22895252671E+01 -0.27703135879E+01  0.10404731442E+02  0.00000000000E+00 0.  1.
<mgrwt>
<rscale>  0 0.12400665E+04</rscale>
<asrwt>0</asrwt>
<pdfrwt beam="1">  1        2 0.18085710E+00 0.12400665E+04</pdfrwt>
<pdfrwt beam="2">  1       -1 0.50311545E-01 0.12400665E+04</pdfrwt>
<totfact> 0.87173903E+01</totfact>
</mgrwt>
</event>
<event>
12    7  0.1729738E-007  0.1466496E+04  0.7818608E-02  0.8907044E-01
         -1   -1    0    0    0  501 -0.00000000000E+00  0.00000000000E+00  0.21021720944E+03  0.21021720944E+03  0.00000000000E+00 0.  1.
          2   -1    0    0  501    0  0.00000000000E+00 -0.00000000000E+00 -0.25576043379E+04  0.25576043379E+04  0.00000000000E+00 0. -1.
         24    2    1    2    0    0 -0.27790580233E+03  0.34899671370E+03 -0.78626671319E+03  0.90924638099E+03  0.97382215723E+02 0.  0.
        254    2    1    2    0    0  0.27790580233E+03 -0.34899671370E+03 -0.15611204153E+04  0.18585751663E+04  0.90452990929E+03 0.  0.
         23    2    4    4    0    0 -0.12235199910E+03 -0.52341440753E+03 -0.68830178118E+03  0.87843338657E+03  0.94621450900E+02 0.  0.
         23    2    4    4    0    0  0.40025780143E+03  0.17441769382E+03 -0.87281863407E+03  0.98014177975E+03  0.90761781115E+02 0.  0.
          2    1    3    3  502    0 -0.12781475695E+03  0.19422788060E+03 -0.32003010080E+03  0.39557596883E+03  0.00000000000E+00 0. -1.
         -1    1    3    3    0  502 -0.15009104538E+03  0.15476883310E+03 -0.46623661239E+03  0.51367041216E+03  0.00000000000E+00 0.  1.
         13    1    5    5    0    0  0.12107446260E+02 -0.18964662551E+02 -0.41712791267E+02  0.47394151916E+02  0.00000000000E+00 0.  1.
        -13    1    5    5    0    0 -0.13445944536E+03 -0.50444974497E+03 -0.64658898992E+03  0.83103923465E+03  0.00000000000E+00 0. -1.
          1    1    6    6  503    0  0.32094713394E+03  0.15020419771E+03 -0.62060944767E+03  0.71464987955E+03  0.00000000000E+00 0. -1.
         -1    1    6    6    0  503  0.79310667492E+02  0.24213496109E+02 -0.25220918640E+03  0.26549190021E+03  0.00000000000E+00 0.  1.
<mgrwt>
<rscale>  0 0.14664958E+04</rscale>
<asrwt>0</asrwt>
<pdfrwt beam="1">  1        2 0.39347760E+00 0.14664958E+04</pdfrwt>
<pdfrwt beam="2">  1       -1 0.32341108E-01 0.14664958E+04</pdfrwt>
<totfact> 0.31873698E+01</totfact>
</mgrwt>
</event>
<event>
12    7  0.1729738E-007  0.2763977E+04  0.7818608E-02  0.8314540E-01
          2   -1    0    0  501    0  0.00000000000E+00  0.00000000000E+00  0.29623607479E+04  0.29623607479E+04  0.00000000000E+00 0. -1.
         -1   -1    0    0    0  501 -0.00000000000E+00 -0.00000000000E+00 -0.64471949954E+03  0.64471949954E+03  0.00000000000E+00 0.  1.
         24    2    1    2    0    0 -0.90529540053E+03 -0.81095298362E+03  0.72254168392E+03  0.14161744076E+04  0.79239913327E+02 0.  0.
        254    2    1    2    0    0  0.90529540053E+03  0.81095298362E+03  0.15950995644E+04  0.21909058398E+04  0.88233852613E+03 0.  0.
         23    2    4    4    0    0  0.78706438322E+03  0.30216209597E+03  0.13774517649E+04  0.16176237481E+04  0.92525402787E+02 0.  0.
         23    2    4    4    0    0  0.11823101730E+03  0.50879088765E+03  0.21764779950E+03  0.57328209173E+03  0.91842535128E+02 0.  0.
          2    1    3    3  502    0 -0.69154933507E+03 -0.59140927759E+03  0.57181730387E+03  0.10747001654E+04  0.00000000000E+00 0. -1.
         -1    1    3    3    0  502 -0.21374606545E+03 -0.21954370604E+03  0.15072438005E+03  0.34147424222E+03  0.00000000000E+00 0.  1.
         13    1    5    5    0    0  0.51850251289E+03  0.15986609259E+03  0.83426105669E+03  0.99518517581E+03  0.00000000000E+00 0.  1.
        -13    1    5    5    0    0  0.26856187033E+03  0.14229600338E+03  0.54319070821E+03  0.62243857228E+03  0.00000000000E+00 0. -1.
          3    1    6    6  503    0  0.86468920927E+02  0.17903879266E+03  0.73038932368E+02  0.21181701821E+03  0.00000000000E+00 0. -1.
         -3    1    6    6    0  503  0.31762096376E+02  0.32975209499E+03  0.14460886714E+03  0.36146507351E+03  0.00000000000E+00 0.  1.
<mgrwt>
<rscale>  0 0.27639767E+04</rscale>
<asrwt>0</asrwt>
<pdfrwt beam="1">  1        2 0.45574780E+00 0.27639767E+04</pdfrwt>
<pdfrwt beam="2">  1       -1 0.99187617E-01 0.27639767E+04</pdfrwt>
<totfact> 0.17699247E+00</totfact>
</mgrwt>
</event>
<event>
12    7  0.1729738E-007  0.2132220E+04  0.7818608E-02  0.8547181E-01
         -3   -1    0    0    0  501 -0.00000000000E+00  0.00000000000E+00  0.59254022232E+03  0.59254022232E+03  0.00000000000E+00 0.  1.
          2   -1    0    0  501    0  0.00000000000E+00 -0.00000000000E+00 -0.19181668056E+04  0.19181668056E+04  0.00000000000E+00 0. -1.
         24    2    1    2    0    0  0.64411284434E+03 -0.28433320852E+02 -0.12465684426E+04  0.14055692999E+04  0.77474929542E+02 0.  0.
        254    2    1    2    0    0 -0.64411284434E+03  0.28433320852E+02 -0.79058140641E+02  0.11051377280E+04  0.89408578910E+03 0.  0.
         23    2    4    4    0    0 -0.51048836220E+03  0.30602910084E+03 -0.34070182502E+03  0.69176159212E+03  0.90576974204E+02 0.  0.
         23    2    4    4    0    0 -0.13362448214E+03 -0.27759577999E+03  0.26164368438E+03  0.41337613589E+03  0.86645789584E+02 0.  0.
          2    1    3    3  502    0  0.42257101769E+03 -0.26294283279E+02 -0.89364567283E+03  0.98886816255E+03  0.00000000000E+00 0. -1.
         -1    1    3    3    0  502  0.22154182665E+03 -0.21390375727E+01 -0.35292276977E+03  0.41670113734E+03  0.00000000000E+00 0.  1.
         13    1    5    5    0    0 -0.48925366056E+03  0.26795297637E+03 -0.30752817621E+03  0.63697843062E+03  0.00000000000E+00 0. -1.
        -13    1    5    5    0    0 -0.21234701645E+02  0.38076124464E+02 -0.33173648807E+02  0.54783161494E+02  0.00000000000E+00 0.  1.
          4    1    6    6  503    0 -0.96594956161E+02 -0.25983780411E+03  0.24141542415E+03  0.36759716677E+03  0.00000000000E+00 0. -1.
         -4    1    6    6    0  503 -0.37029525981E+02 -0.17757975876E+02  0.20228260231E+02  0.45778969119E+02  0.00000000000E+00 0.  1.
<mgrwt>
<rscale>  0 0.21322204E+04</rscale>
<asrwt>0</asrwt>
<pdfrwt beam="1">  1        2 0.29510259E+00 0.21322204E+04</pdfrwt>
<pdfrwt beam="2">  1       -3 0.91160034E-01 0.21322204E+04</pdfrwt>
<totfact> 0.47111510E+00</totfact>
</mgrwt>
</event>
<event>
12    7  0.1729738E-007  0.1800419E+04  0.7818608E-02  0.8706077E-01
         -1   -1    0    0    0  501 -0.00000000000E+00  0.00000000000E+00  0.38752791264E+03  0.38752791264E+03  0.00000000000E+00 0.  1.
          2   -1    0    0  501    0  0.00000000000E+00 -0.00000000000E+00 -0.20911450199E+04  0.20911450199E+04  0.00000000000E+00 0. -1.
         24    2    1    2    0    0  0.18099753476E+03 -0.24661254225E+03 -0.14662341050E+04  0.15001943801E+04  0.84633762648E+02 0.  0.
        254    2    1    2    0    0 -0.18099753476E+03  0.24661254225E+03 -0.23738300230E+03  0.97847855249E+03  0.89860543862E+03 0.  0.
         23    2    4    4    0    0 -0.13543268197E+03  0.52417206811E+03 -0.36272762008E+03  0.65810554467E+03  0.91832528144E+02 0.  0.
         23    2    4    4    0    0 -0.45564852791E+02 -0.27755952586E+03  0.12534461778E+03  0.32037300782E+03  0.88386337916E+02 0.  0.
          4    1    3    3  502    0  0.13788803858E+03 -0.11798820121E+03 -0.80870081514E+03  0.82881320888E+03  0.00000000000E+00 0. -1.
         -3    1    3    3    0  502  0.43109496182E+02 -0.12862434104E+03 -0.65753328985E+03  0.67138117119E+03  0.00000000000E+00 0.  1.
         13    1    5    5    0    0 -0.34947298144E+02  0.45405036367E+02 -0.59236153143E+02  0.82412698137E+02  0.00000000000E+00 0.  1.
        -13    1    5    5    0    0 -0.10048538382E+03  0.47876703174E+03 -0.30349146694E+03  0.57569284653E+03  0.00000000000E+00 0. -1.
          1    1    6    6  503    0 -0.65685049166E+02 -0.23402857170E+03  0.84375244752E+02  0.25729959188E+03  0.00000000000E+00 0. -1.
         -1    1    6    6    0  503  0.20120196376E+02 -0.43530954164E+02  0.40969373029E+02  0.63073415946E+02  0.00000000000E+00 0.  1.
<mgrwt>
<rscale>  0 0.18004189E+04</rscale>
<asrwt>0</asrwt>
<pdfrwt beam="1">  1        2 0.32171462E+00 0.18004189E+04</pdfrwt>
<pdfrwt beam="2">  1       -1 0.59619679E-01 0.18004189E+04</pdfrwt>
<totfact> 0.18225831E+01</totfact>
</mgrwt>
</event>
<event>
12    7  0.1729738E-007  0.1144297E+04  0.7818608E-02  0.9163061E-01
         -1   -1    0    0    0  501 -0.00000000000E+00  0.00000000000E+00  0.30460078764E+03  0.30460078764E+03  0.00000000000E+00 0.  1.
          2   -1    0    0  501    0  0.00000000000E+00 -0.00000000000E+00 -0.10746977445E+04  0.10746977445E+04  0.00000000000E+00 0. -1.
         24    2    1    2    0    0 -0.14401536997E+03  0.18616441576E+02 -0.33359109345E+03  0.37253080573E+03  0.80057385102E+02 0.  0.
        254    2    1    2    0    0  0.14401536997E+03 -0.18616441576E+02 -0.43650586340E+03  0.10067677264E+04  0.89552045617E+03 0.  0.
         23    2    4    4    0    0  0.65594740736E+02 -0.26690880890E+03  0.17337825568E+03  0.33764265713E+03  0.91649124868E+02 0.  0.
         23    2    4    4    0    0  0.78420629233E+02  0.24829236732E+03 -0.60988411907E+03  0.66912506925E+03  0.89279476072E+02 0.  0.
          4    1    3    3  502    0 -0.10672363834E+03  0.38940024276E+02 -0.29097179647E+03  0.31236332501E+03  0.00000000000E+00 0. -1.
         -3    1    3    3    0  502 -0.37291731629E+02 -0.20323582699E+02 -0.42619296975E+02  0.60167480721E+02  0.00000000000E+00 0.  1.
         13    1    5    5    0    0 -0.97540111029E+01 -0.97222392431E+02  0.27445903673E+02  0.10149193047E+03  0.00000000000E+00 0.  1.
        -13    1    5    5    0    0  0.75348751839E+02 -0.16968641647E+03  0.14593235200E+03  0.23615072665E+03  0.00000000000E+00 0. -1.
          2    1    6    6  503    0  0.89678975871E+02  0.24769125787E+03 -0.59228488463E+03  0.64822423783E+03  0.00000000000E+00 0. -1.
         -2    1    6    6    0  503 -0.11258346638E+02  0.60110945220E+00 -0.17599234439E+02  0.20900831429E+02  0.00000000000E+00 0.  1.
<mgrwt>
<rscale>  0 0.11442968E+04</rscale>
<asrwt>0</asrwt>
<pdfrwt beam="1">  1        2 0.16533812E+00 0.11442968E+04</pdfrwt>
<pdfrwt beam="2">  1       -1 0.46861659E-01 0.11442968E+04</pdfrwt>
<totfact> 0.11570865E+02</totfact>
</mgrwt>
</event>
<event>
12    7  0.1729738E-007  0.2108823E+04  0.7818608E-02  0.8557367E-01
          2   -1    0    0  501    0  0.00000000000E+00  0.00000000000E+00  0.12141205354E+04  0.12141205354E+04  0.00000000000E+00 0. -1.
         -1   -1    0    0    0  501 -0.00000000000E+00 -0.00000000000E+00 -0.91571115300E+03  0.91571115300E+03  0.00000000000E+00 0.  1.
         24    2    1    2    0    0  0.45125062515E+03  0.37102509006E+03  0.77089215286E+03  0.97050955702E+03  0.79544608574E+02 0.  0.
        254    2    1    2    0    0 -0.45125062515E+03 -0.37102509006E+03 -0.47248277043E+03  0.11593221314E+04  0.88289359037E+03 0.  0.
         23    2    4    4    0    0 -0.65123809448E+03 -0.31174975163E+03 -0.12031889814E+03  0.73712193703E+03  0.87023844191E+02 0.  0.
         23    2    4    4    0    0  0.19998746933E+03 -0.59275338432E+02 -0.35216387229E+03  0.42220019440E+03  0.10356185383E+03 0.  0.
          2    1    3    3  502    0  0.39176891061E+03  0.29648769432E+03  0.67872267313E+03  0.83788561225E+03  0.00000000000E+00 0. -1.
         -3    1    3    3    0  502  0.59481714549E+02  0.74537395747E+02  0.92169479737E+02  0.13262394477E+03  0.00000000000E+00 0.  1.
         13    1    5    5    0    0 -0.42186933869E+03 -0.21759425297E+03 -0.11818166130E+03  0.48917062761E+03  0.00000000000E+00 0. -1.
        -13    1    5    5    0    0 -0.22936875579E+03 -0.94155498665E+02 -0.21372368435E+01  0.24795130942E+03  0.00000000000E+00 0.  1.
          2    1    6    6  503    0  0.55417075423E+02  0.16551885343E+02 -0.41267839197E+02  0.71049642567E+02  0.00000000000E+00 0. -1.
         -2    1    6    6    0  503  0.14457039390E+03 -0.75827223774E+02 -0.31089603309E+03  0.35115055183E+03  0.00000000000E+00 0.  1.
<mgrwt>
<rscale>  0 0.21088231E+04</rscale>
<asrwt>0</asrwt>
<pdfrwt beam="1">  1        2 0.18678778E+00 0.21088231E+04</pdfrwt>
<pdfrwt beam="2">  1       -1 0.14087864E+00 0.21088231E+04</pdfrwt>
<totfact> 0.80421527E+00</totfact>
</mgrwt>
</event>
<event>
12    7  0.1729738E-007  0.1398515E+04  0.7818608E-02  0.8954894E-01
          2   -1    0    0  501    0  0.00000000000E+00  0.00000000000E+00  0.31196315281E+04  0.31196315281E+04  0.00000000000E+00 0. -1.
         -1   -1    0    0    0  501 -0.00000000000E+00 -0.00000000000E+00 -0.15673690264E+03  0.15673690264E+03  0.00000000000E+00 0.  1.
         24    2    1    2    0    0  0.73721017248E+02 -0.39116255324E+03  0.69827505446E+03  0.80757360453E+03  0.78384587761E+02 0.  0.
        254    2    1    2    0    0 -0.73721017248E+02  0.39116255324E+03  0.22646195710E+04  0.24687948262E+04  0.89888996055E+03 0.  0.
         23    2    4    4    0    0 -0.16989009121E+03 -0.75724363490E+02  0.66069446974E+02  0.21718100872E+03  0.90584747103E+02 0.  0.
         23    2    4    4    0    0  0.96169073963E+02  0.46688691673E+03  0.21985501240E+04  0.22516138175E+04  0.94394128561E+02 0.  0.
          4    1    3    3  502    0  0.27649710871E+02 -0.29978032585E+03  0.55662426785E+03  0.63282171726E+03  0.00000000000E+00 0. -1.
         -3    1    3    3    0  502  0.46071306377E+02 -0.91382227397E+02  0.14165078662E+03  0.17475188727E+03  0.00000000000E+00 0.  1.
         13    1    5    5    0    0 -0.10231091663E+03 -0.86165753141E+02  0.21295906813E+02  0.13544584277E+03  0.00000000000E+00 0.  1.
        -13    1    5    5    0    0 -0.67579174580E+02  0.10441389651E+02  0.44773540161E+02  0.81735165952E+02  0.00000000000E+00 0. -1.
          2    1    6    6  503    0  0.61427024903E+02  0.99767263036E+02  0.53958920405E+03  0.55216238127E+03  0.00000000000E+00 0. -1.
         -2    1    6    6    0  503  0.34742049060E+02  0.36711965370E+03  0.16589609200E+04  0.16994514362E+04  0.00000000000E+00 0.  1.
<mgrwt>
<rscale>  0 0.13985155E+04</rscale>
<asrwt>0</asrwt>
<pdfrwt beam="1">  1        2 0.47994327E+00 0.13985155E+04</pdfrwt>
<pdfrwt beam="2">  1       -1 0.24113372E-01 0.13985155E+04</pdfrwt>
<totfact> 0.24413241E+01</totfact>
</mgrwt>
</event>
<event>
12    7  0.1729738E-007  0.2248263E+04  0.7818608E-02  0.8498604E-01
         -1   -1    0    0    0  501 -0.00000000000E+00  0.00000000000E+00  0.65112341604E+03  0.65112341604E+03  0.00000000000E+00 0.  1.
          2   -1    0    0  501    0  0.00000000000E+00 -0.00000000000E+00 -0.19407561332E+04  0.19407561332E+04  0.00000000000E+00 0. -1.
         24    2    1    2    0    0  0.80188981308E+03  0.47245086345E+03 -0.72097960959E+03  0.11804173671E+04  0.85653209542E+02 0.  0.
        254    2    1    2    0    0 -0.80188981308E+03 -0.47245086345E+03 -0.56865310757E+03  0.14114621822E+04  0.89589175924E+03 0.  0.
         23    2    4    4    0    0  0.28142223271E+02  0.16882970238E+03 -0.24525023838E+03  0.31012536361E+03  0.82064661039E+02 0.  0.
         23    2    4    4    0    0 -0.83003203635E+03 -0.64128056584E+03 -0.32340286919E+03  0.11013368186E+04  0.90329544693E+02 0.  0.
          4    1    3    3  502    0  0.70317215874E+03  0.38920791031E+03 -0.64565254560E+03  0.10309224471E+04  0.00000000000E+00 0. -1.
         -3    1    3    3    0  502  0.98717654339E+02  0.83242953142E+02 -0.75327063989E+02  0.14949491996E+03  0.00000000000E+00 0.  1.
         13    1    5    5    0    0  0.44683246859E+02  0.16603070183E+03 -0.21267364913E+03  0.27348284687E+03  0.00000000000E+00 0. -1.
        -13    1    5    5    0    0 -0.16541023588E+02  0.27990005500E+01 -0.32576589254E+02  0.36642516738E+02  0.00000000000E+00 0.  1.
          3    1    6    6  503    0 -0.47319958391E+03 -0.31697001560E+03 -0.19953412125E+03  0.60349126136E+03  0.00000000000E+00 0. -1.
         -3    1    6    6    0  503 -0.35683245244E+03 -0.32431055024E+03 -0.12386874794E+03  0.49784555720E+03  0.00000000000E+00 0.  1.
<mgrwt>
<rscale>  0 0.22482631E+04</rscale>
<asrwt>0</asrwt>
<pdfrwt beam="1">  1        2 0.29857787E+00 0.22482631E+04</pdfrwt>
<pdfrwt beam="2">  1       -1 0.10017283E+00 0.22482631E+04</pdfrwt>
<totfact> 0.70908898E+00</totfact>
</mgrwt>
</event>
<event>
12    7  0.1729738E-007  0.2265042E+04  0.7818608E-02  0.8491834E-01
         -1   -1    0    0    0  501 -0.00000000000E+00  0.00000000000E+00  0.87167433839E+03  0.87167433839E+03  0.00000000000E+00 0.  1.
          2   -1    0    0  501    0  0.00000000000E+00 -0.00000000000E+00 -0.14714250449E+04  0.14714250449E+04  0.00000000000E+00 0. -1.
         24    2    1    2    0    0 -0.52083345844E+03 -0.14346942515E+03 -0.10662230781E+04  0.11979355905E+04  0.79793855975E+02 0.  0.
        254    2    1    2    0    0  0.52083345844E+03  0.14346942515E+03  0.46647237155E+03  0.11451637928E+04  0.89551810227E+03 0.  0.
         23    2    4    4    0    0  0.75271090761E+03  0.83882880049E+02  0.45541447027E+03  0.88858403760E+03  0.92569995963E+02 0.  0.
         23    2    4    4    0    0 -0.23187744917E+03  0.59586545103E+02  0.11057901274E+02  0.25657975518E+03  0.91614331844E+02 0.  0.
          4    1    3    3  502    0 -0.51780794713E+03 -0.13368468392E+03 -0.10545876751E+04  0.11824347041E+04  0.00000000000E+00 0. -1.
         -3    1    3    3    0  502 -0.30255113083E+01 -0.97847412307E+01 -0.11635402942E+02  0.15500886467E+02  0.00000000000E+00 0.  1.
         13    1    5    5    0    0  0.45461493769E+03  0.93531276907E+02  0.25972235885E+03  0.53186327662E+03  0.00000000000E+00 0.  1.
        -13    1    5    5    0    0  0.29809596992E+03 -0.96483968572E+01  0.19569211142E+03  0.35672076098E+03  0.00000000000E+00 0. -1.
          2    1    6    6  503    0 -0.16460634075E+03  0.82038005972E+02 -0.45102030592E+01  0.18397234512E+03  0.00000000000E+00 0. -1.
         -2    1    6    6    0  503 -0.67271108418E+02 -0.22451460869E+02  0.15568104333E+02  0.72607410058E+02  0.00000000000E+00 0.  1.
<mgrwt>
<rscale>  0 0.22650417E+04</rscale>
<asrwt>0</asrwt>
<pdfrwt beam="1">  1        2 0.22637308E+00 0.22650417E+04</pdfrwt>
<pdfrwt beam="2">  1       -1 0.13410375E+00 0.22650417E+04</pdfrwt>
<totfact> 0.63951123E+00</totfact>
</mgrwt>
</event>
<event>
12    7  0.1729738E-007  0.2233316E+04  0.7818608E-02  0.8504688E-01
          2   -1    0    0  501    0  0.00000000000E+00  0.00000000000E+00  0.27316252528E+04  0.27316252528E+04  0.00000000000E+00 0. -1.
         -1   -1    0    0    0  501 -0.00000000000E+00 -0.00000000000E+00 -0.45647738466E+03  0.45647738466E+03  0.00000000000E+00 0.  1.
         24    2    1    2    0    0  0.67242738107E+03 -0.66802753359E+03  0.81511327940E+03  0.12526943044E+04  0.80087411890E+02 0.  0.
        254    2    1    2    0    0 -0.67242738107E+03  0.66802753359E+03  0.14600345888E+04  0.19354083331E+04  0.84598170605E+03 0.  0.
         23    2    4    4    0    0 -0.65140903952E+03  0.84344384010E+03  0.11837238449E+04  0.15953614966E+04  0.90801518062E+02 0.  0.
         23    2    4    4    0    0 -0.21018341543E+02 -0.17541630651E+03  0.27631074387E+03  0.34004683649E+03  0.89841930984E+02 0.  0.
          4    1    3    3  502    0  0.15955034414E+03 -0.19172955487E+03  0.24943956831E+03  0.35275576929E+03  0.00000000000E+00 0. -1.
         -3    1    3    3    0  502  0.51287703692E+03 -0.47629797872E+03  0.56567371109E+03  0.89993853510E+03  0.00000000000E+00 0.  1.
         13    1    5    5    0    0 -0.32851463673E+03  0.35972487478E+03  0.50852072477E+03  0.70421387348E+03  0.00000000000E+00 0.  1.
        -13    1    5    5    0    0 -0.32289440280E+03  0.48371896531E+03  0.67520312012E+03  0.89114762311E+03  0.00000000000E+00 0. -1.
          3    1    6    6  503    0 -0.22724285149E+02 -0.31089014196E+02  0.12558661505E+03  0.13135797585E+03  0.00000000000E+00 0. -1.
         -3    1    6    6    0  503  0.17059436057E+01 -0.14432729231E+03  0.15072412881E+03  0.20868886064E+03  0.00000000000E+00 0.  1.
<mgrwt>
<rscale>  0 0.22333161E+04</rscale>
<asrwt>0</asrwt>
<pdfrwt beam="1">  1        2 0.42025003E+00 0.22333161E+04</pdfrwt>
<pdfrwt beam="2">  1       -1 0.70227292E-01 0.22333161E+04</pdfrwt>
<totfact> 0.54067205E+00</totfact>
</mgrwt>
</event>
<event>
12    7  0.1729738E-007  0.1594783E+04  0.7818608E-02  0.8823759E-01
         -1   -1    0    0    0  501 -0.00000000000E+00  0.00000000000E+00  0.47384846264E+03  0.47384846264E+03  0.00000000000E+00 0.  1.
          2   -1    0    0  501    0  0.00000000000E+00 -0.00000000000E+00 -0.13418498558E+04  0.13418498558E+04  0.00000000000E+00 0. -1.
         24    2    1    2    0    0 -0.96878218761E+02 -0.41663112334E+03 -0.66954533955E+03  0.80122015107E+03  0.10342091936E+03 0.  0.
        254    2    1    2    0    0  0.96878218761E+02  0.41663112334E+03 -0.19845605362E+03  0.10144781674E+04  0.89822840341E+03 0.  0.
         23    2    4    4    0    0 -0.30505488628E+03  0.47034449880E+03 -0.18949942393E+03  0.59883802031E+03  0.91730647550E+02 0.  0.
         23    2    4    4    0    0  0.40193310505E+03 -0.53713375460E+02 -0.89566296940E+01  0.41564014708E+03  0.90780851593E+02 0.  0.
          2    1    3    3  502    0 -0.29229869896E+02 -0.27330059019E+03 -0.48920047398E+03  0.56112806171E+03  0.00000000000E+00 0. -1.
         -3    1    3    3    0  502 -0.67648348865E+02 -0.14333053315E+03 -0.18034486557E+03  0.24009208936E+03  0.00000000000E+00 0.  1.
         13    1    5    5    0    0 -0.25282388077E+03  0.44052645936E+03 -0.16922860744E+03  0.53537071050E+03  0.00000000000E+00 0.  1.
        -13    1    5    5    0    0 -0.52231005516E+02  0.29818039436E+02 -0.20270816490E+02  0.63467309808E+02  0.00000000000E+00 0. -1.
          3    1    6    6  503    0  0.16496208789E+03  0.18691857238E+02  0.15026985113E+02  0.16669638943E+03  0.00000000000E+00 0. -1.
         -3    1    6    6    0  503  0.23697101716E+03 -0.72405232698E+02 -0.23983614807E+02  0.24894375765E+03  0.00000000000E+00 0.  1.
<mgrwt>
<rscale>  0 0.15947834E+04</rscale>
<asrwt>0</asrwt>
<pdfrwt beam="1">  1        2 0.20643844E+00 0.15947834E+04</pdfrwt>
<pdfrwt beam="2">  1       -1 0.72899763E-01 0.15947834E+04</pdfrwt>
<totfact> 0.32426434E+01</totfact>
</mgrwt>
</event>
<event>
12    7  0.1729738E-007  0.3716887E+04  0.7818608E-02  0.8064230E-01
          2   -1    0    0  501    0  0.00000000000E+00  0.00000000000E+00  0.17075169536E+04  0.17075169536E+04  0.00000000000E+00 0. -1.
         -1   -1    0    0    0  501 -0.00000000000E+00 -0.00000000000E+00 -0.20227106554E+04  0.20227106554E+04  0.00000000000E+00 0.  1.
         24    2    1    2    0    0  0.37562082719E+03 -0.10930603470E+04 -0.14666263549E+04  0.18690747002E+04  0.81089098266E+02 0.  0.
        254    2    1    2    0    0 -0.37562082719E+03  0.10930603470E+04  0.11514326531E+04  0.18611529088E+04  0.89566794491E+03 0.  0.
         23    2    4    4    0    0  0.17317525741E+03  0.27647088703E+02  0.18464301796E+01  0.19811570050E+03  0.92154165339E+02 0.  0.
         23    2    4    4    0    0 -0.54879608460E+03  0.10654132583E+04  0.11495862229E+04  0.16630372083E+04  0.88666335374E+02 0.  0.
          2    1    3    3  502    0  0.20057081785E+03 -0.52189448125E+03 -0.76591500414E+03  0.94827648716E+03  0.00000000000E+00 0. -1.
         -3    1    3    3    0  502  0.17505000934E+03 -0.57116586574E+03 -0.70071135078E+03  0.92079821301E+03  0.00000000000E+00 0.  1.
         13    1    5    5    0    0  0.78590011040E+02  0.49149615086E+02  0.29461376975E+02  0.97262774131E+02  0.00000000000E+00 0. -1.
        -13    1    5    5    0    0  0.94585246369E+02 -0.21502526383E+02 -0.27614946795E+02  0.10085292637E+03  0.00000000000E+00 0.  1.
          2    1    6    6  503    0 -0.82833123604E+02  0.10726538024E+03  0.11159714833E+03  0.17555942493E+03  0.00000000000E+00 0. -1.
         -2    1    6    6    0  503 -0.46596296100E+03  0.95814787804E+03  0.10379890746E+04  0.14874777834E+04  0.00000000000E+00 0.  1.
<mgrwt>
<rscale>  0 0.37168873E+04</rscale>
<asrwt>0</asrwt>
<pdfrwt beam="1">  1        2 0.26269492E+00 0.37168873E+04</pdfrwt>
<pdfrwt beam="2">  1       -1 0.31118626E+00 0.37168873E+04</pdfrwt>
<totfact> 0.24928113E-01</totfact>
</mgrwt>
</event>
<event>
12    7  0.1729738E-007  0.3452631E+04  0.7818608E-02  0.8125108E-01
          2   -1    0    0  501    0  0.00000000000E+00  0.00000000000E+00  0.37412476872E+04  0.37412476872E+04  0.00000000000E+00 0. -1.
         -1   -1    0    0    0  501 -0.00000000000E+00 -0.00000000000E+00 -0.79656992778E+03  0.79656992778E+03  0.00000000000E+00 0.  1.
         24    2    1    2    0    0 -0.56323365808E+03  0.14780664785E+04  0.17530152809E+04  0.23626978116E+04  0.85823687601E+02 0.  0.
        254    2    1    2    0    0  0.56323365808E+03 -0.14780664785E+04  0.11916624785E+04  0.21751198034E+04  0.89954100951E+03 0.  0.
         23    2    4    4    0    0  0.33204152659E+03 -0.11745581756E+04  0.39447861719E+03  0.12866112096E+04  0.99581835202E+02 0.  0.
         23    2    4    4    0    0  0.23119213150E+03 -0.30350830290E+03  0.79718386135E+03  0.88850859380E+03  0.91533168152E+02 0.  0.
          2    1    3    3  502    0 -0.53613485601E+03  0.14362053912E+04  0.17126421246E+04  0.22985363944E+04  0.00000000000E+00 0. -1.
         -1    1    3    3    0  502 -0.27098802071E+02  0.41861087329E+02  0.40373156365E+02  0.64161417230E+02  0.00000000000E+00 0.  1.
         13    1    5    5    0    0  0.25252789869E+03 -0.72464540862E+03  0.26260722577E+03  0.81107574423E+03  0.00000000000E+00 0. -1.
        -13    1    5    5    0    0  0.79513627898E+02 -0.44991276700E+03  0.13187139142E+03  0.47553546535E+03  0.00000000000E+00 0.  1.
          3    1    6    6  503    0  0.19357610493E+03 -0.24438699479E+03  0.71803857207E+03  0.78280016774E+03  0.00000000000E+00 0. -1.
         -3    1    6    6    0  503  0.37616026564E+02 -0.59121308110E+02  0.79145289279E+02  0.10570842607E+03  0.00000000000E+00 0.  1.
<mgrwt>
<rscale>  0 0.34526311E+04</rscale>
<asrwt>0</asrwt>
<pdfrwt beam="1">  1        2 0.57557656E+00 0.34526311E+04</pdfrwt>
<pdfrwt beam="2">  1       -1 0.12254922E+00 0.34526311E+04</pdfrwt>
<totfact> 0.29876099E-01</totfact>
</mgrwt>
</event>
<event>
12    7  0.1729738E-007  0.1936544E+04  0.7818608E-02  0.8636877E-01
          2   -1    0    0  501    0  0.00000000000E+00  0.00000000000E+00  0.18162124172E+04  0.18162124172E+04  0.00000000000E+00 0. -1.
         -1   -1    0    0    0  501 -0.00000000000E+00 -0.00000000000E+00 -0.51621222932E+03  0.51621222932E+03  0.00000000000E+00 0.  1.
         24    2    1    2    0    0 -0.27990927396E+03  0.64291808130E+03  0.84675363975E+03  0.11023051537E+04  0.79950388084E+02 0.  0.
        254    2    1    2    0    0  0.27990927396E+03 -0.64291808130E+03  0.45324654811E+03  0.12301194928E+04  0.90336519317E+03 0.  0.
         23    2    4    4    0    0 -0.20395610887E+03  0.76961114090E+02 -0.21974618490E+02  0.23699832299E+03  0.90356039175E+02 0.  0.
         23    2    4    4    0    0  0.48386538283E+03 -0.71987919539E+03  0.47522116660E+03  0.99312116980E+03  0.90015199025E+02 0.  0.
          4    1    3    3  502    0 -0.20050162078E+02  0.30335938705E+02  0.74590614209E+02  0.82982154133E+02  0.00000000000E+00 0. -1.
         -3    1    3    3    0  502 -0.25985911188E+03  0.61258214260E+03  0.77216302554E+03  0.10193229996E+04  0.00000000000E+00 0.  1.
         13    1    5    5    0    0 -0.15034708202E+03  0.74550017592E+02  0.19817415535E+02  0.16898130120E+03  0.00000000000E+00 0.  1.
        -13    1    5    5    0    0 -0.53609026842E+02  0.24110964983E+01 -0.41792034024E+02  0.68017021790E+02  0.00000000000E+00 0. -1.
          2    1    6    6  503    0  0.32465468698E+02 -0.37787615569E+02  0.60547420264E+01  0.50185360905E+02  0.00000000000E+00 0. -1.
         -2    1    6    6    0  503  0.45139991413E+03 -0.68209157983E+03  0.46916642457E+03  0.94293580889E+03  0.00000000000E+00 0.  1.
<mgrwt>
<rscale>  0 0.19365444E+04</rscale>
<asrwt>0</asrwt>
<pdfrwt beam="1">  1        2 0.27941729E+00 0.19365444E+04</pdfrwt>
<pdfrwt beam="2">  1       -1 0.79417267E-01 0.19365444E+04</pdfrwt>
<totfact> 0.14240048E+01</totfact>
</mgrwt>
</event>
<event>
12    7  0.1729738E-007  0.1984991E+04  0.7818608E-02  0.8613670E-01
         -1   -1    0    0    0  501 -0.00000000000E+00  0.00000000000E+00  0.35112074742E+03  0.35112074742E+03  0.00000000000E+00 0.  1.
          2   -1    0    0  501    0  0.00000000000E+00 -0.00000000000E+00 -0.28054376436E+04  0.28054376436E+04  0.00000000000E+00 0. -1.
         24    2    1    2    0    0 -0.60623219171E+02 -0.70051822145E+03 -0.40898104900E+03  0.81732091287E+03  0.79668204962E+02 0.  0.
        254    2    1    2    0    0  0.60623219171E+02  0.70051822145E+03 -0.20453358472E+04  0.23392374782E+04  0.89119711521E+03 0.  0.
         23    2    4    4    0    0  0.14365043335E+03 -0.17849097573E+03 -0.39527786047E+03  0.46562246338E+03  0.89806547674E+02 0.  0.
         23    2    4    4    0    0 -0.83027214178E+02  0.87900919718E+03 -0.16500579867E+04  0.18736150148E+04  0.90505121859E+02 0.  0.
          2    1    3    3  502    0  0.69580530068E+01 -0.35441361393E+03 -0.22057459077E+03  0.41750517882E+03  0.00000000000E+00 0. -1.
         -3    1    3    3    0  502 -0.67581272178E+02 -0.34610460752E+03 -0.18840645823E+03  0.39981573405E+03  0.00000000000E+00 0.  1.
         13    1    5    5    0    0  0.95594875220E+02 -0.11332617970E+03 -0.32944355700E+03  0.36126757455E+03  0.00000000000E+00 0. -1.
        -13    1    5    5    0    0  0.48055558130E+02 -0.65164796024E+02 -0.65834303471E+02  0.10435488882E+03  0.00000000000E+00 0.  1.
          4    1    6    6  503    0 -0.62188907455E+02  0.49535240922E+03 -0.84243302806E+03  0.97925220260E+03  0.00000000000E+00 0. -1.
         -4    1    6    6    0  503 -0.20838306724E+02  0.38365678796E+03 -0.80762495868E+03  0.89436281220E+03  0.00000000000E+00 0.  1.
<mgrwt>
<rscale>  0 0.19849910E+04</rscale>
<asrwt>0</asrwt>
<pdfrwt beam="1">  1        2 0.43160580E+00 0.19849910E+04</pdfrwt>
<pdfrwt beam="2">  1       -1 0.54018575E-01 0.19849910E+04</pdfrwt>
<totfact> 0.84204926E+00</totfact>
</mgrwt>
</event>
<event>
12    7  0.1729738E-007  0.1492052E+04  0.7818608E-02  0.8889756E-01
          2   -1    0    0  501    0  0.00000000000E+00  0.00000000000E+00  0.15177747561E+04  0.15177747561E+04  0.00000000000E+00 0. -1.
         -1   -1    0    0    0  501 -0.00000000000E+00 -0.00000000000E+00 -0.36669122549E+03  0.36669122549E+03  0.00000000000E+00 0.  1.
         24    2    1    2    0    0 -0.67178101665E+02 -0.32168351584E+03 -0.52870467115E+02  0.34216744559E+03  0.79310105387E+02 0.  0.
        254    2    1    2    0    0  0.67178101665E+02  0.32168351584E+03  0.12039539977E+04  0.15422985360E+04  0.90619333687E+03 0.  0.
         23    2    4    4    0    0  0.13384848473E+03  0.51630379335E+03  0.31732597595E+03  0.62743844025E+03  0.92185668091E+02 0.  0.
         23    2    4    4    0    0 -0.66670383068E+02 -0.19462027750E+03  0.88662802177E+03  0.91486009574E+03  0.92399964256E+02 0.  0.
          4    1    3    3  502    0 -0.19583766023E+02 -0.25521286295E+03 -0.46636245202E+02  0.26017699490E+03  0.00000000000E+00 0. -1.
         -3    1    3    3    0  502 -0.47594335642E+02 -0.66470652894E+02 -0.62342219132E+01  0.81990450689E+02  0.00000000000E+00 0.  1.
         13    1    5    5    0    0  0.49652400104E+02  0.34593838720E+03  0.22941016852E+03  0.41805233404E+03  0.00000000000E+00 0. -1.
        -13    1    5    5    0    0  0.84196084629E+02  0.17036540615E+03  0.87915807429E+02  0.20938610621E+03  0.00000000000E+00 0.  1.
          2    1    6    6  503    0  0.60013056030E+01 -0.11453597186E+02  0.99706862146E+01  0.16328353898E+02  0.00000000000E+00 0. -1.
         -2    1    6    6    0  503 -0.72671688671E+02 -0.18316668032E+03  0.87665733556E+03  0.89853174184E+03  0.00000000000E+00 0.  1.
<mgrwt>
<rscale>  0 0.14920519E+04</rscale>
<asrwt>0</asrwt>
<pdfrwt beam="1">  1        2 0.23350380E+00 0.14920519E+04</pdfrwt>
<pdfrwt beam="2">  1       -1 0.56414036E-01 0.14920519E+04</pdfrwt>
<totfact> 0.43446331E+01</totfact>
</mgrwt>
</event>
<event>
12    7  0.1729738E-007  0.1507811E+04  0.7818608E-02  0.8879276E-01
          2   -1    0    0  501    0  0.00000000000E+00  0.00000000000E+00  0.65870494438E+03  0.65870494438E+03  0.00000000000E+00 0. -1.
         -1   -1    0    0    0  501 -0.00000000000E+00 -0.00000000000E+00 -0.86286461922E+03  0.86286461922E+03  0.00000000000E+00 0.  1.
         24    2    1    2    0    0 -0.80285449050E+02 -0.31746169121E+03 -0.40338546361E+03  0.52567002310E+03  0.79884054823E+02 0.  0.
        254    2    1    2    0    0  0.80285449050E+02  0.31746169121E+03  0.19922578878E+03  0.99589954050E+03  0.91918295303E+03 0.  0.
         23    2    4    4    0    0 -0.72128839980E+02  0.26314708151E+03 -0.32854821561E+03  0.43656521064E+03  0.90533403221E+02 0.  0.
         23    2    4    4    0    0  0.15241428903E+03  0.54314609699E+02  0.52777400439E+03  0.55933432985E+03  0.90162633687E+02 0.  0.
          4    1    3    3  502    0 -0.40897286077E+02 -0.60193750636E+02 -0.57199985436E+02  0.92561946598E+02  0.00000000000E+00 0. -1.
         -3    1    3    3    0  502 -0.39388162973E+02 -0.25726794057E+03 -0.34618547818E+03  0.43310807650E+03  0.00000000000E+00 0.  1.
         13    1    5    5    0    0 -0.37680990873E+02  0.19619429353E+03 -0.28951485849E+03  0.35175404927E+03  0.00000000000E+00 0. -1.
        -13    1    5    5    0    0 -0.34447849106E+02  0.66952787979E+02 -0.39033357120E+02  0.84811161378E+02  0.00000000000E+00 0.  1.
          4    1    6    6  503    0  0.16157948852E+03  0.55431359164E+02  0.51974952008E+03  0.54710157221E+03  0.00000000000E+00 0.  1.
         -4    1    6    6    0  503 -0.91651994929E+01 -0.11167494650E+01  0.80244843118E+01  0.12232757644E+02  0.00000000000E+00 0. -1.
<mgrwt>
<rscale>  0 0.15078106E+04</rscale>
<asrwt>0</asrwt>
<pdfrwt beam="1">  1        2 0.10133922E+00 0.15078106E+04</pdfrwt>
<pdfrwt beam="2">  1       -1 0.13274840E+00 0.15078106E+04</pdfrwt>
<totfact> 0.23465789E+01</totfact>
</mgrwt>
</event>
<event>
12    7  0.1729738E-007  0.1339805E+04  0.7818608E-02  0.8998581E-01
          2   -1    0    0  501    0  0.00000000000E+00  0.00000000000E+00  0.16200529067E+04  0.16200529067E+04  0.00000000000E+00 0. -1.
         -1   -1    0    0    0  501 -0.00000000000E+00 -0.00000000000E+00 -0.27700917816E+03  0.27700917816E+03  0.00000000000E+00 0.  1.
         24    2    1    2    0    0 -0.26786936467E+02  0.22430708834E+03  0.76087911929E+03  0.79762883257E+03  0.79015887805E+02 0.  0.
        254    2    1    2    0    0  0.26786936467E+02 -0.22430708834E+03  0.58216460927E+03  0.10994332523E+04  0.90487934785E+03 0.  0.
         23    2    4    4    0    0  0.30880177949E+03  0.11698738220E+03 -0.24447948845E+02  0.34306553119E+03  0.89731097619E+02 0.  0.
         23    2    4    4    0    0 -0.28201484302E+03 -0.34129447054E+03  0.60661255811E+03  0.75636772112E+03  0.89994703087E+02 0.  0.
          4    1    3    3  502    0 -0.31409213692E+02  0.21759291742E+03  0.75758015462E+03  0.78883515837E+03  0.00000000000E+00 0. -1.
         -3    1    3    3    0  502  0.46222772252E+01  0.67141709205E+01  0.32989646712E+01  0.87936741921E+01  0.00000000000E+00 0.  1.
         13    1    5    5    0    0  0.17123817093E+03  0.10835307303E+03  0.23345823375E+01  0.20265327506E+03  0.00000000000E+00 0.  1.
        -13    1    5    5    0    0  0.13756360856E+03  0.86343091670E+01 -0.26782531183E+02  0.14041225613E+03  0.00000000000E+00 0. -1.
          4    1    6    6  503    0 -0.19760510502E+01  0.44665711356E+01  0.17135896410E+02  0.17818360789E+02  0.00000000000E+00 0. -1.
         -4    1    6    6    0  503 -0.28003879197E+03 -0.34576104167E+03  0.58947666170E+03  0.73854936033E+03  0.00000000000E+00 0.  1.
<mgrwt>
<rscale>  0 0.13398052E+04</rscale>
<asrwt>0</asrwt>
<pdfrwt beam="1">  1        2 0.24923890E+00 0.13398052E+04</pdfrwt>
<pdfrwt beam="2">  1       -1 0.42616798E-01 0.13398052E+04</pdfrwt>
<totfact> 0.65580585E+01</totfact>
</mgrwt>
</event>
<event>
12    7  0.1729738E-007  0.1681237E+04  0.7818608E-02  0.8772139E-01
         -1   -1    0    0    0  501 -0.00000000000E+00  0.00000000000E+00  0.52791947336E+03  0.52791947336E+03  0.00000000000E+00 0.  1.
          2   -1    0    0  501    0  0.00000000000E+00 -0.00000000000E+00 -0.13385362042E+04  0.13385362042E+04  0.00000000000E+00 0. -1.
         24    2    1    2    0    0  0.29827359352E+03  0.33767053458E+03 -0.73246774148E+03  0.86348679722E+03  0.78178834410E+02 0.  0.
        254    2    1    2    0    0 -0.29827359352E+03 -0.33767053458E+03 -0.78148989390E+02  0.10029688804E+04  0.89266498976E+03 0.  0.
         23    2    4    4    0    0 -0.10683046048E+03 -0.37044572942E+03 -0.43398786659E+03  0.58745958425E+03  0.90113867118E+02 0.  0.
         23    2    4    4    0    0 -0.19144313304E+03  0.32775194834E+02  0.35583887720E+03  0.41550929613E+03  0.91115213111E+02 0.  0.
          2    1    3    3  502    0  0.26080989167E+03  0.24746261990E+03 -0.56971727104E+03  0.67367448873E+03  0.00000000000E+00 0. -1.
         -1    1    3    3    0  502  0.37463701854E+02  0.90207914682E+02 -0.16275047043E+03  0.18981230849E+03  0.00000000000E+00 0.  1.
         13    1    5    5    0    0 -0.77729512025E+02 -0.34901589827E+03 -0.37399924615E+03  0.51742575352E+03  0.00000000000E+00 0.  1.
        -13    1    5    5    0    0 -0.29100948454E+02 -0.21429831146E+02 -0.59988620442E+02  0.70033830728E+02  0.00000000000E+00 0. -1.
          2    1    6    6  503    0 -0.74030475156E+02 -0.31700247161E+02  0.13820197917E+03  0.15995375572E+03  0.00000000000E+00 0. -1.
         -2    1    6    6    0  503 -0.11741265788E+03  0.64475441995E+02  0.21763689803E+03  0.25555554041E+03  0.00000000000E+00 0.  1.
<mgrwt>
<rscale>  0 0.16812368E+04</rscale>
<asrwt>0</asrwt>
<pdfrwt beam="1">  1        2 0.20592865E+00 0.16812368E+04</pdfrwt>
<pdfrwt beam="2">  1       -1 0.81218381E-01 0.16812368E+04</pdfrwt>
<totfact> 0.25758061E+01</totfact>
</mgrwt>
</event>
<event>
12    7  0.1729738E-007  0.2400009E+04  0.7818608E-02  0.8439500E-01
         -1   -1    0    0    0  501 -0.00000000000E+00  0.00000000000E+00  0.10570331108E+04  0.10570331108E+04  0.00000000000E+00 0.  1.
          2   -1    0    0  501    0  0.00000000000E+00 -0.00000000000E+00 -0.13623136873E+04  0.13623136873E+04  0.00000000000E+00 0. -1.
         24    2    1    2    0    0  0.26556729676E+03 -0.82747062784E+03 -0.69245575749E+03  0.11140895943E+04  0.80417778201E+02 0.  0.
        254    2    1    2    0    0 -0.26556729676E+03  0.82747062784E+03  0.38717518099E+03  0.13052572038E+04  0.89362079106E+03 0.  0.
         23    2    4    4    0    0 -0.44009487930E+03  0.59288177952E+02  0.15370357453E+03  0.47841045629E+03  0.89739539991E+02 0.  0.
         23    2    4    4    0    0  0.17452758253E+03  0.76818244989E+03  0.23347160645E+03  0.82684674749E+03  0.92749120961E+02 0.  0.
          2    1    3    3  502    0  0.26280936461E+03 -0.77087276019E+03 -0.66325490410E+03  0.10503431070E+04  0.00000000000E+00 0. -1.
         -3    1    3    3    0  502  0.27579321541E+01 -0.56597867647E+02 -0.29200853389E+02  0.63746487359E+02  0.00000000000E+00 0.  1.
         13    1    5    5    0    0 -0.25266857063E+03  0.66589922988E+02  0.12123987447E+03  0.28805334851E+03  0.00000000000E+00 0. -1.
        -13    1    5    5    0    0 -0.18742630867E+03 -0.73017450358E+01  0.32463700067E+02  0.19035710778E+03  0.00000000000E+00 0.  1.
          1    1    6    6  503    0  0.73258910336E+02  0.22233716037E+03  0.32062848594E+02  0.23628099180E+03  0.00000000000E+00 0. -1.
         -1    1    6    6    0  503  0.10126867220E+03  0.54584528952E+03  0.20140875786E+03  0.59056575570E+03  0.00000000000E+00 0.  1.
<mgrwt>
<rscale>  0 0.24000089E+04</rscale>
<asrwt>0</asrwt>
<pdfrwt beam="1">  1        2 0.20958672E+00 0.24000089E+04</pdfrwt>
<pdfrwt beam="2">  1       -1 0.16262048E+00 0.24000089E+04</pdfrwt>
<totfact> 0.43518218E+00</totfact>
</mgrwt>
</event>
<event>
12    7  0.1729738E-007  0.3629354E+04  0.7818608E-02  0.8083801E-01
         -1   -1    0    0    0  501 -0.00000000000E+00  0.00000000000E+00  0.72678246866E+03  0.72678246866E+03  0.00000000000E+00 0.  1.
          2   -1    0    0  501    0  0.00000000000E+00 -0.00000000000E+00 -0.45310017467E+04  0.45310017467E+04  0.00000000000E+00 0. -1.
         24    2    1    2    0    0  0.15418010598E+04 -0.54781141555E+03 -0.24731710741E+04  0.29666543600E+04  0.84941598547E+02 0.  0.
        254    2    1    2    0    0 -0.15418010598E+04  0.54781141555E+03 -0.13310482040E+04  0.22911298554E+04  0.89461658705E+03 0.  0.
         23    2    4    4    0    0 -0.11954329817E+04 -0.25825649197E+01 -0.96382388092E+03  0.15382892496E+04  0.91162814792E+02 0.  0.
         23    2    4    4    0    0 -0.34636807812E+03  0.55039398047E+03 -0.36722432307E+03  0.75284060573E+03  0.94925733648E+02 0.  0.
          2    1    3    3  502    0  0.13448660524E+04 -0.48898447849E+03 -0.21130667604E+04  0.25520230511E+04  0.00000000000E+00 0. -1.
         -1    1    3    3    0  502  0.19693500741E+03 -0.58826937062E+02 -0.36010431366E+03  0.41463130898E+03  0.00000000000E+00 0.  1.
         13    1    5    5    0    0 -0.51997759671E+03 -0.31377360144E+02 -0.46273245814E+03  0.69676579109E+03  0.00000000000E+00 0. -1.
        -13    1    5    5    0    0 -0.67545538497E+03  0.28794795224E+02 -0.50109142277E+03  0.84152345855E+03  0.00000000000E+00 0.  1.
          1    1    6    6  503    0 -0.26337554743E+03  0.47097160559E+03 -0.32788576713E+03  0.63141904354E+03  0.00000000000E+00 0. -1.
         -1    1    6    6    0  503 -0.82992530695E+02  0.79422374875E+02 -0.39338555936E+02  0.12142156219E+03  0.00000000000E+00 0.  1.
<mgrwt>
<rscale>  0 0.36293540E+04</rscale>
<asrwt>0</asrwt>
<pdfrwt beam="1">  1        2 0.69707719E+00 0.36293540E+04</pdfrwt>
<pdfrwt beam="2">  1       -1 0.11181269E+00 0.36293540E+04</pdfrwt>
<totfact> 0.77246486E-02</totfact>
</mgrwt>
</event>
<event>
12    7  0.1729738E-007  0.1950694E+04  0.7818608E-02  0.8630026E-01
          2   -1    0    0  501    0  0.00000000000E+00  0.00000000000E+00  0.17492676241E+04  0.17492676241E+04  0.00000000000E+00 0. -1.
         -1   -1    0    0    0  501 -0.00000000000E+00 -0.00000000000E+00 -0.54382850105E+03  0.54382850105E+03  0.00000000000E+00 0.  1.
         24    2    1    2    0    0  0.38835560005E+03 -0.54246484580E+03  0.32992392206E+02  0.67273825980E+03  0.80000545269E+02 0.  0.
        254    2    1    2    0    0 -0.38835560005E+03  0.54246484580E+03  0.11724467309E+04  0.16203578654E+04  0.89768596633E+03 0.  0.
         23    2    4    4    0    0 -0.45336438609E+03 -0.75731232102E+02  0.34853195961E+03  0.58428948690E+03  0.92979522179E+02 0.  0.
         23    2    4    4    0    0  0.65008786035E+02  0.61819607790E+03  0.82391477128E+03  0.10360683785E+04  0.90606851739E+02 0.  0.
          2    1    3    3  502    0  0.31222131973E+03 -0.39579885889E+03  0.50102382801E+02  0.50660550525E+03  0.00000000000E+00 0. -1.
         -1    1    3    3    0  502  0.76134280319E+02 -0.14666598691E+03 -0.17109990595E+02  0.16613275455E+03  0.00000000000E+00 0.  1.
         13    1    5    5    0    0 -0.17029503471E+03 -0.64236065599E+02  0.10141663853E+03  0.20835547879E+03  0.00000000000E+00 0. -1.
        -13    1    5    5    0    0 -0.28306935138E+03 -0.11495166503E+02  0.24711532108E+03  0.37593400811E+03  0.00000000000E+00 0.  1.
          4    1    6    6  503    0  0.40559014882E+02  0.58413296287E+03  0.75576465179E+03  0.95605259316E+03  0.00000000000E+00 0. -1.
         -4    1    6    6    0  503  0.24449771154E+02  0.34063115030E+02  0.68150119491E+02  0.80015785328E+02  0.00000000000E+00 0.  1.
<mgrwt>
<rscale>  0 0.19506938E+04</rscale>
<asrwt>0</asrwt>
<pdfrwt beam="1">  1        2 0.26911809E+00 0.19506938E+04</pdfrwt>
<pdfrwt beam="2">  1       -1 0.83665924E-01 0.19506938E+04</pdfrwt>
<totfact> 0.13857606E+01</totfact>
</mgrwt>
</event>
<event>
12    7  0.1729738E-007  0.1128596E+04  0.7818608E-02  0.9177760E-01
         -1   -1    0    0    0  501 -0.00000000000E+00  0.00000000000E+00  0.37873265633E+03  0.37873265633E+03  0.00000000000E+00 0.  1.
          2   -1    0    0  501    0  0.00000000000E+00 -0.00000000000E+00 -0.84078358215E+03  0.84078358215E+03  0.00000000000E+00 0. -1.
         24    2    1    2    0    0 -0.18516455163E+03 -0.11004300833E+02 -0.88349061340E+02  0.22039938671E+03  0.79770465738E+02 0.  0.
        254    2    1    2    0    0  0.18516455163E+03  0.11004300833E+02 -0.37370186448E+03  0.99911685177E+03  0.90784051141E+03 0.  0.
         23    2    4    4    0    0  0.37037145678E+03  0.13132403502E+03 -0.56428009396E+03  0.69385289238E+03  0.92729680566E+02 0.  0.
         23    2    4    4    0    0 -0.18520690515E+03 -0.12031973419E+03  0.19057822947E+03  0.30526395939E+03  0.89931013572E+02 0.  0.
          2    1    3    3  502    0 -0.19944503423E+02  0.24837198767E+02 -0.22340741169E+02  0.38907304910E+02  0.00000000000E+00 0. -1.
         -1    1    3    3    0  502 -0.16522004821E+03 -0.35841499601E+02 -0.66008320171E+02  0.18149208180E+03  0.00000000000E+00 0.  1.
         13    1    5    5    0    0  0.34382836139E+03  0.11332846651E+03 -0.55067565786E+03  0.65901818152E+03  0.00000000000E+00 0.  1.
        -13    1    5    5    0    0  0.26543095394E+02  0.17995568510E+02 -0.13604436093E+02  0.34834710857E+02  0.00000000000E+00 0. -1.
          2    1    6    6  503    0 -0.12364215234E+02 -0.48104382815E+02  0.54468066648E+02  0.73713470605E+02  0.00000000000E+00 0. -1.
         -2    1    6    6    0  503 -0.17284268991E+03 -0.72215351373E+02  0.13611016282E+03  0.23155048878E+03  0.00000000000E+00 0.  1.
<mgrwt>
<rscale>  0 0.11285959E+04</rscale>
<asrwt>0</asrwt>
<pdfrwt beam="1">  1        2 0.12935132E+00 0.11285959E+04</pdfrwt>
<pdfrwt beam="2">  1       -1 0.58266564E-01 0.11285959E+04</pdfrwt>
<totfact> 0.10876314E+02</totfact>
</mgrwt>
</event>
<event>
12    7  0.1729738E-007  0.3731497E+04  0.7818608E-02  0.8061017E-01
         -1   -1    0    0    0  501 -0.00000000000E+00  0.00000000000E+00  0.20374622878E+04  0.20374622878E+04  0.00000000000E+00 0.  1.
          2   -1    0    0  501    0  0.00000000000E+00 -0.00000000000E+00 -0.17085065200E+04  0.17085065200E+04  0.00000000000E+00 0. -1.
         24    2    1    2    0    0  0.10446106428E+03 -0.25173459636E+03 -0.15859590367E+04  0.16111591510E+04  0.79280026400E+02 0.  0.
        254    2    1    2    0    0 -0.10446106428E+03  0.25173459636E+03  0.19149148045E+04  0.21348096568E+04  0.90345511301E+03 0.  0.
         23    2    4    4    0    0 -0.50133298209E+02  0.11674930168E+03 -0.48187405580E+02  0.16417353554E+03  0.92125874136E+02 0.  0.
         23    2    4    4    0    0 -0.54327766069E+02  0.13498529468E+03  0.19631022101E+04  0.19706361213E+04  0.91999451796E+02 0.  0.
          4    1    3    3  502    0  0.49211180743E+02 -0.17339292627E+03 -0.12006623882E+04  0.12141157349E+04  0.00000000000E+00 0. -1.
         -3    1    3    3    0  502  0.55249883534E+02 -0.78341670084E+02 -0.38529664854E+03  0.39704341611E+03  0.00000000000E+00 0.  1.
         13    1    5    5    0    0  0.27809722472E+01 -0.13695674700E+02  0.31678377422E+01  0.14329707188E+02  0.00000000000E+00 0.  1.
        -13    1    5    5    0    0 -0.52914270456E+02  0.13044497638E+03 -0.51355243322E+02  0.14984382836E+03  0.00000000000E+00 0. -1.
          1    1    6    6  503    0 -0.30246206347E+01 -0.25976496728E+01  0.53308901546E+03  0.53310392469E+03  0.00000000000E+00 0. -1.
         -1    1    6    6    0  503 -0.51303145434E+02  0.13758294435E+03  0.14300131946E+04  0.14375321966E+04  0.00000000000E+00 0.  1.
<mgrwt>
<rscale>  0 0.37314971E+04</rscale>
<asrwt>0</asrwt>
<pdfrwt beam="1">  1        2 0.26284716E+00 0.37314971E+04</pdfrwt>
<pdfrwt beam="2">  1       -1 0.31345574E+00 0.37314971E+04</pdfrwt>
<totfact> 0.24035045E-01</totfact>
</mgrwt>
</event>
<event>
12    7  0.1729738E-007  0.2158631E+04  0.7818608E-02  0.8535847E-01
          2   -1    0    0  501    0  0.00000000000E+00  0.00000000000E+00  0.17589067344E+04  0.17589067344E+04  0.00000000000E+00 0. -1.
         -1   -1    0    0    0  501 -0.00000000000E+00 -0.00000000000E+00 -0.66229867906E+03  0.66229867906E+03  0.00000000000E+00 0.  1.
         24    2    1    2    0    0  0.47070814345E+03  0.25103816309E+03 -0.34674454292E+03  0.64108037478E+03  0.78523584031E+02 0.  0.
        254    2    1    2    0    0 -0.47070814345E+03 -0.25103816309E+03  0.14433525983E+04  0.17801250387E+04  0.89498162818E+03 0.  0.
         23    2    4    4    0    0 -0.61393917939E+03 -0.28539738884E+03  0.57033549439E+03  0.88998072148E+03  0.91706722202E+02 0.  0.
         23    2    4    4    0    0  0.14323103593E+03  0.34359225752E+02  0.87301710390E+03  0.89014431723E+03  0.92208219453E+02 0.  0.
          2    1    3    3  502    0  0.22153261129E+03  0.16253754754E+03 -0.17979804894E+03  0.32836335154E+03  0.00000000000E+00 0. -1.
         -1    1    3    3    0  502  0.24917553216E+03  0.88500615547E+02 -0.16694649398E+03  0.31271702325E+03  0.00000000000E+00 0.  1.
         13    1    5    5    0    0 -0.53229901314E+03 -0.21373947056E+03  0.49641601325E+03  0.75858793747E+03  0.00000000000E+00 0. -1.
        -13    1    5    5    0    0 -0.81640166245E+02 -0.71657918279E+02  0.73919481143E+02  0.13139278401E+03  0.00000000000E+00 0.  1.
          1    1    6    6  503    0  0.12280295595E+03 -0.10944299515E+02  0.65892788790E+03  0.67036281604E+03  0.00000000000E+00 0. -1.
         -1    1    6    6    0  503  0.20428079987E+02  0.45303525268E+02  0.21408921601E+03  0.21978150119E+03  0.00000000000E+00 0.  1.
<mgrwt>
<rscale>  0 0.21586307E+04</rscale>
<asrwt>0</asrwt>
<pdfrwt beam="1">  1        2 0.27060104E+00 0.21586307E+04</pdfrwt>
<pdfrwt beam="2">  1       -1 0.10189210E+00 0.21586307E+04</pdfrwt>
<totfact> 0.86697436E+00</totfact>
</mgrwt>
</event>
<event>
12    7  0.1729738E-007  0.2171806E+04  0.7818608E-02  0.8530255E-01
          2   -1    0    0  501    0  0.00000000000E+00  0.00000000000E+00  0.20007166292E+04  0.20007166292E+04  0.00000000000E+00 0. -1.
         -1   -1    0    0    0  501 -0.00000000000E+00 -0.00000000000E+00 -0.58938158547E+03  0.58938158547E+03  0.00000000000E+00 0.  1.
         24    2    1    2    0    0 -0.82460749080E+03 -0.35662172194E+03  0.57237627770E+03  0.10683055036E+04  0.80656551024E+02 0.  0.
        254    2    1    2    0    0  0.82460749080E+03  0.35662172194E+03  0.83895876600E+03  0.15217927111E+04  0.89713136048E+03 0.  0.
         23    2    4    4    0    0  0.51824990792E+03  0.38784344091E+03  0.97464960303E+03  0.11739242499E+04  0.95659783555E+02 0.  0.
         23    2    4    4    0    0  0.30635758288E+03 -0.31221718964E+02 -0.13569083703E+03  0.34786846113E+03  0.88151566443E+02 0.  0.
          4    1    3    3  502    0 -0.44816109885E+03 -0.21704776005E+03  0.27648852852E+03  0.56956475230E+03  0.00000000000E+00 0. -1.
         -3    1    3    3    0  502 -0.37644639196E+03 -0.13957396190E+03  0.29588774918E+03  0.49874075126E+03  0.00000000000E+00 0.  1.
         13    1    5    5    0    0  0.52252256201E+03  0.38287318472E+03  0.96483030097E+03  0.11621184161E+04  0.00000000000E+00 0. -1.
        -13    1    5    5    0    0 -0.42726540862E+01  0.49702561831E+01  0.98193020678E+01  0.11805833836E+02  0.00000000000E+00 0.  1.
          3    1    6    6  503    0  0.12777373137E+03  0.47350614878E+01 -0.13625305411E+02  0.12858536535E+03  0.00000000000E+00 0. -1.
         -3    1    6    6    0  503  0.17858385152E+03 -0.35956780452E+02 -0.12206553162E+03  0.21928309578E+03  0.00000000000E+00 0.  1.
<mgrwt>
<rscale>  0 0.21718062E+04</rscale>
<asrwt>0</asrwt>
<pdfrwt beam="1">  1        2 0.30780256E+00 0.21718062E+04</pdfrwt>
<pdfrwt beam="2">  1       -1 0.90674091E-01 0.21718062E+04</pdfrwt>
<totfact> 0.82703572E+00</totfact>
</mgrwt>
</event>
<event>
12    7  0.1729738E-007  0.1264823E+04  0.7818608E-02  0.9057935E-01
          2   -1    0    0  501    0  0.00000000000E+00  0.00000000000E+00  0.34196526809E+04  0.34196526809E+04  0.00000000000E+00 0. -1.
         -1   -1    0    0    0  501 -0.00000000000E+00 -0.00000000000E+00 -0.11695467864E+03  0.11695467864E+03  0.00000000000E+00 0.  1.
         24    2    1    2    0    0  0.26748498861E+03  0.56031338651E+02  0.13384103521E+04  0.13682484379E+04  0.77934505927E+02 0.  0.
        254    2    1    2    0    0 -0.26748498861E+03 -0.56031338651E+02  0.19642876501E+04  0.21683589216E+04  0.87673639729E+03 0.  0.
         23    2    4    4    0    0  0.21420762317E+03 -0.22618825945E+03  0.36315892069E+03  0.48535706397E+03  0.81492596749E+02 0.  0.
         23    2    4    4    0    0 -0.48169261179E+03  0.17015692080E+03  0.16011287294E+04  0.16830018576E+04  0.88886976445E+02 0.  0.
          4    1    3    3  502    0  0.14972312116E+03  0.34039940999E+01  0.85002156953E+03  0.86311370563E+03  0.00000000000E+00 0. -1.
         -3    1    3    3    0  502  0.11776186746E+03  0.52627344551E+02  0.48838878257E+03  0.50513473228E+03  0.00000000000E+00 0.  1.
         13    1    5    5    0    0  0.80457136079E+02 -0.14205389660E+03  0.20093068219E+03  0.25889341307E+03  0.00000000000E+00 0.  1.
        -13    1    5    5    0    0  0.13375048710E+03 -0.84134362849E+02  0.16222823851E+03  0.22646365090E+03  0.00000000000E+00 0. -1.
          3    1    6    6  503    0 -0.25508387032E+03  0.44266536901E+02  0.76648802198E+03  0.80903102229E+03  0.00000000000E+00 0. -1.
         -3    1    6    6    0  503 -0.22660874146E+03  0.12589038390E+03  0.83464070745E+03  0.87397083533E+03  0.00000000000E+00 0.  1.
<mgrwt>
<rscale>  0 0.12648231E+04</rscale>
<asrwt>0</asrwt>
<pdfrwt beam="1">  1        2 0.52610034E+00 0.12648231E+04</pdfrwt>
<pdfrwt beam="2">  1       -1 0.17993030E-01 0.12648231E+04</pdfrwt>
<totfact> 0.25760125E+01</totfact>
</mgrwt>
</event>
<event>
12    7  0.1729738E-007  0.1359826E+04  0.7818608E-02  0.8983423E-01
          2   -1    0    0  501    0  0.00000000000E+00  0.00000000000E+00  0.35971979611E+03  0.35971979611E+03  0.00000000000E+00 0. -1.
         -1   -1    0    0    0  501 -0.00000000000E+00 -0.00000000000E+00 -0.12851163558E+04  0.12851163558E+04  0.00000000000E+00 0.  1.
         24    2    1    2    0    0  0.26679401940E+03 -0.16418065600E+03 -0.40929395324E+01  0.32329860993E+03  0.79817933042E+02 0.  0.
        254    2    1    2    0    0 -0.26679401940E+03  0.16418065600E+03 -0.92130362019E+03  0.13215375420E+04  0.89416261259E+03 0.  0.
         23    2    4    4    0    0 -0.12813426109E+03  0.14987004720E+03 -0.10744273704E+04  0.10961352130E+04  0.90767897218E+02 0.  0.
         23    2    4    4    0    0 -0.13865975831E+03  0.14310608803E+02  0.15312375018E+03  0.22540232896E+03  0.89039344834E+02 0.  0.
          2    1    3    3  502    0  0.25715492581E+03 -0.13585994637E+03  0.82048534879E+01  0.29095343359E+03  0.00000000000E+00 0. -1.
         -1    1    3    3    0  502  0.96390935880E+01 -0.28320709630E+02 -0.12297793020E+02  0.32345176338E+02  0.00000000000E+00 0.  1.
         13    1    5    5    0    0 -0.40576045026E+02  0.14709889886E+01 -0.13262825368E+03  0.13870412003E+03  0.00000000000E+00 0. -1.
        -13    1    5    5    0    0 -0.87558216061E+02  0.14839905821E+03 -0.94179911669E+03  0.95743109302E+03  0.00000000000E+00 0.  1.
          4    1    6    6  503    0 -0.23759778313E+02 -0.11967974663E+02 -0.61051269745E+01  0.27295275385E+02  0.00000000000E+00 0. -1.
         -4    1    6    6    0  503 -0.11489998000E+03  0.26278583466E+02  0.15922887716E+03  0.19810705357E+03  0.00000000000E+00 0.  1.
<mgrwt>
<rscale>  0 0.13598262E+04</rscale>
<asrwt>0</asrwt>
<pdfrwt beam="1">  1        2 0.55341507E-01 0.13598262E+04</pdfrwt>
<pdfrwt beam="2">  1       -1 0.19771021E+00 0.13598262E+04</pdfrwt>
<totfact> 0.15629302E+01</totfact>
</mgrwt>
</event>
<event>
12    7  0.1729738E-007  0.2724006E+04  0.7818608E-02  0.8327258E-01
         -3   -1    0    0    0  501 -0.00000000000E+00  0.00000000000E+00  0.82248772994E+03  0.82248772994E+03  0.00000000000E+00 0.  1.
          4   -1    0    0  501    0  0.00000000000E+00 -0.00000000000E+00 -0.22554159475E+04  0.22554159475E+04  0.00000000000E+00 0. -1.
         24    2    1    2    0    0  0.71872328838E+03 -0.76230889319E+03  0.50458666809E+02  0.10519695760E+04  0.80099299629E+02 0.  0.
        254    2    1    2    0    0 -0.71872328838E+03  0.76230889319E+03 -0.14833868844E+04  0.20259341015E+04  0.89793892940E+03 0.  0.
         23    2    4    4    0    0 -0.87122815294E+03  0.81163484260E+03 -0.12913403433E+04  0.17586546347E+04  0.86698497654E+02 0.  0.
         23    2    4    4    0    0  0.15250486457E+03 -0.49325949407E+02 -0.19204654105E+03  0.26727946683E+03  0.94157614984E+02 0.  0.
          4    1    3    3  502    0  0.78069298121E+02 -0.11647160000E+03 -0.76263666451E+01  0.14042296958E+03  0.00000000000E+00 0. -1.
         -3    1    3    3    0  502  0.64065399026E+03 -0.64583729319E+03  0.58085033454E+02  0.91154660639E+03  0.00000000000E+00 0.  1.
         13    1    5    5    0    0 -0.51028163720E+03  0.42546900997E+03 -0.75268990112E+03  0.10039687819E+04  0.00000000000E+00 0.  1.
        -13    1    5    5    0    0 -0.36094651574E+03  0.38616583263E+03 -0.53865044221E+03  0.75468585280E+03  0.00000000000E+00 0. -1.
          4    1    6    6  503    0 -0.23317569499E+01 -0.92651185858E+01  0.70692120782E+01  0.11885001989E+02  0.00000000000E+00 0. -1.
         -4    1    6    6    0  503  0.15483662152E+03 -0.40060830821E+02 -0.19911575312E+03  0.25539446484E+03  0.00000000000E+00 0.  1.
<mgrwt>
<rscale>  0 0.27240058E+04</rscale>
<asrwt>0</asrwt>
<pdfrwt beam="1">  1        4 0.34698707E+00 0.27240058E+04</pdfrwt>
<pdfrwt beam="2">  1       -3 0.12653657E+00 0.27240058E+04</pdfrwt>
<totfact> 0.15284264E-02</totfact>
</mgrwt>
</event>
<event>
12    7  0.1729738E-007  0.1524090E+04  0.7818608E-02  0.8868590E-01
         -1   -1    0    0    0  501 -0.00000000000E+00  0.00000000000E+00  0.31089609699E+03  0.31089609699E+03  0.00000000000E+00 0.  1.
          2   -1    0    0  501    0  0.00000000000E+00 -0.00000000000E+00 -0.18678661682E+04  0.18678661682E+04  0.00000000000E+00 0. -1.
         24    2    1    2    0    0  0.42246119421E+03 -0.55247776436E+02 -0.14945700835E+03  0.46439219135E+03  0.10861368527E+03 0.  0.
        254    2    1    2    0    0 -0.42246119421E+03  0.55247776436E+02 -0.14075130628E+04  0.17143700738E+04  0.88116170509E+03 0.  0.
         23    2    4    4    0    0 -0.58888332797E+03 -0.79532054629E+02 -0.13443543240E+04  0.14726351196E+04  0.90866524910E+02 0.  0.
         23    2    4    4    0    0  0.16642213376E+03  0.13477983106E+03 -0.63158738868E+02  0.24173495424E+03  0.92654370332E+02 0.  0.
          2    1    3    3  502    0  0.28792809497E+03 -0.13642351117E+02 -0.14695624213E+03  0.32355036504E+03  0.00000000000E+00 0. -1.
         -1    1    3    3    0  502  0.13453309924E+03 -0.41605425319E+02 -0.25007662234E+01  0.14084182631E+03  0.00000000000E+00 0.  1.
         13    1    5    5    0    0 -0.23100151742E+03 -0.15793972988E+01 -0.44075652450E+03  0.49762486818E+03  0.00000000000E+00 0.  1.
        -13    1    5    5    0    0 -0.35788181055E+03 -0.77952657330E+02 -0.90359779946E+03  0.97501025139E+03  0.00000000000E+00 0. -1.
          4    1    6    6  503    0  0.13017400717E+03  0.13384449314E+03 -0.23797856232E+02  0.18821784838E+03  0.00000000000E+00 0. -1.
         -4    1    6    6    0  503  0.36248126589E+02  0.93533792104E+00 -0.39360882636E+02  0.53517105865E+02  0.00000000000E+00 0.  1.
<mgrwt>
<rscale>  0 0.15240896E+04</rscale>
<asrwt>0</asrwt>
<pdfrwt beam="1">  1        2 0.28736403E+00 0.15240896E+04</pdfrwt>
<pdfrwt beam="2">  1       -1 0.47830169E-01 0.15240896E+04</pdfrwt>
<totfact> 0.37959631E+01</totfact>
</mgrwt>
</event>
<event>
12    7  0.1729738E-007  0.3445536E+04  0.7818608E-02  0.8126820E-01
         -1   -1    0    0    0  501 -0.00000000000E+00  0.00000000000E+00  0.19211069636E+04  0.19211069636E+04  0.00000000000E+00 0.  1.
          2   -1    0    0  501    0  0.00000000000E+00 -0.00000000000E+00 -0.15449063343E+04  0.15449063343E+04  0.00000000000E+00 0. -1.
         24    2    1    2    0    0 -0.55268855160E+03 -0.12580026422E+04 -0.65396068631E+03  0.15238379458E+04  0.79888816012E+02 0.  0.
        254    2    1    2    0    0  0.55268855160E+03  0.12580026422E+04  0.10301613156E+04  0.19421753521E+04  0.90707082369E+03 0.  0.
         23    2    4    4    0    0 -0.75560655144E+02 -0.71991697271E+02 -0.88867258878E+01  0.13875330415E+03  0.91001584792E+02 0.  0.
         23    2    4    4    0    0  0.62824920675E+03  0.13299943395E+04  0.10390480415E+04  0.18034220479E+04  0.95541831737E+02 0.  0.
          2    1    3    3  502    0 -0.18429675673E+03 -0.42076799142E+03 -0.17725971885E+03  0.49237384686E+03  0.00000000000E+00 0. -1.
         -1    1    3    3    0  502 -0.36839179488E+03 -0.83723465077E+03 -0.47670096746E+03  0.10314640989E+04  0.00000000000E+00 0.  1.
         13    1    5    5    0    0 -0.94488643311E+02 -0.47949434193E+02  0.28072003105E+01  0.10599590713E+03  0.00000000000E+00 0.  1.
        -13    1    5    5    0    0  0.18927988167E+02 -0.24042263079E+02 -0.11693926198E+02  0.32757397026E+02  0.00000000000E+00 0. -1.
          1    1    6    6  503    0  0.42268022525E+03  0.96838081932E+03  0.70917075664E+03  0.12725341434E+04  0.00000000000E+00 0. -1.
         -1    1    6    6    0  503  0.20556898150E+03  0.36161352014E+03  0.32987728485E+03  0.53088790452E+03  0.00000000000E+00 0.  1.
<mgrwt>
<rscale>  0 0.34455364E+04</rscale>
<asrwt>0</asrwt>
<pdfrwt beam="1">  1        2 0.23767790E+00 0.34455364E+04</pdfrwt>
<pdfrwt beam="2">  1       -1 0.29555492E+00 0.34455364E+04</pdfrwt>
<totfact> 0.39704639E-01</totfact>
</mgrwt>
</event>
<event>
12    7  0.1729738E-007  0.1656291E+04  0.7818608E-02  0.8786694E-01
          2   -1    0    0  501    0  0.00000000000E+00  0.00000000000E+00  0.14428673242E+04  0.14428673242E+04  0.00000000000E+00 0. -1.
         -1   -1    0    0    0  501 -0.00000000000E+00 -0.00000000000E+00 -0.47532072914E+03  0.47532072914E+03  0.00000000000E+00 0.  1.
         24    2    1    2    0    0  0.23873120684E+03  0.19927534713E+03  0.93936440840E+03  0.99274983338E+03  0.80271332554E+02 0.  0.
        254    2    1    2    0    0 -0.23873120684E+03 -0.19927534713E+03  0.28182186658E+02  0.92543821994E+03  0.87117071243E+03 0.  0.
         23    2    4    4    0    0  0.23543427461E+03 -0.17671169389E+03  0.24820370343E+03  0.39436038282E+03  0.85198079300E+02 0.  0.
         23    2    4    4    0    0 -0.47416548145E+03 -0.22563653239E+02 -0.22002151678E+03  0.53107783713E+03  0.91061402321E+02 0.  0.
          4    1    3    3  502    0  0.91582304642E+02  0.11271571623E+03  0.52180263640E+03  0.54163654101E+03  0.00000000000E+00 0. -1.
         -3    1    3    3    0  502  0.14714890220E+03  0.86559630898E+02  0.41756177200E+03  0.45111329237E+03  0.00000000000E+00 0.  1.
         13    1    5    5    0    0  0.22391415441E+03 -0.14574841811E+03  0.19142431837E+03  0.32866916434E+03  0.00000000000E+00 0.  1.
        -13    1    5    5    0    0  0.11520120207E+02 -0.30963275787E+02  0.56779385061E+02  0.65691218476E+02  0.00000000000E+00 0. -1.
          1    1    6    6  503    0 -0.47246864815E+02  0.23870370237E+02 -0.35127444180E+02  0.63529506095E+02  0.00000000000E+00 0. -1.
         -1    1    6    6    0  503 -0.42691861664E+03 -0.46434023475E+02 -0.18489407260E+03  0.46754833103E+03  0.00000000000E+00 0.  1.
<mgrwt>
<rscale>  0 0.16562907E+04</rscale>
<asrwt>0</asrwt>
<pdfrwt beam="1">  1        2 0.22197959E+00 0.16562907E+04</pdfrwt>
<pdfrwt beam="2">  1       -1 0.73126267E-01 0.16562907E+04</pdfrwt>
<totfact> 0.28051942E+01</totfact>
</mgrwt>
</event>
<event>
12    7  0.1729738E-007  0.1949010E+04  0.7818608E-02  0.8630838E-01
          2   -1    0    0  501    0  0.00000000000E+00  0.00000000000E+00  0.81998619682E+03  0.81998619682E+03  0.00000000000E+00 0. -1.
         -1   -1    0    0    0  501 -0.00000000000E+00 -0.00000000000E+00 -0.11581417933E+04  0.11581417933E+04  0.00000000000E+00 0.  1.
         24    2    1    2    0    0  0.25545168051E+03 -0.97580119083E+02 -0.84383447408E+03  0.89037978108E+03  0.77084980314E+02 0.  0.
        254    2    1    2    0    0 -0.25545168051E+03  0.97580119083E+02  0.50567887757E+03  0.10877482091E+04  0.92342167963E+03 0.  0.
         23    2    4    4    0    0 -0.28057976735E+03  0.30435063020E+03  0.68015537080E+03  0.80152798539E+03  0.92094901957E+02 0.  0.
         23    2    4    4    0    0  0.25128086844E+02 -0.20677051112E+03 -0.17447649324E+03  0.28622022369E+03  0.89969465595E+02 0.  0.
          4    1    3    3  502    0  0.11633801114E+02  0.59160407115E+01 -0.13314017455E+02  0.18644246481E+02  0.00000000000E+00 0. -1.
         -1    1    3    3    0  502  0.24381787940E+03 -0.10349615979E+03 -0.83052045663E+03  0.87173553460E+03  0.00000000000E+00 0.  1.
         13    1    5    5    0    0 -0.18710248929E+03  0.22214425131E+03  0.39410462424E+03  0.48956497499E+03  0.00000000000E+00 0. -1.
        -13    1    5    5    0    0 -0.93477278067E+02  0.82206378893E+02  0.28605074656E+03  0.31196301039E+03  0.00000000000E+00 0.  1.
          4    1    6    6  503    0 -0.67409599627E+01 -0.11164612610E+03 -0.14202760274E+03  0.18078201779E+03  0.00000000000E+00 0. -1.
         -4    1    6    6    0  503  0.31869046806E+02 -0.95124385019E+02 -0.32448890495E+02  0.10543820590E+03  0.00000000000E+00 0.  1.
<mgrwt>
<rscale>  0 0.19490103E+04</rscale>
<asrwt>0</asrwt>
<pdfrwt beam="1">  1        2 0.12615172E+00 0.19490103E+04</pdfrwt>
<pdfrwt beam="2">  1       -1 0.17817566E+00 0.19490103E+04</pdfrwt>
<totfact> 0.76105464E+00</totfact>
</mgrwt>
</event>
<event>
12    7  0.1729738E-007  0.1525495E+04  0.7818608E-02  0.8867674E-01
          2   -1    0    0  501    0  0.00000000000E+00  0.00000000000E+00  0.15606701189E+04  0.15606701189E+04  0.00000000000E+00 0. -1.
         -1   -1    0    0    0  501 -0.00000000000E+00 -0.00000000000E+00 -0.37277796992E+03  0.37277796992E+03  0.00000000000E+00 0.  1.
         24    2    1    2    0    0 -0.41934349879E+03  0.21468063517E+03  0.20872559919E+03  0.52282107502E+03  0.88536747321E+02 0.  0.
        254    2    1    2    0    0  0.41934349879E+03 -0.21468063517E+03  0.97916654975E+03  0.14106270138E+04  0.89953582180E+03 0.  0.
         23    2    4    4    0    0  0.43081218187E+03 -0.48278764485E+03  0.40072819155E+03  0.76649085345E+03  0.90786005845E+02 0.  0.
         23    2    4    4    0    0 -0.11468683075E+02  0.26810700967E+03  0.57843835821E+03  0.64413616032E+03  0.91145814247E+02 0.  0.
          4    1    3    3  502    0 -0.13084894520E+02 -0.73481145667E+01  0.82088706538E-01  0.15007197967E+02  0.00000000000E+00 0. -1.
         -3    1    3    3    0  502 -0.40625860427E+03  0.22202874974E+03  0.20864351049E+03  0.50781387705E+03  0.00000000000E+00 0.  1.
         13    1    5    5    0    0  0.40566936176E+03 -0.45489487966E+03  0.39979714006E+03  0.72892711283E+03  0.00000000000E+00 0. -1.
        -13    1    5    5    0    0  0.25142820111E+02 -0.27892765181E+02  0.93105148664E+00  0.37563740622E+02  0.00000000000E+00 0.  1.
          3    1    6    6  503    0 -0.51121625248E+02  0.13999418297E+03  0.29057699554E+03  0.32656818916E+03  0.00000000000E+00 0. -1.
         -3    1    6    6    0  503  0.39652942173E+02  0.12811282671E+03  0.28786136266E+03  0.31756797116E+03  0.00000000000E+00 0.  1.
<mgrwt>
<rscale>  0 0.15254946E+04</rscale>
<asrwt>0</asrwt>
<pdfrwt beam="1">  1        2 0.24010309E+00 0.15254946E+04</pdfrwt>
<pdfrwt beam="2">  1       -1 0.57350458E-01 0.15254946E+04</pdfrwt>
<totfact> 0.39691357E+01</totfact>
</mgrwt>
</event>
<event>
12    7  0.1729738E-007  0.1406900E+04  0.7818608E-02  0.8948839E-01
         -1   -1    0    0    0  501 -0.00000000000E+00  0.00000000000E+00  0.10605180890E+03  0.10605180890E+03  0.00000000000E+00 0.  1.
          2   -1    0    0  501    0  0.00000000000E+00 -0.00000000000E+00 -0.46660375999E+04  0.46660375999E+04  0.00000000000E+00 0. -1.
         24    2    1    2    0    0 -0.47917323875E+02  0.57949204853E+02 -0.27094857590E+04  0.27116915863E+04  0.79397738451E+02 0.  0.
        254    2    1    2    0    0  0.47917323875E+02 -0.57949204853E+02 -0.18505000320E+04  0.20603978225E+04  0.90290344896E+03 0.  0.
         23    2    4    4    0    0 -0.14033189812E+03 -0.41754788633E+03 -0.12673222431E+04  0.13441026066E+04  0.80416851997E+02 0.  0.
         23    2    4    4    0    0  0.18824922200E+03  0.35959868148E+03 -0.58317778889E+03  0.71629521591E+03  0.90738754485E+02 0.  0.
          2    1    3    3  502    0 -0.69256658563E+02  0.44355614511E+02 -0.22581928876E+04  0.22596900281E+04  0.00000000000E+00 0. -1.
         -1    1    3    3    0  502  0.21339334688E+02  0.13593590341E+02 -0.45129287137E+03  0.45200155824E+03  0.00000000000E+00 0.  1.
         13    1    5    5    0    0 -0.77464637339E+02 -0.24790144172E+03 -0.62576195769E+03  0.67752042223E+03  0.00000000000E+00 0. -1.
        -13    1    5    5    0    0 -0.62867260783E+02 -0.16964644461E+03 -0.64156028543E+03  0.66658218434E+03  0.00000000000E+00 0.  1.
          1    1    6    6  503    0  0.56851859694E+02  0.20409897624E+03 -0.31424804927E+03  0.37899915900E+03  0.00000000000E+00 0. -1.
         -1    1    6    6    0  503  0.13139736230E+03  0.15549970524E+03 -0.26892973962E+03  0.33729605691E+03  0.00000000000E+00 0.  1.
<mgrwt>
<rscale>  0 0.14068998E+04</rscale>
<asrwt>0</asrwt>
<pdfrwt beam="1">  1        2 0.71785182E+00 0.14068998E+04</pdfrwt>
<pdfrwt beam="2">  1       -1 0.16315666E-01 0.14068998E+04</pdfrwt>
<totfact> 0.27768020E+00</totfact>
</mgrwt>
</event>
<event>
12    7  0.1729738E-007  0.3937981E+04  0.7818608E-02  0.8017176E-01
          2   -1    0    0  501    0  0.00000000000E+00  0.00000000000E+00  0.32446505468E+04  0.32446505468E+04  0.00000000000E+00 0. -1.
         -1   -1    0    0    0  501 -0.00000000000E+00 -0.00000000000E+00 -0.11948665366E+04  0.11948665366E+04  0.00000000000E+00 0.  1.
         24    2    1    2    0    0  0.11016853291E+04 -0.29406905840E+03  0.26307856983E+04  0.28684069573E+04  0.80857323404E+02 0.  0.
        254    2    1    2    0    0 -0.11016853291E+04  0.29406905840E+03 -0.58100168813E+03  0.15711101260E+04  0.91139283030E+03 0.  0.
         23    2    4    4    0    0  0.27852271330E+02  0.17605309424E+02  0.16036250213E+03  0.18908045602E+03  0.94602277042E+02 0.  0.
         23    2    4    4    0    0 -0.11295376004E+04  0.27646374898E+03 -0.74136419026E+03  0.13820296700E+04  0.89987504615E+02 0.  0.
          4    1    3    3  502    0  0.59237600812E+03 -0.14350321556E+03  0.13106224268E+04  0.14454181587E+04  0.00000000000E+00 0. -1.
         -3    1    3    3    0  502  0.50930932095E+03 -0.15056584284E+03  0.13201632716E+04  0.14229887986E+04  0.00000000000E+00 0.  1.
         13    1    5    5    0    0 -0.23212795935E+02 -0.14081789404E+02  0.13342212399E+02  0.30251368889E+02  0.00000000000E+00 0.  1.
        -13    1    5    5    0    0  0.51065067264E+02  0.31687098828E+02  0.14702028973E+03  0.15882908713E+03  0.00000000000E+00 0. -1.
          1    1    6    6  503    0 -0.96293139386E+03  0.23134338877E+03 -0.59211904099E+03  0.11538464332E+04  0.00000000000E+00 0. -1.
         -1    1    6    6    0  503 -0.16660620655E+03  0.45120360210E+02 -0.14924514927E+03  0.22818323678E+03  0.00000000000E+00 0.  1.
<mgrwt>
<rscale>  0 0.39379814E+04</rscale>
<asrwt>0</asrwt>
<pdfrwt beam="1">  1        2 0.49917700E+00 0.39379814E+04</pdfrwt>
<pdfrwt beam="2">  1       -1 0.18382562E+00 0.39379814E+04</pdfrwt>
<totfact> 0.21293491E-01</totfact>
</mgrwt>
</event>
<event>
12    7  0.1729738E-007  0.1383764E+04  0.7818608E-02  0.8965656E-01
          2   -1    0    0  501    0  0.00000000000E+00  0.00000000000E+00  0.48421538521E+03  0.48421538521E+03  0.00000000000E+00 0. -1.
         -1   -1    0    0    0  501 -0.00000000000E+00 -0.00000000000E+00 -0.98861040895E+03  0.98861040895E+03  0.00000000000E+00 0.  1.
         24    2    1    2    0    0 -0.37719346385E+02  0.66847682800E+02  0.26525591705E+03  0.28581482808E+03  0.73743153141E+02 0.  0.
        254    2    1    2    0    0  0.37719346385E+02 -0.66847682800E+02 -0.76965094079E+03  0.11870109661E+04  0.90041162873E+03 0.  0.
         23    2    4    4    0    0  0.11769793117E+03  0.38278113090E+03 -0.21547468657E+03  0.46348292525E+03  0.89514715378E+02 0.  0.
         23    2    4    4    0    0 -0.79978584783E+02 -0.44962881370E+03 -0.55417625422E+03  0.72352804084E+03  0.88424323566E+02 0.  0.
          2    1    3    3  502    0 -0.12993497617E+02  0.70484185764E+02  0.23921677715E+03  0.24972288220E+03  0.00000000000E+00 0. -1.
         -1    1    3    3    0  502 -0.24725848768E+02 -0.36365029633E+01  0.26039139897E+02  0.36091945884E+02  0.00000000000E+00 0.  1.
         13    1    5    5    0    0  0.10984783351E+03  0.22029053876E+03 -0.14902376557E+03  0.28775432351E+03  0.00000000000E+00 0. -1.
        -13    1    5    5    0    0  0.78500976621E+01  0.16249059214E+03 -0.66450920997E+02  0.17572860174E+03  0.00000000000E+00 0.  1.
          4    1    6    6  503    0 -0.47706959670E+02 -0.91033296756E+02 -0.94375119410E+02  0.13953378904E+03  0.00000000000E+00 0. -1.
         -4    1    6    6    0  503 -0.32271625113E+02 -0.35859551695E+03 -0.45980113481E+03  0.58399425180E+03  0.00000000000E+00 0.  1.
<mgrwt>
<rscale>  0 0.13837635E+04</rscale>
<asrwt>0</asrwt>
<pdfrwt beam="1">  1        2 0.74494675E-01 0.13837635E+04</pdfrwt>
<pdfrwt beam="2">  1       -1 0.15209391E+00 0.13837635E+04</pdfrwt>
<totfact> 0.23936436E+01</totfact>
</mgrwt>
</event>
<event>
12    7  0.1729738E-007  0.1321938E+04  0.7818608E-02  0.9012347E-01
         -1   -1    0    0    0  501 -0.00000000000E+00  0.00000000000E+00  0.70506234386E+03  0.70506234386E+03  0.00000000000E+00 0.  1.
          2   -1    0    0  501    0  0.00000000000E+00 -0.00000000000E+00 -0.61963305060E+03  0.61963305060E+03  0.00000000000E+00 0. -1.
         24    2    1    2    0    0 -0.13414685208E+03 -0.26971447506E+03  0.20926611500E+03  0.37508090796E+03  0.78435353299E+02 0.  0.
        254    2    1    2    0    0  0.13414685208E+03  0.26971447506E+03 -0.12383682174E+03  0.94961448651E+03  0.89201504392E+03 0.  0.
         23    2    4    4    0    0 -0.18136563104E+03  0.90614098425E+02  0.30705980062E+03  0.37912730955E+03  0.91364045106E+02 0.  0.
         23    2    4    4    0    0  0.31551248311E+03  0.17910037664E+03 -0.43089662236E+03  0.57048717696E+03  0.90325234561E+02 0.  0.
          2    1    3    3  502    0 -0.22255738068E+02 -0.43481571736E+01  0.94904215845E+01  0.24582360538E+02  0.00000000000E+00 0. -1.
         -1    1    3    3    0  502 -0.11189111401E+03 -0.26536631789E+03  0.19977569342E+03  0.35049854742E+03  0.00000000000E+00 0.  1.
         13    1    5    5    0    0 -0.53018061899E+02 -0.82344150279E+01  0.40590054278E+02  0.67277581590E+02  0.00000000000E+00 0. -1.
        -13    1    5    5    0    0 -0.12834756914E+03  0.98848513452E+02  0.26646974634E+03  0.31184972796E+03  0.00000000000E+00 0.  1.
          3    1    6    6  503    0  0.31146461403E+03  0.15218780351E+03 -0.40020798197E+03  0.52946932127E+03  0.00000000000E+00 0. -1.
         -3    1    6    6    0  503  0.40478690873E+01  0.26912573131E+02 -0.30688640385E+02  0.41017855689E+02  0.00000000000E+00 0.  1.
<mgrwt>
<rscale>  0 0.13219379E+04</rscale>
<asrwt>0</asrwt>
<pdfrwt beam="1">  1        2 0.95328162E-01 0.13219379E+04</pdfrwt>
<pdfrwt beam="2">  1       -1 0.10847113E+00 0.13219379E+04</pdfrwt>
<totfact> 0.42091790E+01</totfact>
</mgrwt>
</event>
<event>
12    7  0.1729738E-007  0.1208542E+04  0.7818608E-02  0.9105412E-01
         -1   -1    0    0    0  501 -0.00000000000E+00  0.00000000000E+00  0.79909247417E+03  0.79909247417E+03  0.00000000000E+00 0.  1.
          2   -1    0    0  501    0  0.00000000000E+00 -0.00000000000E+00 -0.45694797050E+03  0.45694797050E+03  0.00000000000E+00 0. -1.
         24    2    1    2    0    0 -0.38233579571E+02  0.20915479039E+03 -0.55720169378E+02  0.22966167421E+03  0.66574877974E+02 0.  0.
        254    2    1    2    0    0  0.38233579571E+02 -0.20915479039E+03  0.39786467305E+03  0.10263787705E+04  0.92192708467E+03 0.  0.
         23    2    4    4    0    0  0.27998369055E+03 -0.48523933285E+03  0.22440190341E+03  0.61037943251E+03  0.91426255873E+02 0.  0.
         23    2    4    4    0    0 -0.24175011098E+03  0.27608454246E+03  0.17346276964E+03  0.41599933795E+03  0.91106124824E+02 0.  0.
          2    1    3    3  502    0 -0.38852920286E+02  0.18699111961E+03 -0.26247462777E+02  0.19278007555E+03  0.00000000000E+00 0. -1.
         -1    1    3    3    0  502  0.61934071493E+00  0.22163670777E+02 -0.29472706601E+02  0.36881598658E+02  0.00000000000E+00 0.  1.
         13    1    5    5    0    0  0.55432456141E+02 -0.16378944372E+03  0.42140700668E+02  0.17797634034E+03  0.00000000000E+00 0.  1.
        -13    1    5    5    0    0  0.22455123441E+03 -0.32144988913E+03  0.18226120274E+03  0.43240309217E+03  0.00000000000E+00 0. -1.
          2    1    6    6  503    0 -0.21860674335E+03  0.25365550724E+03  0.18401360720E+03  0.38208772845E+03  0.00000000000E+00 0. -1.
         -2    1    6    6    0  503 -0.23143367624E+02  0.22429035217E+02 -0.10550837564E+02  0.33911609502E+02  0.00000000000E+00 0.  1.
<mgrwt>
<rscale>  0 0.12085424E+04</rscale>
<asrwt>0</asrwt>
<pdfrwt beam="1">  1        2 0.70299687E-01 0.12085424E+04</pdfrwt>
<pdfrwt beam="2">  1       -1 0.12293730E+00 0.12085424E+04</pdfrwt>
<totfact> 0.44982672E+01</totfact>
</mgrwt>
</event>
<event>
12    7  0.1729738E-007  0.1638560E+04  0.7818608E-02  0.8797203E-01
         -1   -1    0    0    0  501 -0.00000000000E+00  0.00000000000E+00  0.44936373721E+03  0.44936373721E+03  0.00000000000E+00 0.  1.
          2   -1    0    0  501    0  0.00000000000E+00 -0.00000000000E+00 -0.14937104480E+04  0.14937104480E+04  0.00000000000E+00 0. -1.
         24    2    1    2    0    0 -0.42259449030E+02  0.13045011802E+03  0.29075274276E+03  0.33201532224E+03  0.83029648084E+02 0.  0.
        254    2    1    2    0    0  0.42259449030E+02 -0.13045011802E+03 -0.13350994536E+04  0.16110588630E+04  0.89118854053E+03 0.  0.
         23    2    4    4    0    0 -0.29273156461E+03  0.19470632765E+03 -0.29342964512E+03  0.46594139328E+03  0.86012222330E+02 0.  0.
         23    2    4    4    0    0  0.33499101364E+03 -0.32515644566E+03 -0.10416698085E+04  0.11451174697E+04  0.90952384322E+02 0.  0.
          2    1    3    3  502    0  0.24300416675E+02  0.43630549500E+02  0.10866135404E+03  0.11958856535E+03  0.00000000000E+00 0. -1.
         -1    1    3    3    0  502 -0.66559865705E+02  0.86819568516E+02  0.18209138871E+03  0.21242675689E+03  0.00000000000E+00 0.  1.
         13    1    5    5    0    0 -0.41315424357E+02  0.68362565146E+02 -0.53283254652E+02  0.96018278622E+02  0.00000000000E+00 0. -1.
        -13    1    5    5    0    0 -0.25141614026E+03  0.12634376250E+03 -0.24014639047E+03  0.36992311466E+03  0.00000000000E+00 0.  1.
          2    1    6    6  503    0  0.95537747348E+02 -0.15186185703E+03 -0.36528642369E+03  0.40696886382E+03  0.00000000000E+00 0. -1.
         -2    1    6    6    0  503  0.23945326629E+03 -0.17329458863E+03 -0.67638338478E+03  0.73814860590E+03  0.00000000000E+00 0.  1.
<mgrwt>
<rscale>  0 0.16385595E+04</rscale>
<asrwt>0</asrwt>
<pdfrwt beam="1">  1        2 0.22980161E+00 0.16385595E+04</pdfrwt>
<pdfrwt beam="2">  1       -1 0.69132883E-01 0.16385595E+04</pdfrwt>
<totfact> 0.29514514E+01</totfact>
</mgrwt>
</event>
<event>
12    7  0.1729738E-007  0.2783226E+04  0.7818608E-02  0.8308495E-01
         -1   -1    0    0    0  501 -0.00000000000E+00  0.00000000000E+00  0.13844968992E+04  0.13844968992E+04  0.00000000000E+00 0.  1.
          2   -1    0    0  501    0  0.00000000000E+00 -0.00000000000E+00 -0.13987652516E+04  0.13987652516E+04  0.00000000000E+00 0. -1.
         24    2    1    2    0    0  0.42103338647E+03  0.56159160806E+03 -0.10337201684E+04  0.12520739595E+04  0.80358986813E+02 0.  0.
        254    2    1    2    0    0 -0.42103338647E+03 -0.56159160806E+03  0.10194518160E+04  0.15311881914E+04  0.90144385605E+03 0.  0.
         23    2    4    4    0    0  0.12901804237E+03 -0.50087720807E+03  0.25637265633E+03  0.58426929726E+03  0.90111264504E+02 0.  0.
         23    2    4    4    0    0 -0.55005142884E+03 -0.60714399993E+02  0.76307915963E+03  0.94691889412E+03  0.90126441458E+02 0.  0.
          4    1    3    3  502    0  0.34830135170E+03  0.45093784260E+03 -0.88889904381E+03  0.10558410295E+04  0.00000000000E+00 0. -1.
         -3    1    3    3    0  502  0.72732034774E+02  0.11065376546E+03 -0.14482112455E+03  0.19623292998E+03  0.00000000000E+00 0.  1.
         13    1    5    5    0    0  0.42094448014E+02 -0.31399478551E+03  0.18065331035E+03  0.36469204327E+03  0.00000000000E+00 0.  1.
        -13    1    5    5    0    0  0.86923594354E+02 -0.18688242255E+03  0.75719345978E+02  0.21957725399E+03  0.00000000000E+00 0. -1.
          4    1    6    6  503    0 -0.19790180545E+03 -0.64075697899E+02  0.30287469179E+03  0.36742876668E+03  0.00000000000E+00 0. -1.
         -4    1    6    6    0  503 -0.35214962338E+03  0.33612979063E+01  0.46020446784E+03  0.57949012744E+03  0.00000000000E+00 0.  1.
<mgrwt>
<rscale>  0 0.27832256E+04</rscale>
<asrwt>0</asrwt>
<pdfrwt beam="1">  1        2 0.21519465E+00 0.27832256E+04</pdfrwt>
<pdfrwt beam="2">  1       -1 0.21299952E+00 0.27832256E+04</pdfrwt>
<totfact> 0.17647313E+00</totfact>
</mgrwt>
</event>
<event>
12    7  0.1729738E-007  0.2442104E+04  0.7818608E-02  0.8423906E-01
          2   -1    0    0  501    0  0.00000000000E+00  0.00000000000E+00  0.36414116360E+04  0.36414116360E+04  0.00000000000E+00 0. -1.
         -1   -1    0    0    0  501 -0.00000000000E+00 -0.00000000000E+00 -0.40944787035E+03  0.40944787035E+03  0.00000000000E+00 0.  1.
         24    2    1    2    0    0 -0.26002701513E+03  0.90226521148E+03  0.21962952211E+04  0.23901859552E+04  0.87061138707E+02 0.  0.
        254    2    1    2    0    0  0.26002701513E+03 -0.90226521148E+03  0.10356685445E+04  0.16606735511E+04  0.89639876660E+03 0.  0.
         23    2    4    4    0    0  0.52934838287E+03 -0.74071286009E+03  0.52636171943E+03  0.10556504417E+04  0.92064889599E+02 0.  0.
         23    2    4    4    0    0 -0.26932136774E+03 -0.16155235138E+03  0.50930682507E+03  0.60502310935E+03  0.89589951570E+02 0.  0.
          2    1    3    3  502    0 -0.18169992036E+03  0.68137826034E+03  0.17330649331E+04  0.18710438950E+04  0.00000000000E+00 0. -1.
         -1    1    3    3    0  502 -0.78327094774E+02  0.22088695114E+03  0.46323028802E+03  0.51914206023E+03  0.00000000000E+00 0.  1.
         13    1    5    5    0    0  0.12535294237E+02 -0.45178967849E+02  0.41976123998E+02  0.62930658056E+02  0.00000000000E+00 0.  1.
        -13    1    5    5    0    0  0.51681308863E+03 -0.69553389225E+03  0.48438559543E+03  0.99271978368E+03  0.00000000000E+00 0. -1.
          1    1    6    6  503    0 -0.19787817138E+03 -0.14221954681E+03  0.44325212321E+03  0.50582073399E+03  0.00000000000E+00 0. -1.
         -1    1    6    6    0  503 -0.71443196359E+02 -0.19332804571E+02  0.66054701861E+02  0.99202375357E+02  0.00000000000E+00 0.  1.
<mgrwt>
<rscale>  0 0.24421042E+04</rscale>
<asrwt>0</asrwt>
<pdfrwt beam="1">  1        2 0.56021715E+00 0.24421042E+04</pdfrwt>
<pdfrwt beam="2">  1       -1 0.62991983E-01 0.24421042E+04</pdfrwt>
<totfact> 0.16825915E+00</totfact>
</mgrwt>
</event>
<event>
12    7  0.1729738E-007  0.1740894E+04  0.7818608E-02  0.8738379E-01
          2   -1    0    0  501    0  0.00000000000E+00  0.00000000000E+00  0.82790656909E+03  0.82790656909E+03  0.00000000000E+00 0. -1.
         -1   -1    0    0    0  501 -0.00000000000E+00 -0.00000000000E+00 -0.91517287852E+03  0.91517287852E+03  0.00000000000E+00 0.  1.
         24    2    1    2    0    0 -0.43901591306E+03  0.45098670304E+03  0.67070566112E+02  0.63800363944E+03  0.80163613085E+02 0.  0.
        254    2    1    2    0    0  0.43901591306E+03 -0.45098670304E+03 -0.15433687555E+03  0.11050758082E+04  0.89512495910E+03 0.  0.
         23    2    4    4    0    0 -0.56672436155E+02  0.13675363136E+03  0.19132365560E+03  0.25705631417E+03  0.86947609241E+02 0.  0.
         23    2    4    4    0    0  0.49568834922E+03 -0.58774033440E+03 -0.34566053115E+03  0.84801949400E+03  0.92250849184E+02 0.  0.
          4    1    3    3  502    0 -0.28122733921E+03  0.26849308702E+03  0.47892248061E+01  0.38884481579E+03  0.00000000000E+00 0. -1.
         -3    1    3    3    0  502 -0.15778857385E+03  0.18249361602E+03  0.62281341306E+02  0.24915882365E+03  0.00000000000E+00 0.  1.
         13    1    5    5    0    0  0.73140336953E+01  0.62007314017E+02  0.32928028854E+02  0.70587939230E+02  0.00000000000E+00 0. -1.
        -13    1    5    5    0    0 -0.63986469851E+02  0.74746317339E+02  0.15839562675E+03  0.18646837494E+03  0.00000000000E+00 0.  1.
          3    1    6    6  503    0  0.70315871975E+02 -0.42768400191E+02 -0.48512095020E+02  0.95534712381E+02  0.00000000000E+00 0. -1.
         -3    1    6    6    0  503  0.42537247724E+03 -0.54497193420E+03 -0.29714843613E+03  0.75248478162E+03  0.00000000000E+00 0.  1.
<mgrwt>
<rscale>  0 0.17408936E+04</rscale>
<asrwt>0</asrwt>
<pdfrwt beam="1">  1        2 0.12737024E+00 0.17408936E+04</pdfrwt>
<pdfrwt beam="2">  1       -1 0.14079583E+00 0.17408936E+04</pdfrwt>
<totfact> 0.14710125E+01</totfact>
</mgrwt>
</event>
<event>
12    7  0.1729738E-007  0.3146537E+04  0.7818608E-02  0.8203081E-01
          2   -1    0    0  501    0  0.00000000000E+00  0.00000000000E+00  0.22020768327E+04  0.22020768327E+04  0.00000000000E+00 0. -1.
         -1   -1    0    0    0  501 -0.00000000000E+00 -0.00000000000E+00 -0.11240182428E+04  0.11240182428E+04  0.00000000000E+00 0.  1.
         24    2    1    2    0    0  0.12719783972E+04 -0.67722689936E+03  0.38845877527E+03  0.14947082816E+04  0.81775979739E+02 0.  0.
        254    2    1    2    0    0 -0.12719783972E+04  0.67722689936E+03  0.68959981465E+03  0.18313867940E+04  0.89546879824E+03 0.  0.
         23    2    4    4    0    0 -0.13597243091E+04  0.72882827805E+03  0.56893475454E+03  0.16467569777E+04  0.89894010679E+02 0.  0.
         23    2    4    4    0    0  0.87745911901E+02 -0.51601378688E+02  0.12066506011E+03  0.18462981624E+03  0.95739568504E+02 0.  0.
          4    1    3    3  502    0  0.77337515892E+03 -0.44636969054E+03  0.21414813103E+03  0.91826709572E+03  0.00000000000E+00 0. -1.
         -3    1    3    3    0  502  0.49860323826E+03 -0.23085720882E+03  0.17431064424E+03  0.57644118587E+03  0.00000000000E+00 0.  1.
         13    1    5    5    0    0 -0.18260553094E+03  0.12801993493E+03  0.10052449611E+03  0.24462023217E+03  0.00000000000E+00 0. -1.
        -13    1    5    5    0    0 -0.11771187781E+04  0.60080834311E+03  0.46841025843E+03  0.14021367455E+04  0.00000000000E+00 0.  1.
          4    1    6    6  503    0 -0.14727656317E+02 -0.61178383420E+01  0.49092132658E+02  0.51617528955E+02  0.00000000000E+00 0. -1.
         -4    1    6    6    0  503  0.10247356822E+03 -0.45483540346E+02  0.71572927449E+02  0.13301228729E+03  0.00000000000E+00 0.  1.
<mgrwt>
<rscale>  0 0.31465375E+04</rscale>
<asrwt>0</asrwt>
<pdfrwt beam="1">  1        2 0.33878105E+00 0.31465375E+04</pdfrwt>
<pdfrwt beam="2">  1       -1 0.17292588E+00 0.31465375E+04</pdfrwt>
<totfact> 0.11598745E+00</totfact>
</mgrwt>
</event>
<event>
12    7  0.1729738E-007  0.2255083E+04  0.7818608E-02  0.8495845E-01
          2   -1    0    0  501    0  0.00000000000E+00  0.00000000000E+00  0.17083944580E+04  0.17083944580E+04  0.00000000000E+00 0. -1.
         -1   -1    0    0    0  501 -0.00000000000E+00 -0.00000000000E+00 -0.74417846975E+03  0.74417846975E+03  0.00000000000E+00 0.  1.
         24    2    1    2    0    0 -0.44203460003E+03 -0.48326852063E+03  0.11488279782E+04  0.13246937928E+04  0.77877278289E+02 0.  0.
        254    2    1    2    0    0  0.44203460003E+03  0.48326852063E+03 -0.18461198995E+03  0.11278791350E+04  0.89949247115E+03 0.  0.
         23    2    4    4    0    0  0.46212071557E+02  0.15260479076E+03 -0.48910310322E+03  0.52233488764E+03  0.90488184592E+02 0.  0.
         23    2    4    4    0    0  0.39582252847E+03  0.33066372987E+03  0.30449111326E+03  0.60554424734E+03  0.89190925227E+02 0.  0.
          4    1    3    3  502    0 -0.24933501494E+03 -0.30739580126E+03  0.75167976465E+03  0.84951903857E+03  0.00000000000E+00 0. -1.
         -3    1    3    3    0  502 -0.19269958509E+03 -0.17587271937E+03  0.39714821358E+03  0.47517475423E+03  0.00000000000E+00 0.  1.
         13    1    5    5    0    0  0.23514672964E+02  0.66586849769E+02 -0.35118128154E+03  0.35821088887E+03  0.00000000000E+00 0. -1.
        -13    1    5    5    0    0  0.22697398594E+02  0.86017940996E+02 -0.13792182168E+03  0.16412399877E+03  0.00000000000E+00 0.  1.
          3    1    6    6  503    0  0.29483102608E+03  0.29266407662E+03  0.23708497631E+03  0.47831671691E+03  0.00000000000E+00 0. -1.
         -3    1    6    6    0  503  0.10099150239E+03  0.37999653248E+02  0.67406136951E+02  0.12722753044E+03  0.00000000000E+00 0.  1.
<mgrwt>
<rscale>  0 0.22550835E+04</rscale>
<asrwt>0</asrwt>
<pdfrwt beam="1">  1        2 0.26282992E+00 0.22550835E+04</pdfrwt>
<pdfrwt beam="2">  1       -1 0.11448900E+00 0.22550835E+04</pdfrwt>
<totfact> 0.69742199E+00</totfact>
</mgrwt>
</event>
<event>
12    7  0.1729738E-007  0.1484012E+04  0.7818608E-02  0.8895155E-01
         -1   -1    0    0    0  501 -0.00000000000E+00  0.00000000000E+00  0.39556827810E+03  0.39556827810E+03  0.00000000000E+00 0.  1.
          2   -1    0    0  501    0  0.00000000000E+00 -0.00000000000E+00 -0.13918537378E+04  0.13918537378E+04  0.00000000000E+00 0. -1.
         24    2    1    2    0    0 -0.26148746142E+03  0.28324201268E+03 -0.61040213307E+03  0.72664248717E+03  0.82563974521E+02 0.  0.
        254    2    1    2    0    0  0.26148746142E+03 -0.28324201268E+03 -0.38588332665E+03  0.10607795287E+04  0.90980521903E+03 0.  0.
         23    2    4    4    0    0 -0.19412378850E+03 -0.40019923470E+03 -0.13918300136E+02  0.45417527523E+03  0.90763367284E+02 0.  0.
         23    2    4    4    0    0  0.45561124992E+03  0.11695722202E+03 -0.37196502651E+03  0.60660425350E+03  0.91379081722E+02 0.  0.
          2    1    3    3  502    0 -0.18684559033E+03  0.22091119047E+03 -0.38880199885E+03  0.48464422313E+03  0.00000000000E+00 0. -1.
         -1    1    3    3    0  502 -0.74641871093E+02  0.62330822205E+02 -0.22160013421E+03  0.24199826405E+03  0.00000000000E+00 0.  1.
         13    1    5    5    0    0 -0.11402061956E+03 -0.20513014668E+03 -0.50733368611E+02  0.24011029435E+03  0.00000000000E+00 0.  1.
        -13    1    5    5    0    0 -0.80103168936E+02 -0.19506908801E+03  0.36815068475E+02  0.21406498088E+03  0.00000000000E+00 0. -1.
          1    1    6    6  503    0  0.40134580967E+02 -0.14087288595E+02 -0.44853815218E+02  0.61815055035E+02  0.00000000000E+00 0. -1.
         -1    1    6    6    0  503  0.41547666896E+03  0.13104451061E+03 -0.32711121130E+03  0.54478919847E+03  0.00000000000E+00 0.  1.
<mgrwt>
<rscale>  0 0.14840124E+04</rscale>
<asrwt>0</asrwt>
<pdfrwt beam="1">  1        2 0.21413134E+00 0.14840124E+04</pdfrwt>
<pdfrwt beam="2">  1       -1 0.60856659E-01 0.14840124E+04</pdfrwt>
<totfact> 0.44158159E+01</totfact>
</mgrwt>
</event>
<event>
12    7  0.1729738E-007  0.1549871E+04  0.7818608E-02  0.8851950E-01
          2   -1    0    0  501    0  0.00000000000E+00  0.00000000000E+00  0.24600344809E+04  0.24600344809E+04  0.00000000000E+00 0. -1.
         -1   -1    0    0    0  501 -0.00000000000E+00 -0.00000000000E+00 -0.24411259695E+03  0.24411259695E+03  0.00000000000E+00 0.  1.
         24    2    1    2    0    0 -0.44650306153E+03  0.23851563167E+03  0.70565613871E+03  0.87210631747E+03  0.79775637654E+02 0.  0.
        254    2    1    2    0    0  0.44650306153E+03 -0.23851563167E+03  0.15102657452E+04  0.18320407604E+04  0.90510553856E+03 0.  0.
         23    2    4    4    0    0  0.51375232311E+03 -0.51700919850E+03  0.10922264605E+04  0.13161737284E+04  0.90081526858E+02 0.  0.
         23    2    4    4    0    0 -0.67249261579E+02  0.27849356682E+03  0.41803928467E+03  0.51586703192E+03  0.96337018595E+02 0.  0.
          2    1    3    3  502    0 -0.42870715831E+02 -0.14314165743E+01  0.58507153899E+02  0.72546773096E+02  0.00000000000E+00 0. -1.
         -1    1    3    3    0  502 -0.40363234570E+03  0.23994704825E+03  0.64714898481E+03  0.79955954437E+03  0.00000000000E+00 0.  1.
         13    1    5    5    0    0  0.39742716774E+03 -0.43479320700E+03  0.83053246736E+03  0.10182227977E+04  0.00000000000E+00 0. -1.
        -13    1    5    5    0    0  0.11632515537E+03 -0.82215991493E+02  0.26169399319E+03  0.29795093069E+03  0.00000000000E+00 0.  1.
          4    1    6    6  503    0 -0.87663730970E+02  0.24393895613E+03  0.38367378217E+03  0.46302992902E+03  0.00000000000E+00 0. -1.
         -4    1    6    6    0  503  0.20414469391E+02  0.34554610697E+02  0.34365502496E+02  0.52837102899E+02  0.00000000000E+00 0.  1.
<mgrwt>
<rscale>  0 0.15498715E+04</rscale>
<asrwt>0</asrwt>
<pdfrwt beam="1">  1        2 0.37846683E+00 0.15498715E+04</pdfrwt>
<pdfrwt beam="2">  1       -1 0.37555786E-01 0.15498715E+04</pdfrwt>
<totfact> 0.27562377E+01</totfact>
</mgrwt>
</event>
<event>
12    7  0.1729738E-007  0.1348080E+04  0.7818608E-02  0.8992283E-01
          2   -1    0    0  501    0  0.00000000000E+00  0.00000000000E+00  0.17726357755E+04  0.17726357755E+04  0.00000000000E+00 0. -1.
         -1   -1    0    0    0  501 -0.00000000000E+00 -0.00000000000E+00 -0.25630179431E+03  0.25630179431E+03  0.00000000000E+00 0.  1.
         24    2    1    2    0    0 -0.20539060387E+02 -0.13658863084E+03 -0.89248705885E+02  0.18394507083E+03  0.82414504204E+02 0.  0.
        254    2    1    2    0    0  0.20539060387E+02  0.13658863084E+03  0.16055826870E+04  0.18449924989E+04  0.89834472736E+03 0.  0.
         23    2    4    4    0    0  0.17645486535E+02  0.10519469809E+03 -0.77323319085E+02  0.15936612010E+03  0.89673724469E+02 0.  0.
         23    2    4    4    0    0  0.28935738520E+01  0.31393932750E+02  0.16829060061E+04  0.16856263788E+04  0.90386458233E+02 0.  0.
          2    1    3    3  502    0  0.12989856292E+02 -0.28174420915E+02  0.10605371843E+02  0.32787318773E+02  0.00000000000E+00 0. -1.
         -1    1    3    3    0  502 -0.33528916679E+02 -0.10841420993E+03 -0.99854077728E+02  0.15115775206E+03  0.00000000000E+00 0.  1.
         13    1    5    5    0    0  0.12436462530E+02  0.71303700009E+01 -0.57399793335E+02  0.59162860407E+02  0.00000000000E+00 0.  1.
        -13    1    5    5    0    0  0.52090240048E+01  0.98064328093E+02 -0.19923525750E+02  0.10020325970E+03  0.00000000000E+00 0. -1.
          1    1    6    6  503    0 -0.10444284544E+02  0.56631695835E+02  0.14215857979E+04  0.14227517046E+04  0.00000000000E+00 0. -1.
         -1    1    6    6    0  503  0.13337858396E+02 -0.25237763086E+02  0.26132020822E+03  0.26287467427E+03  0.00000000000E+00 0.  1.
<mgrwt>
<rscale>  0 0.13480797E+04</rscale>
<asrwt>0</asrwt>
<pdfrwt beam="1">  1        2 0.27271319E+00 0.13480797E+04</pdfrwt>
<pdfrwt beam="2">  1       -1 0.39431046E-01 0.13480797E+04</pdfrwt>
<totfact> 0.62188608E+01</totfact>
</mgrwt>
</event>
<event>
12    7  0.1729738E-007  0.1499030E+04  0.7818608E-02  0.8885098E-01
          2   -1    0    0  501    0  0.00000000000E+00  0.00000000000E+00  0.25840373633E+04  0.25840373633E+04  0.00000000000E+00 0. -1.
         -1   -1    0    0    0  501 -0.00000000000E+00 -0.00000000000E+00 -0.21740118842E+03  0.21740118842E+03  0.00000000000E+00 0.  1.
         24    2    1    2    0    0  0.16717572206E+03  0.26552669756E+03  0.13715639034E+04  0.14093339438E+04  0.81132452960E+02 0.  0.
        254    2    1    2    0    0 -0.16717572206E+03 -0.26552669756E+03  0.99507227151E+03  0.13921046079E+04  0.92159332939E+03 0.  0.
         23    2    4    4    0    0 -0.28567816402E+03 -0.31264605758E+03  0.11141372139E+04  0.11952163082E+04  0.88773426229E+02 0.  0.
         23    2    4    4    0    0  0.11850244196E+03  0.47119360023E+02 -0.11906494240E+03  0.19688829976E+03  0.91244064103E+02 0.  0.
          4    1    3    3  502    0  0.64461429472E+02  0.16655690725E+03  0.66840381098E+03  0.69185268214E+03  0.00000000000E+00 0. -1.
         -3    1    3    3    0  502  0.10271429258E+03  0.98969790305E+02  0.70316009243E+03  0.71748126169E+03  0.00000000000E+00 0.  1.
         13    1    5    5    0    0 -0.32543732605E+02 -0.34291801771E+01  0.71978364677E+02  0.79067937814E+02  0.00000000000E+00 0.  1.
        -13    1    5    5    0    0 -0.25313443142E+03 -0.30921687740E+03  0.10421588492E+04  0.11161483704E+04  0.00000000000E+00 0. -1.
          3    1    6    6  503    0  0.90413763596E+02 -0.11377806320E+02 -0.79167419174E+02  0.12071281366E+03  0.00000000000E+00 0. -1.
         -3    1    6    6    0  503  0.28088678368E+02  0.58497166342E+02 -0.39897523226E+02  0.76175486097E+02  0.00000000000E+00 0.  1.
<mgrwt>
<rscale>  0 0.14990301E+04</rscale>
<asrwt>0</asrwt>
<pdfrwt beam="1">  1        2 0.39754419E+00 0.14990301E+04</pdfrwt>
<pdfrwt beam="2">  1       -1 0.33446339E-01 0.14990301E+04</pdfrwt>
<totfact> 0.28899179E+01</totfact>
</mgrwt>
</event>
<event>
12    7  0.1729738E-007  0.1745859E+04  0.7818608E-02  0.8735633E-01
          2   -1    0    0  501    0  0.00000000000E+00  0.00000000000E+00  0.39748531643E+04  0.39748531643E+04  0.00000000000E+00 0. -1.
         -1   -1    0    0    0  501 -0.00000000000E+00 -0.00000000000E+00 -0.19170662794E+03  0.19170662794E+03  0.00000000000E+00 0.  1.
         24    2    1    2    0    0  0.16859563340E+03 -0.45897191128E+03  0.41675653282E+03  0.64723581570E+03  0.78412311106E+02 0.  0.
        254    2    1    2    0    0 -0.16859563340E+03  0.45897191128E+03  0.33663900035E+04  0.35193239765E+04  0.90220834233E+03 0.  0.
         23    2    4    4    0    0 -0.51915453890E+03  0.20628493094E+03  0.22172998487E+04  0.22882745542E+04  0.87788999530E+02 0.  0.
         23    2    4    4    0    0  0.35055890550E+03  0.25268698033E+03  0.11490901548E+04  0.12310494223E+04  0.91281104266E+02 0.  0.
          4    1    3    3  502    0  0.89715471013E+01 -0.73057894295E+02  0.94215297135E+02  0.11955946968E+03  0.00000000000E+00 0. -1.
         -3    1    3    3    0  502  0.15962408630E+03 -0.38591401698E+03  0.32254123569E+03  0.52767634602E+03  0.00000000000E+00 0.  1.
         13    1    5    5    0    0 -0.10671509554E+03  0.77386800001E+01  0.46832637889E+03  0.48039316809E+03  0.00000000000E+00 0.  1.
        -13    1    5    5    0    0 -0.41243944336E+03  0.19854625094E+03  0.17489734698E+04  0.18078813861E+04  0.00000000000E+00 0. -1.
          4    1    6    6  503    0  0.35333698946E+03  0.25262418833E+03  0.11114875904E+04  0.11933443226E+04  0.00000000000E+00 0. -1.
         -4    1    6    6    0  503 -0.27780839650E+01  0.62792008164E-01  0.37602564409E+02  0.37705099701E+02  0.00000000000E+00 0.  1.
<mgrwt>
<rscale>  0 0.17458588E+04</rscale>
<asrwt>0</asrwt>
<pdfrwt beam="1">  1        2 0.61151581E+00 0.17458588E+04</pdfrwt>
<pdfrwt beam="2">  1       -1 0.29493330E-01 0.17458588E+04</pdfrwt>
<totfact> 0.41325116E+00</totfact>
</mgrwt>
</event>
<event>
12    7  0.1729738E-007  0.1436154E+04  0.7818608E-02  0.8928056E-01
         -1   -1    0    0    0  501 -0.00000000000E+00  0.00000000000E+00  0.50403882553E+03  0.50403882553E+03  0.00000000000E+00 0.  1.
          2   -1    0    0  501    0  0.00000000000E+00 -0.00000000000E+00 -0.10230055045E+04  0.10230055045E+04  0.00000000000E+00 0. -1.
         24    2    1    2    0    0  0.13657413675E+03  0.36814315558E+03 -0.58695615954E+02  0.40493272867E+03  0.79645851037E+02 0.  0.
        254    2    1    2    0    0 -0.13657413675E+03 -0.36814315558E+03 -0.46027106297E+03  0.11221116013E+04  0.94504133061E+03 0.  0.
         23    2    4    4    0    0  0.22499930659E+03 -0.39533936773E+03  0.74226946079E+02  0.46978317298E+03  0.90932317996E+02 0.  0.
         23    2    4    4    0    0 -0.36157344334E+03  0.27196212145E+02 -0.53449800904E+03  0.65232842833E+03  0.91483702628E+02 0.  0.
          4    1    3    3  502    0  0.66745485672E+01  0.15924614027E+02  0.14388555645E+02  0.22476064247E+02  0.00000000000E+00 0. -1.
         -3    1    3    3    0  502  0.12989958819E+03  0.35221854155E+03 -0.73084171599E+02  0.38245666443E+03  0.00000000000E+00 0.  1.
         13    1    5    5    0    0  0.22542823567E+03 -0.37913211641E+03  0.54799787066E+02  0.44447954710E+03  0.00000000000E+00 0. -1.
        -13    1    5    5    0    0 -0.42892908469E+00 -0.16207251317E+02  0.19427159012E+02  0.25303625881E+02  0.00000000000E+00 0.  1.
          2    1    6    6  503    0 -0.31886404387E+03  0.55589162493E+00 -0.42062275950E+03  0.52782392263E+03  0.00000000000E+00 0. -1.
         -2    1    6    6    0  503 -0.42709399469E+02  0.26640320521E+02 -0.11387524954E+03  0.12450450569E+03  0.00000000000E+00 0.  1.
<mgrwt>
<rscale>  0 0.14361539E+04</rscale>
<asrwt>0</asrwt>
<pdfrwt beam="1">  1        2 0.15738546E+00 0.14361539E+04</pdfrwt>
<pdfrwt beam="2">  1       -1 0.77544435E-01 0.14361539E+04</pdfrwt>
<totfact> 0.44951226E+01</totfact>
</mgrwt>
</event>
<event>
12    7  0.1972226E-007  0.2338415E+04  0.7818608E-02  0.8462927E-01
          2   -1    0    0  501    0  0.00000000000E+00  0.00000000000E+00  0.13246653678E+04  0.13246653678E+04  0.00000000000E+00 0. -1.
         -1   -1    0    0    0  501 -0.00000000000E+00 -0.00000000000E+00 -0.10319936456E+04  0.10319936456E+04  0.00000000000E+00 0.  1.
         24    2    1    2    0    0 -0.54735279783E+03  0.14630273098E+03 -0.69752506709E+03  0.90207930629E+03  0.78779954415E+02 0.  0.
        254    2    1    2    0    0  0.54735279783E+03 -0.14630273098E+03  0.99019678931E+03  0.14545797072E+04  0.90239285709E+03 0.  0.
         23    2    4    4    0    0  0.39140470183E+03  0.16077564334E+03  0.10099154511E+04  0.10985167367E+04  0.88109899771E+02 0.  0.
         23    2    4    4    0    0  0.15594809600E+03 -0.30707837431E+03 -0.19718661776E+02  0.35606297042E+03  0.88176395162E+02 0.  0.
          2    1    3    3  502    0 -0.11982713991E+02 -0.67294210671E+01 -0.83695361012E+01  0.16090981233E+02  0.00000000000E+00 0. -1.
         -1    1    3    3    0  502 -0.53537008384E+03  0.15303215204E+03 -0.68915553099E+03  0.88598832505E+03  0.00000000000E+00 0.  1.
         13    1    5    5    0    0  0.38031954425E+03  0.16456123591E+03  0.10021890420E+04  0.10844843162E+04  0.00000000000E+00 0. -1.
        -13    1    5    5    0    0  0.11085157583E+02 -0.37855925670E+01  0.77264090866E+01  0.14032420572E+02  0.00000000000E+00 0.  1.
          1    1    6    6  503    0  0.13675222620E+03 -0.30306312142E+03 -0.67599022465E+01  0.33255694732E+03  0.00000000000E+00 0. -1.
         -1    1    6    6    0  503  0.19195869805E+02 -0.40152528979E+01 -0.12958759530E+02  0.23506023100E+02  0.00000000000E+00 0.  1.
<mgrwt>
<rscale>  0 0.23384151E+04</rscale>
<asrwt>0</asrwt>
<pdfrwt beam="1">  1        2 0.20379467E+00 0.23384151E+04</pdfrwt>
<pdfrwt beam="2">  1       -1 0.15876825E+00 0.23384151E+04</pdfrwt>
<totfact> 0.49188280E+00</totfact>
</mgrwt>
</event>
<event>
12    7  0.1729738E-007  0.2030752E+04  0.7818608E-02  0.8592376E-01
         -1   -1    0    0    0  501 -0.00000000000E+00  0.00000000000E+00  0.41907630188E+03  0.41907630188E+03  0.00000000000E+00 0.  1.
          2   -1    0    0  501    0  0.00000000000E+00 -0.00000000000E+00 -0.24601457141E+04  0.24601457141E+04  0.00000000000E+00 0. -1.
         24    2    1    2    0    0 -0.45998397590E+02 -0.74301621655E+03 -0.34801240778E+03  0.82565875044E+03  0.80067381479E+02 0.  0.
        254    2    1    2    0    0  0.45998397590E+02  0.74301621655E+03 -0.16930570044E+04  0.20535632655E+04  0.89246350885E+03 0.  0.
         23    2    4    4    0    0 -0.13745285506E+03 -0.93214880195E+02 -0.45814331911E+02  0.19479014086E+03  0.90895240323E+02 0.  0.
         23    2    4    4    0    0  0.18345125265E+03  0.83623109674E+03 -0.16472426725E+04  0.18587731246E+04  0.93232491905E+02 0.  0.
          4    1    3    3  502    0  0.13308724612E+02 -0.46401583000E+02 -0.35147548632E+02  0.59712471315E+02  0.00000000000E+00 0. -1.
         -3    1    3    3    0  502 -0.59307122202E+02 -0.69661463355E+03 -0.31286485915E+03  0.76594627913E+03  0.00000000000E+00 0.  1.
         13    1    5    5    0    0 -0.53653009593E+02 -0.74737943172E+02 -0.57035118653E+02  0.10824698771E+03  0.00000000000E+00 0.  1.
        -13    1    5    5    0    0 -0.83799845472E+02 -0.18476937023E+02  0.11220786742E+02  0.86543153155E+02  0.00000000000E+00 0. -1.
          1    1    6    6  503    0  0.14304091255E+03  0.66437331322E+03 -0.13833854825E+04  0.15413007478E+04  0.00000000000E+00 0. -1.
         -1    1    6    6    0  503  0.40410340104E+02  0.17185778352E+03 -0.26385718998E+03  0.31747237682E+03  0.00000000000E+00 0.  1.
<mgrwt>
<rscale>  0 0.20307523E+04</rscale>
<asrwt>0</asrwt>
<pdfrwt beam="1">  1        2 0.37848395E+00 0.20307523E+04</pdfrwt>
<pdfrwt beam="2">  1       -1 0.64473278E-01 0.20307523E+04</pdfrwt>
<totfact> 0.94504497E+00</totfact>
</mgrwt>
</event>
<event>
12    7  0.1729738E-007  0.1362195E+04  0.7818608E-02  0.8981648E-01
         -1   -1    0    0    0  501 -0.00000000000E+00  0.00000000000E+00  0.62509281050E+03  0.62509281050E+03  0.00000000000E+00 0.  1.
          2   -1    0    0  501    0  0.00000000000E+00 -0.00000000000E+00 -0.74212004644E+03  0.74212004644E+03  0.00000000000E+00 0. -1.
         24    2    1    2    0    0 -0.90387852752E+02  0.18301369211E+03  0.26345900914E+03  0.34305201782E+03  0.81302287863E+02 0.  0.
        254    2    1    2    0    0  0.90387852752E+02 -0.18301369211E+03 -0.38048624507E+03  0.10241608391E+04  0.92869352656E+03 0.  0.
         23    2    4    4    0    0 -0.35810846153E+03  0.68161388860E+01  0.43304975864E+02  0.37223263433E+03  0.91617046236E+02 0.  0.
         23    2    4    4    0    0  0.44849631428E+03 -0.18982983100E+03 -0.42379122093E+03  0.65192820478E+03  0.90703233631E+02 0.  0.
          4    1    3    3  502    0 -0.37547152983E+01  0.29765719315E+02  0.51202485950E+01  0.30435388596E+02  0.00000000000E+00 0. -1.
         -3    1    3    3    0  502 -0.86633137453E+02  0.15324797280E+03  0.25833876054E+03  0.31261662923E+03  0.00000000000E+00 0.  1.
         13    1    5    5    0    0 -0.18536461148E+02 -0.20918145592E+02 -0.40974374054E+01  0.28248153925E+02  0.00000000000E+00 0.  1.
        -13    1    5    5    0    0 -0.33957200038E+03  0.27734284479E+02  0.47402413270E+02  0.34398448041E+03  0.00000000000E+00 0. -1.
          1    1    6    6  503    0  0.26020751938E+03 -0.12485811748E+03 -0.19364057862E+03  0.34755456598E+03  0.00000000000E+00 0. -1.
         -1    1    6    6    0  503  0.18828879490E+03 -0.64971713519E+02 -0.23015064232E+03  0.30437363880E+03  0.00000000000E+00 0.  1.
<mgrwt>
<rscale>  0 0.13621951E+04</rscale>
<asrwt>0</asrwt>
<pdfrwt beam="1">  1        2 0.11417232E+00 0.13621951E+04</pdfrwt>
<pdfrwt beam="2">  1       -1 0.96168124E-01 0.13621951E+04</pdfrwt>
<totfact> 0.44156746E+01</totfact>
</mgrwt>
</event>
<event>
12    7  0.1729738E-007  0.1894575E+04  0.7818608E-02  0.8657561E-01
          2   -1    0    0  501    0  0.00000000000E+00  0.00000000000E+00  0.91560754676E+03  0.91560754676E+03  0.00000000000E+00 0. -1.
         -1   -1    0    0    0  501 -0.00000000000E+00 -0.00000000000E+00 -0.98006402929E+03  0.98006402929E+03  0.00000000000E+00 0.  1.
         24    2    1    2    0    0  0.14345554740E+03 -0.38888690640E+03 -0.62753795270E+03  0.75613413110E+03  0.78245907700E+02 0.  0.
        254    2    1    2    0    0 -0.14345554740E+03  0.38888690640E+03  0.56308147018E+03  0.11395374449E+04  0.89981794066E+03 0.  0.
         23    2    4    4    0    0 -0.48863657891E+03  0.51802794968E+02  0.28429841543E+03  0.57499311929E+03  0.91335986360E+02 0.  0.
         23    2    4    4    0    0  0.34518103151E+03  0.33708411144E+03  0.27878305475E+03  0.56454432565E+03  0.90634768803E+02 0.  0.
          4    1    3    3  502    0 -0.50444072950E+01 -0.56090031944E+02 -0.66695021546E+02  0.87291257452E+02  0.00000000000E+00 0. -1.
         -3    1    3    3    0  502  0.14849995470E+03 -0.33279687446E+03 -0.56084293116E+03  0.66884287364E+03  0.00000000000E+00 0.  1.
         13    1    5    5    0    0 -0.29888672808E+02 -0.11720694387E+02  0.40297148225E+02  0.51522496002E+02  0.00000000000E+00 0. -1.
        -13    1    5    5    0    0 -0.45874790610E+03  0.63523489355E+02  0.24400126720E+03  0.52347062329E+03  0.00000000000E+00 0.  1.
          1    1    6    6  503    0  0.43545048561E+02  0.79994333464E+02  0.26994162715E+02  0.94994470688E+02  0.00000000000E+00 0. -1.
         -1    1    6    6    0  503  0.30163598295E+03  0.25708977797E+03  0.25178889203E+03  0.46954985497E+03  0.00000000000E+00 0.  1.
<mgrwt>
<rscale>  0 0.18945754E+04</rscale>
<asrwt>0</asrwt>
<pdfrwt beam="1">  1        2 0.14086270E+00 0.18945754E+04</pdfrwt>
<pdfrwt beam="2">  1       -1 0.15077908E+00 0.18945754E+04</pdfrwt>
<totfact> 0.10527553E+01</totfact>
</mgrwt>
</event>
<event>
12    7  0.1729738E-007  0.1924020E+04  0.7818608E-02  0.8642992E-01
         -1   -1    0    0    0  501 -0.00000000000E+00  0.00000000000E+00  0.32510204621E+03  0.32510204621E+03  0.00000000000E+00 0.  1.
          2   -1    0    0  501    0  0.00000000000E+00 -0.00000000000E+00 -0.28466846039E+04  0.28466846039E+04  0.00000000000E+00 0. -1.
         24    2    1    2    0    0 -0.89523706504E+02 -0.51297959346E+03 -0.18421630655E+04  0.19160448642E+04  0.80626324155E+02 0.  0.
        254    2    1    2    0    0  0.89523706504E+02  0.51297959346E+03 -0.67941949211E+03  0.12557417859E+04  0.91875678462E+03 0.  0.
         23    2    4    4    0    0 -0.26103870464E+03  0.33610213477E+03  0.33858502030E+02  0.43655119300E+03  0.91239770039E+02 0.  0.
         23    2    4    4    0    0  0.35056241115E+03  0.17687745869E+03 -0.71327799414E+03  0.81919059291E+03  0.90155926468E+02 0.  0.
          4    1    3    3  502    0 -0.68454692619E+02 -0.44126529924E+03 -0.14648761102E+04  0.15314251948E+04  0.00000000000E+00 0. -1.
         -3    1    3    3    0  502 -0.21069013885E+02 -0.71714294219E+02 -0.37728695538E+03  0.38461966933E+03  0.00000000000E+00 0.  1.
         13    1    5    5    0    0 -0.45213121545E+02  0.12206655171E+03 -0.40637893453E+01  0.13023434182E+03  0.00000000000E+00 0. -1.
        -13    1    5    5    0    0 -0.21582558310E+03  0.21403558306E+03  0.37922291375E+02  0.30631685118E+03  0.00000000000E+00 0.  1.
          3    1    6    6  503    0  0.11257897931E+03  0.14873811382E+02 -0.17181809675E+03  0.20595318696E+03  0.00000000000E+00 0. -1.
         -3    1    6    6    0  503  0.23798343184E+03  0.16200364731E+03 -0.54145989739E+03  0.61323740595E+03  0.00000000000E+00 0.  1.
<mgrwt>
<rscale>  0 0.19240197E+04</rscale>
<asrwt>0</asrwt>
<pdfrwt beam="1">  1        2 0.43795148E+00 0.19240197E+04</pdfrwt>
<pdfrwt beam="2">  1       -1 0.50015699E-01 0.19240197E+04</pdfrwt>
<totfact> 0.92656557E+00</totfact>
</mgrwt>
</event>
<event>
12    7  0.1729738E-007  0.2350238E+04  0.7818608E-02  0.8458372E-01
          2   -1    0    0  501    0  0.00000000000E+00  0.00000000000E+00  0.14215930732E+04  0.14215930732E+04  0.00000000000E+00 0. -1.
         -1   -1    0    0    0  501 -0.00000000000E+00 -0.00000000000E+00 -0.97137798218E+03  0.97137798218E+03  0.00000000000E+00 0.  1.
         24    2    1    2    0    0  0.39519543515E+03  0.62819472087E+03 -0.49455781564E+03  0.89585106094E+03  0.84579259101E+02 0.  0.
        254    2    1    2    0    0 -0.39519543515E+03 -0.62819472087E+03  0.94477290669E+03  0.14971199945E+04  0.89328852748E+03 0.  0.
         23    2    4    4    0    0 -0.24221844038E+03 -0.16380289399E+03  0.95224529696E+03  0.99976733669E+03  0.85220073851E+02 0.  0.
         23    2    4    4    0    0 -0.15297699477E+03 -0.46439182688E+03 -0.74723902734E+01  0.49735265778E+03  0.90786010914E+02 0.  0.
          4    1    3    3  502    0  0.11555161369E+03  0.20582352754E+03 -0.11314460707E+03  0.26175790728E+03  0.00000000000E+00 0. -1.
         -3    1    3    3    0  502  0.27964382146E+03  0.42237119334E+03 -0.38141320857E+03  0.63409315365E+03  0.00000000000E+00 0.  1.
         13    1    5    5    0    0 -0.18948072021E+03 -0.10521140637E+03  0.57771234770E+03  0.61702831381E+03  0.00000000000E+00 0.  1.
        -13    1    5    5    0    0 -0.52737720168E+02 -0.58591487624E+02  0.37453294927E+03  0.38273902288E+03  0.00000000000E+00 0. -1.
          3    1    6    6  503    0  0.19625627369E+01  0.36739146854E+01  0.79254032369E+00  0.42399789831E+01  0.00000000000E+00 0. -1.
         -3    1    6    6    0  503 -0.15493955751E+03 -0.46806574157E+03 -0.82649305971E+01  0.49311267879E+03  0.00000000000E+00 0.  1.
<mgrwt>
<rscale>  0 0.23502376E+04</rscale>
<asrwt>0</asrwt>
<pdfrwt beam="1">  1        2 0.21870663E+00 0.23502376E+04</pdfrwt>
<pdfrwt beam="2">  1       -1 0.14944277E+00 0.23502376E+04</pdfrwt>
<totfact> 0.50991486E+00</totfact>
</mgrwt>
</event>
<event>
12    7  0.1729738E-007  0.2491658E+04  0.7818608E-02  0.8405963E-01
         -1   -1    0    0    0  501 -0.00000000000E+00  0.00000000000E+00  0.89048695725E+03  0.89048695725E+03  0.00000000000E+00 0.  1.
          2   -1    0    0  501    0  0.00000000000E+00 -0.00000000000E+00 -0.17429679731E+04  0.17429679731E+04  0.00000000000E+00 0. -1.
         24    2    1    2    0    0  0.51107387769E+03  0.32304959054E+03 -0.13090104053E+04  0.14440780504E+04  0.79344995427E+02 0.  0.
        254    2    1    2    0    0 -0.51107387769E+03 -0.32304959054E+03  0.45652938939E+03  0.11893768799E+04  0.91686462072E+03 0.  0.
         23    2    4    4    0    0 -0.55498176436E+03  0.10638872390E+03  0.26092566750E+02  0.57329090469E+03  0.93050094154E+02 0.  0.
         23    2    4    4    0    0  0.43907886665E+02 -0.42943831444E+03  0.43043682264E+03  0.61608597524E+03  0.89111739876E+02 0.  0.
          2    1    3    3  502    0  0.39507467097E+03  0.25001376818E+03 -0.10851341074E+04  0.11815696809E+04  0.00000000000E+00 0. -1.
         -1    1    3    3    0  502  0.11599920672E+03  0.73035822357E+02 -0.22387629787E+03  0.26250836949E+03  0.00000000000E+00 0.  1.
         13    1    5    5    0    0 -0.44587825820E+03  0.12213337212E+03  0.26411443253E+02  0.46305674172E+03  0.00000000000E+00 0. -1.
        -13    1    5    5    0    0 -0.10910350616E+03 -0.15744648221E+02 -0.31887650272E+00  0.11023416297E+03  0.00000000000E+00 0.  1.
          1    1    6    6  503    0  0.34223623761E+02 -0.29659638216E+03  0.23684017821E+03  0.38109571022E+03  0.00000000000E+00 0. -1.
         -1    1    6    6    0  503  0.96842629039E+01 -0.13284193228E+03  0.19359664443E+03  0.23499026502E+03  0.00000000000E+00 0.  1.
<mgrwt>
<rscale>  0 0.24916583E+04</rscale>
<asrwt>0</asrwt>
<pdfrwt beam="1">  1        2 0.26814892E+00 0.24916583E+04</pdfrwt>
<pdfrwt beam="2">  1       -1 0.13699799E+00 0.24916583E+04</pdfrwt>
<totfact> 0.41827856E+00</totfact>
</mgrwt>
</event>
<event>
12    7  0.1729738E-007  0.1980617E+04  0.7818608E-02  0.8615737E-01
         -1   -1    0    0    0  501 -0.00000000000E+00  0.00000000000E+00  0.79606983392E+03  0.79606983392E+03  0.00000000000E+00 0.  1.
          2   -1    0    0  501    0  0.00000000000E+00 -0.00000000000E+00 -0.12319411547E+04  0.12319411547E+04  0.00000000000E+00 0. -1.
         24    2    1    2    0    0 -0.23971345800E+03 -0.20562923969E+03 -0.90859305645E+03  0.96515827748E+03  0.79014126527E+02 0.  0.
        254    2    1    2    0    0  0.23971345800E+03  0.20562923969E+03  0.47272173572E+03  0.10628527111E+04  0.89802233820E+03 0.  0.
         23    2    4    4    0    0 -0.28733614933E+02  0.50472729605E+03  0.38375621842E+03  0.64170008532E+03  0.94524601608E+02 0.  0.
         23    2    4    4    0    0  0.26844707293E+03 -0.29909805637E+03  0.88965517291E+02  0.42115262578E+03  0.89057243655E+02 0.  0.
          4    1    3    3  502    0 -0.22696567057E+03 -0.17586620106E+03 -0.74549479988E+03  0.79887723270E+03  0.00000000000E+00 0. -1.
         -3    1    3    3    0  502 -0.12747787431E+02 -0.29763038627E+02 -0.16309825658E+03  0.16628104477E+03  0.00000000000E+00 0.  1.
         13    1    5    5    0    0 -0.48117557470E+02  0.13202977809E+03  0.11874992182E+03  0.18398017712E+03  0.00000000000E+00 0.  1.
        -13    1    5    5    0    0  0.19383942537E+02  0.37269751797E+03  0.26500629660E+03  0.45771990820E+03  0.00000000000E+00 0. -1.
          3    1    6    6  503    0  0.18349659146E+03 -0.25921367146E+03  0.74324112238E+02  0.32616989470E+03  0.00000000000E+00 0. -1.
         -3    1    6    6    0  503  0.84950481469E+02 -0.39884384906E+02  0.14641405053E+02  0.94982731078E+02  0.00000000000E+00 0.  1.
<mgrwt>
<rscale>  0 0.19806173E+04</rscale>
<asrwt>0</asrwt>
<pdfrwt beam="1">  1        2 0.18952941E+00 0.19806173E+04</pdfrwt>
<pdfrwt beam="2">  1       -1 0.12247228E+00 0.19806173E+04</pdfrwt>
<totfact> 0.11323720E+01</totfact>
</mgrwt>
</event>
<event>
12    7  0.1729738E-007  0.1901478E+04  0.7818608E-02  0.8654121E-01
         -1   -1    0    0    0  501 -0.00000000000E+00  0.00000000000E+00  0.68903631273E+03  0.68903631273E+03  0.00000000000E+00 0.  1.
          2   -1    0    0  501    0  0.00000000000E+00 -0.00000000000E+00 -0.13118386434E+04  0.13118386434E+04  0.00000000000E+00 0. -1.
         24    2    1    2    0    0 -0.36044107525E+02 -0.73384419249E+03 -0.24957311675E+03  0.78014733008E+03  0.80725705282E+02 0.  0.
        254    2    1    2    0    0  0.36044107525E+02  0.73384419249E+03 -0.37322921393E+03  0.12207276260E+04  0.90058281925E+03 0.  0.
         23    2    4    4    0    0 -0.15718554168E+03  0.12949436182E+03  0.24437695808E+03  0.33096244485E+03  0.91323370518E+02 0.  0.
         23    2    4    4    0    0  0.19322964921E+03  0.60434983066E+03 -0.61760617201E+03  0.88976518120E+03  0.87568709080E+02 0.  0.
          4    1    3    3  502    0 -0.41109202062E+02 -0.51655933064E+03 -0.14013889125E+03  0.53680761675E+03  0.00000000000E+00 0. -1.
         -3    1    3    3    0  502  0.50650945365E+01 -0.21728486185E+03 -0.10943422550E+03  0.24333971333E+03  0.00000000000E+00 0.  1.
         13    1    5    5    0    0 -0.14270199795E+02  0.23483474450E+02 -0.14209860811E+01  0.27516020349E+02  0.00000000000E+00 0.  1.
        -13    1    5    5    0    0 -0.14291534189E+03  0.10601088737E+03  0.24579794416E+03  0.30344642450E+03  0.00000000000E+00 0. -1.
          4    1    6    6  503    0  0.14672218239E+03  0.52932748187E+03 -0.50044428747E+03  0.74307433459E+03  0.00000000000E+00 0. -1.
         -4    1    6    6    0  503  0.46507466821E+02  0.75022348790E+02 -0.11716188454E+03  0.14669084661E+03  0.00000000000E+00 0.  1.
<mgrwt>
<rscale>  0 0.19014778E+04</rscale>
<asrwt>0</asrwt>
<pdfrwt beam="1">  1        2 0.20182133E+00 0.19014778E+04</pdfrwt>
<pdfrwt beam="2">  1       -1 0.10600559E+00 0.19014778E+04</pdfrwt>
<totfact> 0.14462115E+01</totfact>
</mgrwt>
</event>
<event>
12    7  0.1729738E-007  0.2599592E+04  0.7818608E-02  0.8368340E-01
          2   -1    0    0  501    0  0.00000000000E+00  0.00000000000E+00  0.37284917074E+04  0.37284917074E+04  0.00000000000E+00 0. -1.
         -1   -1    0    0    0  501 -0.00000000000E+00 -0.00000000000E+00 -0.45312411242E+03  0.45312411242E+03  0.00000000000E+00 0.  1.
         24    2    1    2    0    0 -0.76086027952E+03  0.43007336665E+03  0.25392029455E+03  0.91358093592E+03  0.79266290625E+02 0.  0.
        254    2    1    2    0    0  0.76086027952E+03 -0.43007336665E+03  0.30214473004E+04  0.32680348839E+04  0.88715091579E+03 0.  0.
         23    2    4    4    0    0 -0.52634655632E+02 -0.40648275651E+03  0.86159114272E+03  0.95843580695E+03  0.90891476596E+02 0.  0.
         23    2    4    4    0    0  0.81349493515E+03 -0.23590610147E+02  0.21598561577E+04  0.23095990769E+04  0.83299146440E+02 0.  0.
          4    1    3    3  502    0 -0.45055681605E+02  0.61501367465E+01  0.89560709284E+01  0.46347058519E+02  0.00000000000E+00 0. -1.
         -3    1    3    3    0  502 -0.71580459792E+03  0.42392322991E+03  0.24496422362E+03  0.86723387740E+03  0.00000000000E+00 0.  1.
         13    1    5    5    0    0 -0.57850301846E+02 -0.18694483332E+03  0.33634086934E+03  0.38912749648E+03  0.00000000000E+00 0. -1.
        -13    1    5    5    0    0  0.52156462141E+01 -0.21953792319E+03  0.52525027339E+03  0.56930831047E+03  0.00000000000E+00 0.  1.
          3    1    6    6  503    0  0.65501102668E+02  0.10652647305E+02  0.12830781571E+03  0.14445334512E+03  0.00000000000E+00 0. -1.
         -3    1    6    6    0  503  0.74799383249E+03 -0.34243257452E+02  0.20315483420E+04  0.21651457318E+04  0.00000000000E+00 0.  1.
<mgrwt>
<rscale>  0 0.25995919E+04</rscale>
<asrwt>0</asrwt>
<pdfrwt beam="1">  1        2 0.57361409E+00 0.25995919E+04</pdfrwt>
<pdfrwt beam="2">  1       -1 0.69711404E-01 0.25995919E+04</pdfrwt>
<totfact> 0.11651641E+00</totfact>
</mgrwt>
</event>
<event>
12    7  0.1729738E-007  0.2919128E+04  0.7818608E-02  0.8267209E-01
          2   -1    0    0  501    0  0.00000000000E+00  0.00000000000E+00  0.16270807830E+04  0.16270807830E+04  0.00000000000E+00 0. -1.
         -1   -1    0    0    0  501 -0.00000000000E+00 -0.00000000000E+00 -0.13092942986E+04  0.13092942986E+04  0.00000000000E+00 0.  1.
         24    2    1    2    0    0 -0.68172981120E+03  0.40574595494E+03 -0.91850883691E+03  0.12163182022E+04  0.79913516743E+02 0.  0.
        254    2    1    2    0    0  0.68172981120E+03 -0.40574595494E+03  0.12362953212E+04  0.17200568794E+04  0.89486548240E+03 0.  0.
         23    2    4    4    0    0  0.21293488108E+03 -0.19405645567E+03  0.11518275497E+04  0.11908086859E+04  0.91211022454E+02 0.  0.
         23    2    4    4    0    0  0.46879493012E+03 -0.21168949928E+03  0.84467771571E+02  0.52924819352E+03  0.91584470845E+02 0.  0.
          4    1    3    3  502    0 -0.22689912605E+03  0.13547437251E+03 -0.25001111854E+03  0.36378850779E+03  0.00000000000E+00 0. -1.
         -3    1    3    3    0  502 -0.45483068514E+03  0.27027158243E+03 -0.66849771838E+03  0.85252969443E+03  0.00000000000E+00 0.  1.
         13    1    5    5    0    0  0.59342785855E+02 -0.91311822508E+02  0.57108182523E+03  0.58137239896E+03  0.00000000000E+00 0. -1.
        -13    1    5    5    0    0  0.15359209523E+03 -0.10274463316E+03  0.58074572443E+03  0.60943628691E+03  0.00000000000E+00 0.  1.
          2    1    6    6  503    0  0.49776982347E+02 -0.47098052982E+02 -0.10015707816E+02  0.69255245068E+02  0.00000000000E+00 0.  1.
         -2    1    6    6    0  503  0.41901794777E+03 -0.16459144629E+03  0.94483479387E+02  0.45999294845E+03  0.00000000000E+00 0. -1.
<mgrwt>
<rscale>  0 0.29191284E+04</rscale>
<asrwt>0</asrwt>
<pdfrwt beam="1">  1        2 0.25032012E+00 0.29191284E+04</pdfrwt>
<pdfrwt beam="2">  1       -1 0.20142989E+00 0.29191284E+04</pdfrwt>
<totfact> 0.15544098E+00</totfact>
</mgrwt>
</event>
<event>
12    7  0.1729738E-007  0.2337750E+04  0.7818608E-02  0.8463184E-01
         -1   -1    0    0    0  501 -0.00000000000E+00  0.00000000000E+00  0.14789680082E+04  0.14789680082E+04  0.00000000000E+00 0.  1.
          2   -1    0    0  501    0  0.00000000000E+00 -0.00000000000E+00 -0.92379870878E+03  0.92379870878E+03  0.00000000000E+00 0. -1.
         24    2    1    2    0    0 -0.98450981903E+03  0.74935862889E+02  0.19762825552E+03  0.10100090356E+04  0.78653400051E+02 0.  0.
        254    2    1    2    0    0  0.98450981903E+03 -0.74935862889E+02  0.35754104390E+03  0.13927576814E+04  0.91491168626E+03 0.  0.
         23    2    4    4    0    0  0.45426396507E+03 -0.26204096934E+03 -0.22348129944E+03  0.57913424514E+03  0.10213404489E+03 0.  0.
         23    2    4    4    0    0  0.53024585396E+03  0.18710510645E+03  0.58102234334E+03  0.81362343623E+03  0.90703616375E+02 0.  0.
          2    1    3    3  502    0 -0.77953850997E+03  0.40280004167E+02  0.18217492184E+03  0.80155503205E+03  0.00000000000E+00 0. -1.
         -1    1    3    3    0  502 -0.20497130906E+03  0.34655858722E+02  0.15453333688E+02  0.20845400357E+03  0.00000000000E+00 0.  1.
         13    1    5    5    0    0  0.32218755812E+03 -0.23554038635E+03 -0.15649641191E+03  0.42869012486E+03  0.00000000000E+00 0. -1.
        -13    1    5    5    0    0  0.13207640695E+03 -0.26500582991E+02 -0.66984887532E+02  0.15044412029E+03  0.00000000000E+00 0.  1.
          2    1    6    6  503    0  0.50617800814E+03  0.17020332234E+03  0.51755084147E+03  0.74366942950E+03  0.00000000000E+00 0. -1.
         -2    1    6    6    0  503  0.24067845816E+02  0.16901784112E+02  0.63471501872E+02  0.69954006735E+02  0.00000000000E+00 0.  1.
<mgrwt>
<rscale>  0 0.23377500E+04</rscale>
<asrwt>0</asrwt>
<pdfrwt beam="1">  1        2 0.14212288E+00 0.23377500E+04</pdfrwt>
<pdfrwt beam="2">  1       -1 0.22753354E+00 0.23377500E+04</pdfrwt>
<totfact> 0.28551207E+00</totfact>
</mgrwt>
</event>
<event>
12    7  0.1729738E-007  0.1524109E+04  0.7818608E-02  0.8868577E-01
         -1   -1    0    0    0  501 -0.00000000000E+00  0.00000000000E+00  0.30408073584E+03  0.30408073584E+03  0.00000000000E+00 0.  1.
          2   -1    0    0  501    0  0.00000000000E+00 -0.00000000000E+00 -0.19097783041E+04  0.19097783041E+04  0.00000000000E+00 0. -1.
         24    2    1    2    0    0 -0.13143869405E+03 -0.13952414098E+03  0.13199319336E+03  0.24592772366E+03  0.79467766818E+02 0.  0.
        254    2    1    2    0    0  0.13143869405E+03  0.13952414098E+03 -0.17376907616E+04  0.19679313163E+04  0.90357145059E+03 0.  0.
         23    2    4    4    0    0 -0.20255014050E+03 -0.27783675010E+03 -0.92556118025E+03  0.99153527724E+03  0.90878427032E+02 0.  0.
         23    2    4    4    0    0  0.33398883455E+03  0.41736089107E+03 -0.81212958138E+03  0.97639603904E+03  0.89755852688E+02 0.  0.
          2    1    3    3  502    0 -0.71351031926E+02 -0.63933786774E+02  0.19669793579E+02  0.97802861040E+02  0.00000000000E+00 0. -1.
         -1    1    3    3    0  502 -0.60087662126E+02 -0.75590354203E+02  0.11232339979E+03  0.14812486263E+03  0.00000000000E+00 0.  1.
         13    1    5    5    0    0 -0.85267097393E+02 -0.15154169108E+03 -0.57795803002E+03  0.60354854528E+03  0.00000000000E+00 0. -1.
        -13    1    5    5    0    0 -0.11728304311E+03 -0.12629505901E+03 -0.34760315022E+03  0.38798673196E+03  0.00000000000E+00 0.  1.
          2    1    6    6  503    0  0.20601745874E+03  0.26441550136E+03 -0.42852443004E+03  0.54405141100E+03  0.00000000000E+00 0. -1.
         -2    1    6    6    0  503  0.12797137581E+03  0.15294538971E+03 -0.38360515134E+03  0.43234462804E+03  0.00000000000E+00 0.  1.
<mgrwt>
<rscale>  0 0.15241086E+04</rscale>
<asrwt>0</asrwt>
<pdfrwt beam="1">  1        2 0.29381204E+00 0.15241086E+04</pdfrwt>
<pdfrwt beam="2">  1       -1 0.46781652E-01 0.15241086E+04</pdfrwt>
<totfact> 0.37517935E+01</totfact>
</mgrwt>
</event>
<event>
12    7  0.1729738E-007  0.2270380E+04  0.7818608E-02  0.8489692E-01
         -1   -1    0    0    0  501 -0.00000000000E+00  0.00000000000E+00  0.12247870333E+04  0.12247870333E+04  0.00000000000E+00 0.  1.
          2   -1    0    0  501    0  0.00000000000E+00 -0.00000000000E+00 -0.10521471191E+04  0.10521471191E+04  0.00000000000E+00 0. -1.
         24    2    1    2    0    0 -0.79531101121E+03  0.51692995491E+03  0.34398244255E+02  0.95248886682E+03  0.79470871158E+02 0.  0.
        254    2    1    2    0    0  0.79531101121E+03 -0.51692995491E+03  0.13824166991E+03  0.13244452855E+04  0.91395206235E+03 0.  0.
         23    2    4    4    0    0  0.94101465583E+03 -0.52069783446E+03  0.26101099174E+03  0.11102747158E+04  0.89153740803E+02 0.  0.
         23    2    4    4    0    0 -0.14570364462E+03  0.37678795533E+01 -0.12276932183E+03  0.21417056972E+03  0.97739334865E+02 0.  0.
          2    1    3    3  502    0 -0.11837893045E+03  0.54937506158E+02  0.24995617495E+02  0.13287769434E+03  0.00000000000E+00 0. -1.
         -1    1    3    3    0  502 -0.67693208076E+03  0.46199244875E+03  0.94026267606E+01  0.81961117248E+03  0.00000000000E+00 0.  1.
         13    1    5    5    0    0  0.77707640323E+03 -0.41052259517E+03  0.18175888264E+03  0.89744795338E+03  0.00000000000E+00 0.  1.
        -13    1    5    5    0    0  0.16393825260E+03 -0.11017523930E+03  0.79252109100E+02  0.21282676245E+03  0.00000000000E+00 0. -1.
          2    1    6    6  503    0 -0.56726476064E+02  0.23984293499E+02 -0.47831240151E+00  0.61590325572E+02  0.00000000000E+00 0.  1.
         -2    1    6    6    0  503 -0.88977168551E+02 -0.20216413946E+02 -0.12229100943E+03  0.15258024415E+03  0.00000000000E+00 0. -1.
<mgrwt>
<rscale>  0 0.22703798E+04</rscale>
<asrwt>0</asrwt>
<pdfrwt beam="1">  1        2 0.16186879E+00 0.22703798E+04</pdfrwt>
<pdfrwt beam="2">  1       -1 0.18842877E+00 0.22703798E+04</pdfrwt>
<totfact> 0.43831169E+00</totfact>
</mgrwt>
</event>
<event>
12    7  0.1729738E-007  0.1115652E+04  0.7818608E-02  0.9190070E-01
         -1   -1    0    0    0  501 -0.00000000000E+00  0.00000000000E+00  0.25536609952E+03  0.25536609952E+03  0.00000000000E+00 0.  1.
          2   -1    0    0  501    0  0.00000000000E+00 -0.00000000000E+00 -0.12185237085E+04  0.12185237085E+04  0.00000000000E+00 0. -1.
         24    2    1    2    0    0 -0.11054711080E+03  0.64253982515E+01  0.13648387200E+02  0.13697402524E+03  0.79458515394E+02 0.  0.
        254    2    1    2    0    0  0.11054711080E+03 -0.64253982515E+01 -0.97680599616E+03  0.13369157828E+04  0.90605292704E+03 0.  0.
         23    2    4    4    0    0 -0.22383192192E+03  0.20942851193E+03 -0.85205188829E+03  0.90992562263E+03  0.89505237226E+02 0.  0.
         23    2    4    4    0    0  0.33437903272E+03 -0.21585391018E+03 -0.12475410786E+03  0.42699016013E+03  0.91404383667E+02 0.  0.
          4    1    3    3  502    0 -0.26385138987E+02  0.37388345762E+02  0.11887912460E+02  0.47279873317E+02  0.00000000000E+00 0. -1.
         -3    1    3    3    0  502 -0.84161971813E+02 -0.30962947511E+02  0.17604747397E+01  0.89694151923E+02  0.00000000000E+00 0.  1.
         13    1    5    5    0    0 -0.92503016579E+02  0.68057730102E+02 -0.44304525652E+03  0.45768740645E+03  0.00000000000E+00 0. -1.
        -13    1    5    5    0    0 -0.13132890534E+03  0.14137078183E+03 -0.40900663177E+03  0.45223821617E+03  0.00000000000E+00 0.  1.
          4    1    6    6  503    0  0.16245202710E+03 -0.12111486146E+03 -0.17721266605E+02  0.20340480344E+03  0.00000000000E+00 0. -1.
         -4    1    6    6    0  503  0.17192700562E+03 -0.94739048722E+02 -0.10703284126E+03  0.22358535668E+03  0.00000000000E+00 0.  1.
<mgrwt>
<rscale>  0 0.11156516E+04</rscale>
<asrwt>0</asrwt>
<pdfrwt beam="1">  1        2 0.18746518E+00 0.11156516E+04</pdfrwt>
<pdfrwt beam="2">  1       -1 0.39287093E-01 0.11156516E+04</pdfrwt>
<totfact> 0.13131219E+02</totfact>
</mgrwt>
</event>
<event>
12    7  0.1729738E-007  0.1175456E+04  0.7818608E-02  0.9134616E-01
         -1   -1    0    0    0  501 -0.00000000000E+00  0.00000000000E+00  0.15287392123E+03  0.15287392123E+03  0.00000000000E+00 0.  1.
          2   -1    0    0  501    0  0.00000000000E+00 -0.00000000000E+00 -0.22595352683E+04  0.22595352683E+04  0.00000000000E+00 0. -1.
         24    2    1    2    0    0  0.25429292956E+03 -0.14217220447E+03 -0.58720084778E+03  0.65959976405E+03  0.73411057398E+02 0.  0.
        254    2    1    2    0    0 -0.25429292956E+03  0.14217220447E+03 -0.15194604993E+04  0.17528094255E+04  0.82383423300E+03 0.  0.
         23    2    4    4    0    0 -0.20164605146E+03 -0.29658360249E+03 -0.99205074244E+03  0.10588652202E+04  0.91694686936E+02 0.  0.
         23    2    4    4    0    0 -0.52646878092E+02  0.43875580696E+03 -0.52740975689E+03  0.69394420534E+03  0.90106362434E+02 0.  0.
          4    1    3    3  502    0  0.16077756689E+03 -0.11379272592E+03 -0.32814587965E+03  0.38272435096E+03  0.00000000000E+00 0. -1.
         -3    1    3    3    0  502  0.93515362666E+02 -0.28379478549E+02 -0.25905496813E+03  0.27687541309E+03  0.00000000000E+00 0.  1.
         13    1    5    5    0    0 -0.16655053691E+03 -0.17684423439E+03 -0.59536812322E+03  0.64302112464E+03  0.00000000000E+00 0.  1.
        -13    1    5    5    0    0 -0.35095514556E+02 -0.11973936810E+03 -0.39668261922E+03  0.41584409555E+03  0.00000000000E+00 0. -1.
          4    1    6    6  503    0  0.21213981974E+02  0.12821675449E+03 -0.18187803290E+03  0.22353788944E+03  0.00000000000E+00 0. -1.
         -4    1    6    6    0  503 -0.73860860066E+02  0.31053905246E+03 -0.34553172399E+03  0.47040631590E+03  0.00000000000E+00 0.  1.
<mgrwt>
<rscale>  0 0.11754557E+04</rscale>
<asrwt>0</asrwt>
<pdfrwt beam="1">  1        2 0.34762080E+00 0.11754557E+04</pdfrwt>
<pdfrwt beam="2">  1       -1 0.23519065E-01 0.11754557E+04</pdfrwt>
<totfact> 0.83997359E+01</totfact>
</mgrwt>
</event>
<event>
12    7  0.1729738E-007  0.1234519E+04  0.7818608E-02  0.9083168E-01
          4   -1    0    0  501    0  0.00000000000E+00  0.00000000000E+00  0.65066062858E+03  0.65066062858E+03  0.00000000000E+00 0. -1.
         -3   -1    0    0    0  501 -0.00000000000E+00 -0.00000000000E+00 -0.58557261286E+03  0.58557261286E+03  0.00000000000E+00 0.  1.
         24    2    1    2    0    0  0.24903897032E+03 -0.11065333811E+03  0.90213889347E+02  0.29784163481E+03  0.79413623650E+02 0.  0.
        254    2    1    2    0    0 -0.24903897032E+03  0.11065333811E+03 -0.25125873633E+02  0.93839160663E+03  0.89759842240E+03 0.  0.
         23    2    4    4    0    0  0.85501264295E+02  0.29879092083E+03  0.28817353422E+03  0.43454581005E+03  0.95914517356E+02 0.  0.
         23    2    4    4    0    0 -0.33454023462E+03 -0.18813758272E+03 -0.31329940785E+03  0.50384579658E+03  0.91603215895E+02 0.  0.
          2    1    3    3  502    0  0.23589883235E+03 -0.97340565100E+02  0.10298775425E+03  0.27519070159E+03  0.00000000000E+00 0. -1.
         -1    1    3    3    0  502  0.13140137972E+02 -0.13312773012E+02 -0.12773864900E+02  0.22650933219E+02  0.00000000000E+00 0.  1.
         13    1    5    5    0    0  0.12186970456E+02  0.14716944298E+03  0.84063943115E+02  0.16992384685E+03  0.00000000000E+00 0. -1.
        -13    1    5    5    0    0  0.73314293839E+02  0.15162147785E+03  0.20410959110E+03  0.26462196320E+03  0.00000000000E+00 0.  1.
          3    1    6    6  503    0 -0.94392397035E+01 -0.25056376589E+02 -0.43148593335E+02  0.50781122090E+02  0.00000000000E+00 0. -1.
         -3    1    6    6    0  503 -0.32510099491E+03 -0.16308120613E+03 -0.27015081452E+03  0.45306467449E+03  0.00000000000E+00 0.  1.
<mgrwt>
<rscale>  0 0.12345186E+04</rscale>
<asrwt>0</asrwt>
<pdfrwt beam="1">  1        4 0.10010164E+00 0.12345186E+04</pdfrwt>
<pdfrwt beam="2">  1       -3 0.90088094E-01 0.12345186E+04</pdfrwt>
<totfact> 0.20617037E+00</totfact>
</mgrwt>
</event>
<event>
12    7  0.1729738E-007  0.2144146E+04  0.7818608E-02  0.8542042E-01
          2   -1    0    0  501    0  0.00000000000E+00  0.00000000000E+00  0.12849621620E+04  0.12849621620E+04  0.00000000000E+00 0. -1.
         -1   -1    0    0    0  501 -0.00000000000E+00 -0.00000000000E+00 -0.89445435544E+03  0.89445435544E+03  0.00000000000E+00 0.  1.
         24    2    1    2    0    0 -0.31660012053E+03 -0.34668902984E+03 -0.59679421037E+03  0.76348761770E+03  0.79505302459E+02 0.  0.
        254    2    1    2    0    0  0.31660012053E+03  0.34668902984E+03  0.98730201692E+03  0.14159288997E+04  0.89981134510E+03 0.  0.
         23    2    4    4    0    0  0.35675925810E+03 -0.22676728993E+03  0.45316953159E+03  0.62643676021E+03  0.91432041217E+02 0.  0.
         23    2    4    4    0    0 -0.40159137561E+02  0.57345631977E+03  0.53413248533E+03  0.78949213953E+03  0.86806793991E+02 0.  0.
          2    1    3    3  502    0  0.46529324292E+01 -0.58188602948E+01 -0.13343631515E+02  0.15282716294E+02  0.00000000000E+00 0. -1.
         -1    1    3    3    0  502 -0.32125305296E+03 -0.34087016954E+03 -0.58345057885E+03  0.74820490140E+03  0.00000000000E+00 0.  1.
         13    1    5    5    0    0  0.28737677832E+03 -0.22068320369E+03  0.39105374109E+03  0.53311304386E+03  0.00000000000E+00 0.  1.
        -13    1    5    5    0    0  0.69382479772E+02 -0.60840862480E+01  0.62115790494E+02  0.93323716351E+02  0.00000000000E+00 0. -1.
          4    1    6    6  503    0 -0.51991878213E+02  0.17692355450E+03  0.15851210121E+03  0.24316904771E+03  0.00000000000E+00 0. -1.
         -4    1    6    6    0  503  0.11832740652E+02  0.39653276527E+03  0.37562038413E+03  0.54632309182E+03  0.00000000000E+00 0.  1.
<mgrwt>
<rscale>  0 0.21441455E+04</rscale>
<asrwt>0</asrwt>
<pdfrwt beam="1">  1        2 0.19768649E+00 0.21441455E+04</pdfrwt>
<pdfrwt beam="2">  1       -1 0.13760836E+00 0.21441455E+04</pdfrwt>
<totfact> 0.77416244E+00</totfact>
</mgrwt>
</event>
<event>
12    7  0.1729738E-007  0.1454981E+04  0.7818608E-02  0.8914955E-01
          2   -1    0    0  501    0  0.00000000000E+00  0.00000000000E+00  0.10032934846E+04  0.10032934846E+04  0.00000000000E+00 0. -1.
         -1   -1    0    0    0  501 -0.00000000000E+00 -0.00000000000E+00 -0.52750481772E+03  0.52750481772E+03  0.00000000000E+00 0.  1.
         24    2    1    2    0    0  0.30206370268E+03 -0.28519223967E+03 -0.59321587381E+01  0.42347088148E+03  0.81946951805E+02 0.  0.
        254    2    1    2    0    0 -0.30206370268E+03  0.28519223967E+03  0.48172082559E+03  0.11073274208E+04  0.90638952389E+03 0.  0.
         23    2    4    4    0    0  0.24759633740E+03  0.31037522898E+03  0.34256480605E+03  0.53235111809E+03  0.91707892401E+02 0.  0.
         23    2    4    4    0    0 -0.54966004008E+03 -0.25182989309E+02  0.13915601954E+03  0.57497630272E+03  0.92048945141E+02 0.  0.
          2    1    3    3  502    0  0.43531808531E+02 -0.24797642606E+02 -0.25093023324E+02  0.56032144813E+02  0.00000000000E+00 0. -1.
         -1    1    3    3    0  502  0.25853189414E+03 -0.26039459707E+03  0.19160864586E+02  0.36743873667E+03  0.00000000000E+00 0.  1.
         13    1    5    5    0    0  0.58728995616E+02  0.33130378944E+02  0.29861477952E+02  0.73745676487E+02  0.00000000000E+00 0. -1.
        -13    1    5    5    0    0  0.18886734179E+03  0.27724485004E+03  0.31270332809E+03  0.45860544160E+03  0.00000000000E+00 0.  1.
          3    1    6    6  503    0 -0.43276059851E+03  0.97713157778E+01  0.13285686757E+03  0.45280035501E+03  0.00000000000E+00 0. -1.
         -3    1    6    6    0  503 -0.11689944156E+03 -0.34954305087E+02  0.62991519734E+01  0.12217594771E+03  0.00000000000E+00 0.  1.
<mgrwt>
<rscale>  0 0.14549806E+04</rscale>
<asrwt>0</asrwt>
<pdfrwt beam="1">  1        2 0.15435284E+00 0.14549806E+04</pdfrwt>
<pdfrwt beam="2">  1       -1 0.81154587E-01 0.14549806E+04</pdfrwt>
<totfact> 0.41950953E+01</totfact>
</mgrwt>
</event>
<event>
12    7  0.1729738E-007  0.1735924E+04  0.7818608E-02  0.8741137E-01
         -1   -1    0    0    0  501 -0.00000000000E+00  0.00000000000E+00  0.44860372350E+03  0.44860372350E+03  0.00000000000E+00 0.  1.
          2   -1    0    0  501    0  0.00000000000E+00 -0.00000000000E+00 -0.16793400666E+04  0.16793400666E+04  0.00000000000E+00 0. -1.
         24    2    1    2    0    0 -0.21006581041E+02 -0.55632911558E+03 -0.85780451466E+02  0.56812344692E+03  0.73909429686E+02 0.  0.
        254    2    1    2    0    0  0.21006581041E+02  0.55632911558E+03 -0.11449558917E+04  0.15598203432E+04  0.90120594090E+03 0.  0.
         23    2    4    4    0    0 -0.35066263216E+03  0.19479918003E+02 -0.61483848387E+03  0.71379623687E+03  0.90194000529E+02 0.  0.
         23    2    4    4    0    0  0.37166921320E+03  0.53684919758E+03 -0.53011740780E+03  0.84602410633E+03  0.91581971275E+02 0.  0.
          2    1    3    3  502    0 -0.27915975698E+02 -0.11024011851E+03 -0.35631593505E+02  0.11917128800E+03  0.00000000000E+00 0. -1.
         -1    1    3    3    0  502  0.69093946568E+01 -0.44608899708E+03 -0.50148857960E+02  0.44895215893E+03  0.00000000000E+00 0.  1.
         13    1    5    5    0    0 -0.12564102737E+03 -0.11478271530E+02 -0.30111643040E+03  0.32647897809E+03  0.00000000000E+00 0. -1.
        -13    1    5    5    0    0 -0.22502160479E+03  0.30958189532E+02 -0.31372205347E+03  0.38731725878E+03  0.00000000000E+00 0.  1.
          1    1    6    6  503    0  0.80767369670E+02  0.19066401480E+03 -0.15985669041E+03  0.26159185005E+03  0.00000000000E+00 0. -1.
         -1    1    6    6    0  503  0.29090184353E+03  0.34618518279E+03 -0.37026071738E+03  0.58443225628E+03  0.00000000000E+00 0.  1.
<mgrwt>
<rscale>  0 0.17359242E+04</rscale>
<asrwt>0</asrwt>
<pdfrwt beam="1">  1        2 0.25836001E+00 0.17359242E+04</pdfrwt>
<pdfrwt beam="2">  1       -1 0.69015958E-01 0.17359242E+04</pdfrwt>
<totfact> 0.23120334E+01</totfact>
</mgrwt>
</event>
<event>
12    7  0.1729738E-007  0.1536814E+04  0.7818608E-02  0.8860334E-01
          2   -1    0    0  501    0  0.00000000000E+00  0.00000000000E+00  0.10357911260E+04  0.10357911260E+04  0.00000000000E+00 0. -1.
         -1   -1    0    0    0  501 -0.00000000000E+00 -0.00000000000E+00 -0.57004672016E+03  0.57004672016E+03  0.00000000000E+00 0.  1.
         24    2    1    2    0    0 -0.21135419736E+03 -0.20199357242E+03 -0.26455122078E+03  0.40576449013E+03  0.95840873311E+02 0.  0.
        254    2    1    2    0    0  0.21135419736E+03  0.20199357242E+03  0.73029562665E+03  0.12000733560E+04  0.90629595473E+03 0.  0.
         23    2    4    4    0    0  0.12311374038E+03  0.31766810388E+03  0.89528041876E+03  0.96218606729E+03  0.90581358844E+02 0.  0.
         23    2    4    4    0    0  0.88240456971E+02 -0.11567453146E+03 -0.16498479212E+03  0.23788728876E+03  0.90572650673E+02 0.  0.
          4    1    3    3  502    0 -0.17338732995E+02 -0.49112007127E+02 -0.87593222224E+02  0.10190776950E+03  0.00000000000E+00 0. -1.
         -3    1    3    3    0  502 -0.19401546436E+03 -0.15288156529E+03 -0.17695799856E+03  0.30385672063E+03  0.00000000000E+00 0.  1.
         13    1    5    5    0    0  0.69527046577E+02  0.21876014984E+03  0.70173946114E+03  0.73832803326E+03  0.00000000000E+00 0.  1.
        -13    1    5    5    0    0  0.53586693808E+02  0.98907954033E+02  0.19354095762E+03  0.22385803403E+03  0.00000000000E+00 0. -1.
          3    1    6    6  503    0  0.10750397508E+02 -0.11507599587E+02  0.10989991654E+02  0.19203536429E+02  0.00000000000E+00 0. -1.
         -3    1    6    6    0  503  0.77490059463E+02 -0.10416693187E+03 -0.17597478377E+03  0.21868375233E+03  0.00000000000E+00 0.  1.
<mgrwt>
<rscale>  0 0.15368140E+04</rscale>
<asrwt>0</asrwt>
<pdfrwt beam="1">  1        2 0.15935248E+00 0.15368140E+04</pdfrwt>
<pdfrwt beam="2">  1       -1 0.87699495E-01 0.15368140E+04</pdfrwt>
<totfact> 0.33598348E+01</totfact>
</mgrwt>
</event>
<event>
12    7  0.1729738E-007  0.1029790E+04  0.7818608E-02  0.9276462E-01
          2   -1    0    0  501    0  0.00000000000E+00  0.00000000000E+00  0.11283651567E+04  0.11283651567E+04  0.00000000000E+00 0. -1.
         -1   -1    0    0    0  501 -0.00000000000E+00 -0.00000000000E+00 -0.23495659358E+03  0.23495659358E+03  0.00000000000E+00 0.  1.
         24    2    1    2    0    0 -0.27784263190E+02 -0.20172047862E+02  0.23111252951E+03  0.24606166417E+03  0.77165176607E+02 0.  0.
        254    2    1    2    0    0  0.27784263190E+02  0.20172047862E+02  0.66229603365E+03  0.11172600862E+04  0.89914136105E+03 0.  0.
         23    2    4    4    0    0  0.27973163669E+03 -0.28708974882E+03  0.56367212686E+03  0.69750559367E+03  0.90097026305E+02 0.  0.
         23    2    4    4    0    0 -0.25194737350E+03  0.30726179668E+03  0.98623906788E+02  0.41975449250E+03  0.92627578335E+02 0.  0.
          4    1    3    3  502    0 -0.16352290206E+02 -0.49679176906E+02  0.15678307818E+03  0.16527659125E+03  0.00000000000E+00 0. -1.
         -3    1    3    3    0  502 -0.11431972984E+02  0.29507129044E+02  0.74329451334E+02  0.80785072918E+02  0.00000000000E+00 0.  1.
         13    1    5    5    0    0  0.24129088875E+03 -0.27689674163E+03  0.53297246509E+03  0.64726559236E+03  0.00000000000E+00 0. -1.
        -13    1    5    5    0    0  0.38440747935E+02 -0.10193007194E+02  0.30699661777E+02  0.50240001301E+02  0.00000000000E+00 0.  1.
          3    1    6    6  503    0 -0.47467939468E+02  0.12563310844E+03  0.38750501136E+02  0.13978012931E+03  0.00000000000E+00 0. -1.
         -3    1    6    6    0  503 -0.20447943403E+03  0.18162868824E+03  0.59873405652E+02  0.27997436318E+03  0.00000000000E+00 0.  1.
<mgrwt>
<rscale>  0 0.10297899E+04</rscale>
<asrwt>0</asrwt>
<pdfrwt beam="1">  1        2 0.17359464E+00 0.10297899E+04</pdfrwt>
<pdfrwt beam="2">  1       -1 0.36147169E-01 0.10297899E+04</pdfrwt>
<totfact> 0.17392798E+02</totfact>
</mgrwt>
</event>
<event>
12    7  0.1729738E-007  0.1498018E+04  0.7818608E-02  0.8885772E-01
          2   -1    0    0  501    0  0.00000000000E+00  0.00000000000E+00  0.62807408295E+03  0.62807408295E+03  0.00000000000E+00 0. -1.
         -1   -1    0    0    0  501 -0.00000000000E+00 -0.00000000000E+00 -0.89323022836E+03  0.89323022836E+03  0.00000000000E+00 0.  1.
         24    2    1    2    0    0  0.68773994322E+02  0.32354727237E+03  0.25131802967E+03  0.42309758110E+03  0.80237842360E+02 0.  0.
        254    2    1    2    0    0 -0.68773994322E+02 -0.32354727237E+03 -0.51647417508E+03  0.10982067302E+04  0.91098833637E+03 0.  0.
         23    2    4    4    0    0 -0.47531715269E+02 -0.57429853572E+03 -0.84129246171E+02  0.58947802641E+03  0.91260842994E+02 0.  0.
         23    2    4    4    0    0 -0.21242279053E+02  0.25075126336E+03 -0.43234492891E+03  0.50872870380E+03  0.92495005383E+02 0.  0.
          4    1    3    3  502    0  0.68990797523E+02  0.27217689784E+03  0.17418823430E+03  0.33042629258E+03  0.00000000000E+00 0. -1.
         -3    1    3    3    0  502 -0.21680320112E+00  0.51370374528E+02  0.77129795365E+02  0.92671288519E+02  0.00000000000E+00 0.  1.
         13    1    5    5    0    0 -0.56352218113E+02 -0.23202596030E+03 -0.60277380583E+02  0.24626201768E+03  0.00000000000E+00 0.  1.
        -13    1    5    5    0    0  0.88205028443E+01 -0.34227257542E+03 -0.23851865588E+02  0.34321600873E+03  0.00000000000E+00 0. -1.
          4    1    6    6  503    0  0.13444791727E+02  0.13072729542E+03 -0.14669193824E+03  0.19694901101E+03  0.00000000000E+00 0. -1.
         -4    1    6    6    0  503 -0.34687070780E+02  0.12002396794E+03 -0.28565299067E+03  0.31177969279E+03  0.00000000000E+00 0.  1.
<mgrwt>
<rscale>  0 0.14980184E+04</rscale>
<asrwt>0</asrwt>
<pdfrwt beam="1">  1        2 0.96626782E-01 0.14980184E+04</pdfrwt>
<pdfrwt beam="2">  1       -1 0.13742004E+00 0.14980184E+04</pdfrwt>
<totfact> 0.22790482E+01</totfact>
</mgrwt>
</event>
<event>
12    7  0.2474639E-007  0.2726210E+04  0.7818608E-02  0.8326551E-01
          2   -1    0    0  501    0  0.00000000000E+00  0.00000000000E+00  0.20939328209E+04  0.20939328209E+04  0.00000000000E+00 0. -1.
         -1   -1    0    0    0  501 -0.00000000000E+00 -0.00000000000E+00 -0.88735188975E+03  0.88735188975E+03  0.00000000000E+00 0.  1.
         24    2    1    2    0    0 -0.21224288356E+03 -0.64019373217E+02  0.18395007898E+04  0.18545131303E+04  0.79437225869E+02 0.  0.
        254    2    1    2    0    0  0.21224288356E+03  0.64019373217E+02 -0.63291985872E+03  0.11267715803E+04  0.90547287363E+03 0.  0.
         23    2    4    4    0    0  0.47316980992E+02 -0.11601742285E+03 -0.80173106016E+03  0.81618813662E+03  0.87700869045E+02 0.  0.
         23    2    4    4    0    0  0.16492590257E+03  0.18003679607E+03  0.16881120144E+03  0.31058344370E+03  0.91384093227E+02 0.  0.
          4    1    3    3  502    0 -0.19353965657E+03 -0.55929750723E+02  0.13870713801E+04  0.14016250387E+04  0.00000000000E+00 0. -1.
         -3    1    3    3    0  502 -0.18703226988E+02 -0.80896224941E+01  0.45242940979E+03  0.45288809162E+03  0.00000000000E+00 0.  1.
         13    1    5    5    0    0 -0.22189948820E+02 -0.75051004767E+01 -0.98457190158E+02  0.10120542799E+03  0.00000000000E+00 0. -1.
        -13    1    5    5    0    0  0.69506929811E+02 -0.10851232238E+03 -0.70327387000E+03  0.71498270862E+03  0.00000000000E+00 0.  1.
          2    1    6    6  503    0 -0.11010976180E+02  0.62942070895E+01  0.35327467143E+01  0.13165824648E+02  0.00000000000E+00 0. -1.
         -2    1    6    6    0  503  0.17593687875E+03  0.17374258898E+03  0.16527845472E+03  0.29741761905E+03  0.00000000000E+00 0.  1.
<mgrwt>
<rscale>  0 0.27262100E+04</rscale>
<asrwt>0</asrwt>
<pdfrwt beam="1">  1        2 0.32214351E+00 0.27262100E+04</pdfrwt>
<pdfrwt beam="2">  1       -1 0.13651568E+00 0.27262100E+04</pdfrwt>
<totfact> 0.26393187E+00</totfact>
</mgrwt>
</event>
<event>
12    7  0.1729738E-007  0.3550519E+04  0.7818608E-02  0.8101921E-01
          2   -1    0    0  501    0  0.00000000000E+00  0.00000000000E+00  0.31202656423E+04  0.31202656423E+04  0.00000000000E+00 0. -1.
         -1   -1    0    0    0  501 -0.00000000000E+00 -0.00000000000E+00 -0.10100251821E+04  0.10100251821E+04  0.00000000000E+00 0.  1.
         24    2    1    2    0    0  0.14074512433E+03  0.11931418490E+04  0.23215251920E+04  0.26151678864E+04  0.78912580175E+02 0.  0.
        254    2    1    2    0    0 -0.14074512433E+03 -0.11931418490E+04 -0.21128473177E+03  0.15151229380E+04  0.89864320912E+03 0.  0.
         23    2    4    4    0    0 -0.34870250395E+03 -0.10082184899E+04  0.11465485220E+03  0.10769787683E+04  0.92949300924E+02 0.  0.
         23    2    4    4    0    0  0.20795737962E+03 -0.18492335910E+03 -0.32593958398E+03  0.43814416965E+03  0.91053723226E+02 0.  0.
          2    1    3    3  502    0  0.46618012347E+02  0.63490966798E+03  0.12886561274E+04  0.14373302127E+04  0.00000000000E+00 0. -1.
         -1    1    3    3    0  502  0.94127111982E+02  0.55823218106E+03  0.10328690646E+04  0.11778376738E+04  0.00000000000E+00 0.  1.
         13    1    5    5    0    0 -0.27545758183E+02 -0.36957770351E+02  0.17845317986E+02  0.49427734696E+02  0.00000000000E+00 0. -1.
        -13    1    5    5    0    0 -0.32115674576E+03 -0.97126071959E+03  0.96809534219E+02  0.10275510336E+04  0.00000000000E+00 0.  1.
          1    1    6    6  503    0 -0.20516177208E+01 -0.31246057375E+02 -0.23455503035E+02  0.39123980618E+02  0.00000000000E+00 0. -1.
         -1    1    6    6    0  503  0.21000899734E+03 -0.15367730172E+03 -0.30248408094E+03  0.39902018903E+03  0.00000000000E+00 0.  1.
<mgrwt>
<rscale>  0 0.35505193E+04</rscale>
<asrwt>0</asrwt>
<pdfrwt beam="1">  1        2 0.48004086E+00 0.35505193E+04</pdfrwt>
<pdfrwt beam="2">  1       -1 0.15538849E+00 0.35505193E+04</pdfrwt>
<totfact> 0.42972175E-01</totfact>
</mgrwt>
</event>
<event>
12    7  0.1729738E-007  0.3723385E+04  0.7818608E-02  0.8062799E-01
          2   -1    0    0  501    0  0.00000000000E+00  0.00000000000E+00  0.26448936497E+04  0.26448936497E+04  0.00000000000E+00 0. -1.
         -1   -1    0    0    0  501 -0.00000000000E+00 -0.00000000000E+00 -0.13104116071E+04  0.13104116071E+04  0.00000000000E+00 0.  1.
         24    2    1    2    0    0  0.21187675123E+03 -0.27893486301E+02 -0.12180949915E+04  0.12392977462E+04  0.80210292505E+02 0.  0.
        254    2    1    2    0    0 -0.21187675123E+03  0.27893486301E+02  0.25525770341E+04  0.27160075106E+04  0.90298254571E+03 0.  0.
         23    2    4    4    0    0  0.27478411291E+03  0.19010384068E+03  0.15218731725E+04  0.15609242878E+04  0.93492781314E+02 0.  0.
         23    2    4    4    0    0 -0.48666086414E+03 -0.16221035438E+03  0.10307038616E+04  0.11550832227E+04  0.93358477425E+02 0.  0.
          4    1    3    3  502    0  0.29675498383E+02 -0.79672546654E+01 -0.67100689615E+02  0.73801184936E+02  0.00000000000E+00 0. -1.
         -3    1    3    3    0  502  0.18220125285E+03 -0.19926231636E+02 -0.11509943019E+04  0.11654965613E+04  0.00000000000E+00 0.  1.
         13    1    5    5    0    0  0.25806921273E+02  0.60599284739E+02  0.32201999870E+03  0.32868700926E+03  0.00000000000E+00 0.  1.
        -13    1    5    5    0    0  0.24897719163E+03  0.12950455594E+03  0.11998531738E+04  0.12322372785E+04  0.00000000000E+00 0. -1.
          2    1    6    6  503    0 -0.18354238620E+03 -0.15608528507E+02  0.38881405210E+03  0.43024156099E+03  0.00000000000E+00 0. -1.
         -2    1    6    6    0  503 -0.30311847794E+03 -0.14660182587E+03  0.64188980955E+03  0.72484166176E+03  0.00000000000E+00 0.  1.
<mgrwt>
<rscale>  0 0.37233852E+04</rscale>
<asrwt>0</asrwt>
<pdfrwt beam="1">  1        2 0.40690671E+00 0.37233852E+04</pdfrwt>
<pdfrwt beam="2">  1       -1 0.20160179E+00 0.37233852E+04</pdfrwt>
<totfact> 0.38506827E-01</totfact>
</mgrwt>
</event>
<event>
12    7  0.1729738E-007  0.1035797E+04  0.7818608E-02  0.9270132E-01
          4   -1    0    0  501    0  0.00000000000E+00  0.00000000000E+00  0.16492648289E+03  0.16492648289E+03  0.00000000000E+00 0. -1.
         -3   -1    0    0    0  501 -0.00000000000E+00 -0.00000000000E+00 -0.16262941271E+04  0.16262941271E+04  0.00000000000E+00 0.  1.
         24    2    1    2    0    0 -0.80008520420E+02  0.25298417166E+02 -0.22029046768E+03  0.24897523231E+03  0.80121176353E+02 0.  0.
        254    2    1    2    0    0  0.80008520420E+02 -0.25298417166E+02 -0.12410771765E+04  0.15422453777E+04  0.91170547528E+03 0.  0.
         23    2    4    4    0    0 -0.42229114240E+01 -0.95114280948E+02 -0.13547470408E+04  0.13612271188E+04  0.92385957065E+02 0.  0.
         23    2    4    4    0    0  0.84231431844E+02  0.69815863782E+02  0.11366986429E+03  0.18101825884E+03  0.88755749335E+02 0.  0.
          4    1    3    3  502    0 -0.41954481311E+02  0.10345505307E+02 -0.26001995670E+02  0.50431257777E+02  0.00000000000E+00 0. -1.
         -3    1    3    3    0  502 -0.38054039109E+02  0.14952911859E+02 -0.19428847201E+03  0.19854397453E+03  0.00000000000E+00 0.  1.
         13    1    5    5    0    0  0.28514344224E+02 -0.10666890554E+02 -0.64592788176E+03  0.64664494030E+03  0.00000000000E+00 0.  1.
        -13    1    5    5    0    0 -0.32737255648E+02 -0.84447390394E+02 -0.70881915904E+03  0.71458217854E+03  0.00000000000E+00 0. -1.
          1    1    6    6  503    0  0.79883229939E+02  0.89917015433E+02  0.98499418769E+02  0.15546232852E+03  0.00000000000E+00 0. -1.
         -1    1    6    6    0  503  0.43482019052E+01 -0.20101151651E+02  0.15170445522E+02  0.25555930326E+02  0.00000000000E+00 0.  1.
<mgrwt>
<rscale>  0 0.10357972E+04</rscale>
<asrwt>0</asrwt>
<pdfrwt beam="1">  1        4 0.25373304E-01 0.10357972E+04</pdfrwt>
<pdfrwt beam="2">  1       -3 0.25019910E+00 0.10357972E+04</pdfrwt>
<totfact> 0.24832100E+00</totfact>
</mgrwt>
</event>
<event>
12    7  0.1729738E-007  0.3320785E+04  0.7818608E-02  0.8157627E-01
         -1   -1    0    0    0  501 -0.00000000000E+00  0.00000000000E+00  0.91325903120E+03  0.91325903120E+03  0.00000000000E+00 0.  1.
          2   -1    0    0  501    0  0.00000000000E+00 -0.00000000000E+00 -0.30187520847E+04  0.30187520847E+04  0.00000000000E+00 0. -1.
         24    2    1    2    0    0  0.12532008210E+04  0.91533647948E+02 -0.20166024389E+04  0.23774074518E+04  0.80561086870E+02 0.  0.
        254    2    1    2    0    0 -0.12532008210E+04 -0.91533647948E+02 -0.88890614630E+02  0.15546036641E+04  0.91104352511E+03 0.  0.
         23    2    4    4    0    0  0.10118010923E+03 -0.13692066248E+03  0.11458574355E+02  0.19270988213E+03  0.89560691297E+02 0.  0.
         23    2    4    4    0    0 -0.13543809303E+04  0.45387014535E+02 -0.10034918899E+03  0.13618937820E+04  0.90978175382E+02 0.  0.
          4    1    3    3  502    0  0.11911223360E+04  0.10451134037E+03 -0.19149771666E+04  0.22576165724E+04  0.00000000000E+00 0. -1.
         -3    1    3    3    0  502  0.62078485008E+02 -0.12977692420E+02 -0.10162527231E+03  0.11979087934E+03  0.00000000000E+00 0.  1.
         13    1    5    5    0    0  0.10860228496E+03 -0.11556257895E+03 -0.13346836482E+02  0.15914554344E+03  0.00000000000E+00 0. -1.
        -13    1    5    5    0    0 -0.74221757336E+01 -0.21358083532E+02  0.24805410837E+02  0.33564338688E+02  0.00000000000E+00 0.  1.
          3    1    6    6  503    0 -0.79804761872E+03  0.16145462134E+02 -0.10267662290E+03  0.80478765310E+03  0.00000000000E+00 0. -1.
         -3    1    6    6    0  503 -0.55633331154E+03  0.29241552401E+02  0.23274339139E+01  0.55710612890E+03  0.00000000000E+00 0.  1.
<mgrwt>
<rscale>  0 0.33207846E+04</rscale>
<asrwt>0</asrwt>
<pdfrwt beam="1">  1        2 0.46442340E+00 0.33207846E+04</pdfrwt>
<pdfrwt beam="2">  1       -1 0.14050139E+00 0.33207846E+04</pdfrwt>
<totfact> 0.66584144E-01</totfact>
</mgrwt>
</event>
<event>
12    7  0.1729738E-007  0.2286861E+04  0.7818608E-02  0.8483120E-01
          2   -1    0    0  501    0  0.00000000000E+00  0.00000000000E+00  0.80911865107E+03  0.80911865107E+03  0.00000000000E+00 0. -1.
         -3   -1    0    0    0  501 -0.00000000000E+00 -0.00000000000E+00 -0.16158734285E+04  0.16158734285E+04  0.00000000000E+00 0.  1.
         24    2    1    2    0    0  0.16981318596E+03  0.51503971172E+03  0.50244928259E+03  0.74400198904E+03  0.83553906861E+02 0.  0.
        254    2    1    2    0    0 -0.16981318596E+03 -0.51503971172E+03 -0.13092040600E+04  0.16809900905E+04  0.90421788908E+03 0.  0.
         23    2    4    4    0    0 -0.38614239550E+03 -0.45365021232E+03 -0.36122188156E+03  0.70244426485E+03  0.89678496616E+02 0.  0.
         23    2    4    4    0    0  0.21632920954E+03 -0.61389499406E+02 -0.94798217845E+03  0.97854582568E+03  0.91185112624E+02 0.  0.
          4    1    3    3  502    0  0.17689760397E+03  0.51040998676E+03  0.49592173775E+03  0.73331404381E+03  0.00000000000E+00 0. -1.
         -3    1    3    3    0  502 -0.70844180085E+01  0.46297249640E+01  0.65275448327E+01  0.10687945233E+02  0.00000000000E+00 0.  1.
         13    1    5    5    0    0 -0.31963070253E+03 -0.35836177176E+03 -0.32820194505E+03  0.58163860101E+03  0.00000000000E+00 0.  1.
        -13    1    5    5    0    0 -0.66511692979E+02 -0.95288440559E+02 -0.33019936516E+02  0.12080566384E+03  0.00000000000E+00 0. -1.
          1    1    6    6  503    0  0.13795249262E+03 -0.69839277500E+02 -0.74320529828E+03  0.75911957576E+03  0.00000000000E+00 0. -1.
         -1    1    6    6    0  503  0.78376716926E+02  0.84497780936E+01 -0.20477688017E+03  0.21942624993E+03  0.00000000000E+00 0.  1.
<mgrwt>
<rscale>  0 0.22868610E+04</rscale>
<asrwt>0</asrwt>
<pdfrwt beam="1">  1        2 0.12447979E+00 0.22868610E+04</pdfrwt>
<pdfrwt beam="2">  1       -3 0.24859591E+00 0.22868610E+04</pdfrwt>
<totfact> 0.14378474E+00</totfact>
</mgrwt>
</event>
<event>
12    7  0.1729738E-007  0.3625722E+04  0.7818608E-02  0.8084625E-01
          2   -1    0    0  501    0  0.00000000000E+00  0.00000000000E+00  0.39170347500E+04  0.39170347500E+04  0.00000000000E+00 0. -1.
         -1   -1    0    0    0  501 -0.00000000000E+00 -0.00000000000E+00 -0.83901880312E+03  0.83901880312E+03  0.00000000000E+00 0.  1.
         24    2    1    2    0    0  0.77380445536E+03 -0.18635818934E+03 -0.52634127597E+03  0.95739680239E+03  0.77915265297E+02 0.  0.
        254    2    1    2    0    0 -0.77380445536E+03  0.18635818934E+03  0.36043572228E+04  0.37986567507E+04  0.89716186396E+03 0.  0.
         23    2    4    4    0    0 -0.58404961116E+03  0.14286224044E+02  0.34141521076E+04  0.34650553721E+04  0.94106712479E+02 0.  0.
         23    2    4    4    0    0 -0.18975484420E+03  0.17207196529E+03  0.19020511522E+03  0.33360137862E+03  0.97448611192E+02 0.  0.
          4    1    3    3  502    0 -0.45219611302E+00  0.48580340940E+00  0.16668008865E+01  0.17940767744E+01  0.00000000000E+00 0. -1.
         -3    1    3    3    0  502  0.77425665147E+03 -0.18684399275E+03 -0.52800807686E+03  0.95560272561E+03  0.00000000000E+00 0.  1.
         13    1    5    5    0    0 -0.19343567631E+03  0.37265947531E+02  0.13269074992E+04  0.13414505668E+04  0.00000000000E+00 0.  1.
        -13    1    5    5    0    0 -0.39061393485E+03 -0.22979723486E+02  0.20872446083E+04  0.21236048052E+04  0.00000000000E+00 0. -1.
          1    1    6    6  503    0 -0.12260533158E+03  0.15761303239E+03  0.10990893294E+03  0.22793400109E+03  0.00000000000E+00 0. -1.
         -1    1    6    6    0  503 -0.67149512621E+02  0.14458932902E+02  0.80296182280E+02  0.10566737753E+03  0.00000000000E+00 0.  1.
<mgrwt>
<rscale>  0 0.36257224E+04</rscale>
<asrwt>0</asrwt>
<pdfrwt beam="1">  1        2 0.60262072E+00 0.36257224E+04</pdfrwt>
<pdfrwt beam="2">  1       -1 0.12907982E+00 0.36257224E+04</pdfrwt>
<totfact> 0.18941552E-01</totfact>
</mgrwt>
</event>
<event>
12    7  0.1729738E-007  0.1547348E+04  0.7818608E-02  0.8853563E-01
         -1   -1    0    0    0  501 -0.00000000000E+00  0.00000000000E+00  0.26253771556E+03  0.26253771556E+03  0.00000000000E+00 0.  1.
          2   -1    0    0  501    0  0.00000000000E+00 -0.00000000000E+00 -0.22799453319E+04  0.22799453319E+04  0.00000000000E+00 0. -1.
         24    2    1    2    0    0 -0.16109848609E+03  0.46196173987E+03 -0.84456198222E+03  0.97932310473E+03  0.80171256109E+02 0.  0.
        254    2    1    2    0    0  0.16109848609E+03 -0.46196173987E+03 -0.11728456341E+04  0.15631599427E+04  0.91024214018E+03 0.  0.
         23    2    4    4    0    0 -0.93302793898E+02  0.10110245190E+03  0.67327743723E+02  0.17463177047E+03  0.83881541790E+02 0.  0.
         23    2    4    4    0    0  0.25440127999E+03 -0.56306419178E+03 -0.12401733779E+04  0.13885281723E+04  0.90659708404E+02 0.  0.
          2    1    3    3  502    0 -0.16939153867E+03  0.42028188073E+03 -0.76542666459E+03  0.88949892159E+03  0.00000000000E+00 0. -1.
         -1    1    3    3    0  502  0.82930525796E+01  0.41679859145E+02 -0.79135317638E+02  0.89824183142E+02  0.00000000000E+00 0.  1.
         13    1    5    5    0    0 -0.64556178020E+02  0.56341663041E+02  0.82878386576E+02  0.11920868289E+03  0.00000000000E+00 0.  1.
        -13    1    5    5    0    0 -0.28746615878E+02  0.44760788861E+02 -0.15550642853E+02  0.55423087581E+02  0.00000000000E+00 0. -1.
          4    1    6    6  503    0  0.18257646518E+03 -0.41654544780E+03 -0.81825229287E+03  0.93615227955E+03  0.00000000000E+00 0. -1.
         -4    1    6    6    0  503  0.71824814807E+02 -0.14651874397E+03 -0.42192108499E+03  0.45237589273E+03  0.00000000000E+00 0.  1.
<mgrwt>
<rscale>  0 0.15473482E+04</rscale>
<asrwt>0</asrwt>
<pdfrwt beam="1">  1        2 0.35076081E+00 0.15473482E+04</pdfrwt>
<pdfrwt beam="2">  1       -1 0.40390418E-01 0.15473482E+04</pdfrwt>
<totfact> 0.30571658E+01</totfact>
</mgrwt>
</event>
<event>
12    7  0.1729738E-007  0.2210483E+04  0.7818608E-02  0.8514078E-01
          2   -1    0    0  501    0  0.00000000000E+00  0.00000000000E+00  0.17232217182E+04  0.17232217182E+04  0.00000000000E+00 0. -1.
         -1   -1    0    0    0  501 -0.00000000000E+00 -0.00000000000E+00 -0.70888065306E+03  0.70888065306E+03  0.00000000000E+00 0.  1.
         24    2    1    2    0    0 -0.43178286060E+03  0.40059744192E+03 -0.35234509870E+03  0.69073887874E+03  0.77835601440E+02 0.  0.
        254    2    1    2    0    0  0.43178286060E+03 -0.40059744192E+03  0.13666861639E+04  0.17413634926E+04  0.90421291382E+03 0.  0.
         23    2    4    4    0    0 -0.17144624792E+02 -0.84616604293E+02 -0.10467705713E+03  0.16834904516E+03  0.99650423157E+02 0.  0.
         23    2    4    4    0    0  0.44892748539E+03 -0.31598083763E+03  0.14713632210E+04  0.15730144474E+04  0.89916331825E+02 0.  0.
          4    1    3    3  502    0 -0.15453729048E+03  0.14348178850E+03 -0.83590438704E+02  0.22683950102E+03  0.00000000000E+00 0. -1.
         -3    1    3    3    0  502 -0.27724557011E+03  0.25711565342E+03 -0.26875465999E+03  0.46389937772E+03  0.00000000000E+00 0.  1.
         13    1    5    5    0    0  0.22742094294E+02  0.46034033199E+01  0.24601604176E+01  0.23333378758E+02  0.00000000000E+00 0. -1.
        -13    1    5    5    0    0 -0.39886719087E+02 -0.89220007613E+02 -0.10713721755E+03  0.14501566640E+03  0.00000000000E+00 0.  1.
          4    1    6    6  503    0  0.85037942371E+02 -0.74385556610E+02  0.41015858881E+03  0.42543475487E+03  0.00000000000E+00 0. -1.
         -4    1    6    6    0  503  0.36388954302E+03 -0.24159528102E+03  0.10612046322E+04  0.11475796925E+04  0.00000000000E+00 0.  1.
<mgrwt>
<rscale>  0 0.22104828E+04</rscale>
<asrwt>0</asrwt>
<pdfrwt beam="1">  1        2 0.26511103E+00 0.22104828E+04</pdfrwt>
<pdfrwt beam="2">  1       -1 0.10905856E+00 0.22104828E+04</pdfrwt>
<totfact> 0.77100175E+00</totfact>
</mgrwt>
</event>
<event>
12    7  0.1729738E-007  0.1652189E+04  0.7818608E-02  0.8789112E-01
          2   -1    0    0  501    0  0.00000000000E+00  0.00000000000E+00  0.30855123899E+04  0.30855123899E+04  0.00000000000E+00 0. -1.
         -1   -1    0    0    0  501 -0.00000000000E+00 -0.00000000000E+00 -0.22117310106E+03  0.22117310106E+03  0.00000000000E+00 0.  1.
         24    2    1    2    0    0  0.53165423701E+03 -0.14773392235E+03  0.13770314302E+04  0.14854996127E+04  0.77537087214E+02 0.  0.
        254    2    1    2    0    0 -0.53165423701E+03  0.14773392235E+03  0.14873078587E+04  0.18211858783E+04  0.89451204431E+03 0.  0.
         23    2    4    4    0    0 -0.22020460390E+03  0.48737417824E+03  0.54931275822E+03  0.77205904172E+03  0.91142747194E+02 0.  0.
         23    2    4    4    0    0 -0.31144963311E+03 -0.33964025589E+03  0.93799510044E+03  0.10491268366E+04  0.92064832783E+02 0.  0.
          2    1    3    3  502    0  0.25272961406E+03 -0.57742882170E+02  0.74512081039E+03  0.78893061820E+03  0.00000000000E+00 0. -1.
         -1    1    3    3    0  502  0.27892462295E+03 -0.89991040178E+02  0.63191061982E+03  0.69656899446E+03  0.00000000000E+00 0.  1.
         13    1    5    5    0    0 -0.14358158322E+03  0.32250491591E+03  0.29863193976E+03  0.46239174654E+03  0.00000000000E+00 0.  1.
        -13    1    5    5    0    0 -0.76623020682E+02  0.16486926233E+03  0.25068081846E+03  0.30966729518E+03  0.00000000000E+00 0. -1.
          4    1    6    6  503    0 -0.13790249070E+01  0.49462494831E+01  0.43215457948E+01  0.67113971496E+01  0.00000000000E+00 0. -1.
         -4    1    6    6    0  503 -0.31007060820E+03 -0.34458650538E+03  0.93367355465E+03  0.10424154395E+04  0.00000000000E+00 0.  1.
<mgrwt>
<rscale>  0 0.16521893E+04</rscale>
<asrwt>0</asrwt>
<pdfrwt beam="1">  1        2 0.47469418E+00 0.16521893E+04</pdfrwt>
<pdfrwt beam="2">  1       -1 0.34026633E-01 0.16521893E+04</pdfrwt>
<totfact> 0.13729183E+01</totfact>
</mgrwt>
</event>
<event>
12    7  0.1729738E-007  0.1786781E+04  0.7818608E-02  0.8713361E-01
         -1   -1    0    0    0  501 -0.00000000000E+00  0.00000000000E+00  0.29705339006E+03  0.29705339006E+03  0.00000000000E+00 0.  1.
          2   -1    0    0  501    0  0.00000000000E+00 -0.00000000000E+00 -0.26868788554E+04  0.26868788554E+04  0.00000000000E+00 0. -1.
         24    2    1    2    0    0  0.45438980836E+03  0.38545598739E+02 -0.89707376963E+02  0.47155704913E+03  0.79767010553E+02 0.  0.
        254    2    1    2    0    0 -0.45438980836E+03 -0.38545598739E+02 -0.23001180884E+04  0.25123751964E+04  0.90195900435E+03 0.  0.
         23    2    4    4    0    0 -0.23639353151E+03  0.23719746646E+03 -0.20320509338E+04  0.20612540898E+04  0.85981889741E+02 0.  0.
         23    2    4    4    0    0 -0.21799627686E+03 -0.27574306520E+03 -0.26806715460E+03  0.45112110654E+03  0.89964652293E+02 0.  0.
          2    1    3    3  502    0 -0.17116919859E+01 -0.20462832952E+01  0.33604235093E+01  0.42906422527E+01  0.00000000000E+00 0. -1.
         -1    1    3    3    0  502  0.45610150035E+03  0.40591882034E+02 -0.93067800472E+02  0.46726640687E+03  0.00000000000E+00 0.  1.
         13    1    5    5    0    0 -0.83018281482E+02  0.10658294319E+03 -0.10578291380E+04  0.10664213257E+04  0.00000000000E+00 0.  1.
        -13    1    5    5    0    0 -0.15337525002E+03  0.13061452327E+03 -0.97422179583E+03  0.99483276408E+03  0.00000000000E+00 0. -1.
          2    1    6    6  503    0 -0.18659182509E+03 -0.20445896831E+03 -0.16613301304E+03  0.32283146832E+03  0.00000000000E+00 0. -1.
         -2    1    6    6    0  503 -0.31404451765E+02 -0.71284096886E+02 -0.10193414156E+03  0.12828963822E+03  0.00000000000E+00 0.  1.
<mgrwt>
<rscale>  0 0.17867809E+04</rscale>
<asrwt>0</asrwt>
<pdfrwt beam="1">  1        2 0.41336599E+00 0.17867809E+04</pdfrwt>
<pdfrwt beam="2">  1       -1 0.45700520E-01 0.17867809E+04</pdfrwt>
<totfact> 0.13870325E+01</totfact>
</mgrwt>
</event>
<event>
12    7  0.1729738E-007  0.1390594E+04  0.7818608E-02  0.8960655E-01
         -1   -1    0    0    0  501 -0.00000000000E+00  0.00000000000E+00  0.33608450928E+03  0.33608450928E+03  0.00000000000E+00 0.  1.
          2   -1    0    0  501    0  0.00000000000E+00 -0.00000000000E+00 -0.14384423949E+04  0.14384423949E+04  0.00000000000E+00 0. -1.
         24    2    1    2    0    0  0.15072932814E+02 -0.62633571699E+01  0.18210482221E+03  0.19999054792E+03  0.81040915843E+02 0.  0.
        254    2    1    2    0    0 -0.15072932814E+02  0.62633571699E+01 -0.12844627079E+04  0.15745363563E+04  0.91052395161E+03 0.  0.
         23    2    4    4    0    0  0.18213712784E+03 -0.38224650636E+03 -0.42478047216E+03  0.60631195397E+03  0.88822356631E+02 0.  0.
         23    2    4    4    0    0 -0.19721006066E+03  0.38850986353E+03 -0.85968223572E+03  0.96822440233E+03  0.92591710086E+02 0.  0.
          4    1    3    3  502    0  0.83655956645E+01  0.52987948159E+01 -0.58895314267E+01  0.11521588334E+02  0.00000000000E+00 0. -1.
         -3    1    3    3    0  502  0.67073371497E+01 -0.11562151986E+02  0.18799435363E+03  0.18846895959E+03  0.00000000000E+00 0.  1.
         13    1    5    5    0    0  0.24415923402E+02 -0.42702745205E+02 -0.15382027985E+02  0.51539000267E+02  0.00000000000E+00 0. -1.
        -13    1    5    5    0    0  0.15772120444E+03 -0.33954376116E+03 -0.40939844417E+03  0.55477295371E+03  0.00000000000E+00 0.  1.
          1    1    6    6  503    0 -0.16493113120E+03  0.25794223816E+03 -0.65888883303E+03  0.72654729410E+03  0.00000000000E+00 0. -1.
         -1    1    6    6    0  503 -0.32278929455E+02  0.13056762538E+03 -0.20079340269E+03  0.24167710824E+03  0.00000000000E+00 0.  1.
<mgrwt>
<rscale>  0 0.13905944E+04</rscale>
<asrwt>0</asrwt>
<pdfrwt beam="1">  1        2 0.22129884E+00 0.13905944E+04</pdfrwt>
<pdfrwt beam="2">  1       -1 0.51705308E-01 0.13905944E+04</pdfrwt>
<totfact> 0.57472144E+01</totfact>
</mgrwt>
</event>
<event>
12    7  0.1729738E-007  0.2195723E+04  0.7818608E-02  0.8520211E-01
          2   -1    0    0  501    0  0.00000000000E+00  0.00000000000E+00  0.21658956152E+04  0.21658956152E+04  0.00000000000E+00 0. -1.
         -1   -1    0    0    0  501 -0.00000000000E+00 -0.00000000000E+00 -0.55649011088E+03  0.55649011088E+03  0.00000000000E+00 0.  1.
         24    2    1    2    0    0 -0.30804067831E+03  0.64075572860E+01  0.17087483228E+04  0.17381237487E+04  0.79518668983E+02 0.  0.
        254    2    1    2    0    0  0.30804067831E+03 -0.64075572860E+01 -0.99342818469E+02  0.98426197742E+03  0.92950122557E+03 0.  0.
         23    2    4    4    0    0  0.91473706631E+02  0.33512980885E+03  0.25344540156E+03  0.43957408311E+03  0.91166743830E+02 0.  0.
         23    2    4    4    0    0  0.21656697168E+03 -0.34153736614E+03 -0.35278822003E+03  0.54468789432E+03  0.93146917987E+02 0.  0.
          4    1    3    3  502    0 -0.29766480617E+03  0.16981796621E+02  0.15311111655E+04  0.15598699047E+04  0.00000000000E+00 0. -1.
         -3    1    3    3    0  502 -0.10375872141E+02 -0.10574239335E+02  0.17763715726E+03  0.17825384400E+03  0.00000000000E+00 0.  1.
         13    1    5    5    0    0  0.91367946410E+02  0.20422184129E+03  0.12549803894E+03  0.25652372185E+03  0.00000000000E+00 0.  1.
        -13    1    5    5    0    0  0.10576022045E+00  0.13090796756E+03  0.12794736262E+03  0.18305036126E+03  0.00000000000E+00 0. -1.
          2    1    6    6  503    0  0.97106210169E+01 -0.27212190029E+02 -0.69660750598E-02  0.28892896969E+02  0.00000000000E+00 0. -1.
         -2    1    6    6    0  503  0.20685635066E+03 -0.31432517611E+03 -0.35278125396E+03  0.51579499735E+03  0.00000000000E+00 0.  1.
<mgrwt>
<rscale>  0 0.21957227E+04</rscale>
<asrwt>0</asrwt>
<pdfrwt beam="1">  1        2 0.33321470E+00 0.21957227E+04</pdfrwt>
<pdfrwt beam="2">  1       -1 0.85613865E-01 0.21957227E+04</pdfrwt>
<totfact> 0.75691462E+00</totfact>
</mgrwt>
</event>
<event>
12    7  0.1729738E-007  0.1693939E+04  0.7818608E-02  0.8764828E-01
         -1   -1    0    0    0  501 -0.00000000000E+00  0.00000000000E+00  0.30260210081E+03  0.30260210081E+03  0.00000000000E+00 0.  1.
          2   -1    0    0  501    0  0.00000000000E+00 -0.00000000000E+00 -0.23706303487E+04  0.23706303487E+04  0.00000000000E+00 0. -1.
         24    2    1    2    0    0  0.14982315759E+03  0.13932649580E+03  0.15325143806E+03  0.26911528556E+03  0.84131936107E+02 0.  0.
        254    2    1    2    0    0 -0.14982315759E+03 -0.13932649580E+03 -0.22212796860E+04  0.24041171640E+04  0.89656959787E+03 0.  0.
         23    2    4    4    0    0 -0.34452810624E+03  0.27504355168E+03 -0.10015669966E+04  0.10980861102E+04  0.91148699619E+02 0.  0.
         23    2    4    4    0    0  0.19470494865E+03 -0.41437004748E+03 -0.12197126894E+04  0.13060310538E+04  0.91681598581E+02 0.  0.
          4    1    3    3  502    0  0.66610232157E+02  0.42495412705E+02  0.10766701681E+03  0.13354763059E+03  0.00000000000E+00 0. -1.
         -3    1    3    3    0  502  0.83212925435E+02  0.96831083094E+02  0.45584421253E+02  0.13556765497E+03  0.00000000000E+00 0.  1.
         13    1    5    5    0    0 -0.20522623467E+03  0.14129768199E+03 -0.66362567096E+03  0.70885955837E+03  0.00000000000E+00 0.  1.
        -13    1    5    5    0    0 -0.13930187157E+03  0.13374586969E+03 -0.33794132566E+03  0.38922655185E+03  0.00000000000E+00 0. -1.
          3    1    6    6  503    0  0.18201940992E+03 -0.35499902697E+03 -0.96561410578E+03  0.10447803482E+04  0.00000000000E+00 0. -1.
         -3    1    6    6    0  503  0.12685538734E+02 -0.59371020510E+02 -0.25409858358E+03  0.26125070555E+03  0.00000000000E+00 0.  1.
<mgrwt>
<rscale>  0 0.16939395E+04</rscale>
<asrwt>0</asrwt>
<pdfrwt beam="1">  1        2 0.36471236E+00 0.16939395E+04</pdfrwt>
<pdfrwt beam="2">  1       -1 0.46554169E-01 0.16939395E+04</pdfrwt>
<totfact> 0.20609161E+01</totfact>
</mgrwt>
</event>
<event>
12    7  0.1729738E-007  0.3341238E+04  0.7818608E-02  0.8152481E-01
          2   -1    0    0  501    0  0.00000000000E+00  0.00000000000E+00  0.82040326363E+03  0.82040326363E+03  0.00000000000E+00 0. -1.
         -1   -1    0    0    0  501 -0.00000000000E+00 -0.00000000000E+00 -0.34019452843E+04  0.34019452843E+04  0.00000000000E+00 0.  1.
         24    2    1    2    0    0 -0.88972791235E+03 -0.93666133229E+03 -0.12059261207E+03  0.12996910580E+04  0.75525219023E+02 0.  0.
        254    2    1    2    0    0  0.88972791235E+03  0.93666133229E+03 -0.24609494086E+04  0.29226574900E+04  0.90371710311E+03 0.  0.
         23    2    4    4    0    0  0.44844586475E+03 -0.77248339946E+02 -0.64522495126E+03  0.79464140117E+03  0.89826049010E+02 0.  0.
         23    2    4    4    0    0  0.44128204760E+03  0.10139096722E+04 -0.18157244574E+04  0.21280160888E+04  0.94098353645E+02 0.  0.
          4    1    3    3  502    0 -0.76676930765E+03 -0.83239868351E+03 -0.12349447330E+03  0.11384522934E+04  0.00000000000E+00 0. -1.
         -3    1    3    3    0  502 -0.12295860469E+03 -0.10426264878E+03  0.29018612294E+01  0.16123876456E+03  0.00000000000E+00 0.  1.
         13    1    5    5    0    0  0.19175261555E+03  0.28270441461E+01 -0.31503030514E+03  0.36881045390E+03  0.00000000000E+00 0.  1.
        -13    1    5    5    0    0  0.25669324920E+03 -0.80075384093E+02 -0.33019464612E+03  0.42583094727E+03  0.00000000000E+00 0. -1.
          1    1    6    6  503    0  0.18139162729E+03  0.33138165235E+03 -0.67505936649E+03  0.77357732015E+03  0.00000000000E+00 0. -1.
         -1    1    6    6    0  503  0.25989042030E+03  0.68252801988E+03 -0.11406650909E+04  0.13544387686E+04  0.00000000000E+00 0.  1.
<mgrwt>
<rscale>  0 0.33412375E+04</rscale>
<asrwt>0</asrwt>
<pdfrwt beam="1">  1        2 0.12621589E+00 0.33412375E+04</pdfrwt>
<pdfrwt beam="2">  1       -1 0.52337619E+00 0.33412375E+04</pdfrwt>
<totfact> 0.33542651E-02</totfact>
</mgrwt>
</event>
<event>
12    7  0.1729738E-007  0.3073464E+04  0.7818608E-02  0.8223058E-01
         -1   -1    0    0    0  501 -0.00000000000E+00  0.00000000000E+00  0.79591829667E+03  0.79591829667E+03  0.00000000000E+00 0.  1.
          2   -1    0    0  501    0  0.00000000000E+00 -0.00000000000E+00 -0.29670702420E+04  0.29670702420E+04  0.00000000000E+00 0. -1.
         24    2    1    2    0    0 -0.15491491210E+03 -0.11148822485E+04 -0.20233206588E+04  0.23170676129E+04  0.89525283246E+02 0.  0.
        254    2    1    2    0    0  0.15491491210E+03  0.11148822485E+04 -0.14783128647E+03  0.14459209257E+04  0.89547315763E+03 0.  0.
         23    2    4    4    0    0 -0.16989120974E+03  0.21238612784E+03  0.26980347388E+03  0.39580941103E+03  0.99500175339E+02 0.  0.
         23    2    4    4    0    0  0.32480612185E+03  0.90249612070E+03 -0.41763476036E+03  0.10501115147E+04  0.91198330776E+02 0.  0.
          2    1    3    3  502    0 -0.13645004244E+03 -0.95566451511E+03 -0.17946969011E+04  0.20378543241E+04  0.00000000000E+00 0. -1.
         -1    1    3    3    0  502 -0.18464869659E+02 -0.15921773343E+03 -0.22862375777E+03  0.27921328884E+03  0.00000000000E+00 0.  1.
         13    1    5    5    0    0 -0.68340722418E+02  0.15383868815E+03  0.12591236427E+03  0.21021588852E+03  0.00000000000E+00 0. -1.
        -13    1    5    5    0    0 -0.10155048732E+03  0.58547439695E+02  0.14389110962E+03  0.18559352251E+03  0.00000000000E+00 0.  1.
          3    1    6    6  503    0  0.28798845458E+03  0.70315444592E+03 -0.34830121288E+03  0.83586916421E+03  0.00000000000E+00 0. -1.
         -3    1    6    6    0  503  0.36817667261E+02  0.19934167478E+03 -0.69333547471E+02  0.21424235046E+03  0.00000000000E+00 0.  1.
<mgrwt>
<rscale>  0 0.30734642E+04</rscale>
<asrwt>0</asrwt>
<pdfrwt beam="1">  1        2 0.45647235E+00 0.30734642E+04</pdfrwt>
<pdfrwt beam="2">  1       -1 0.12244897E+00 0.30734642E+04</pdfrwt>
<totfact> 0.10388825E+00</totfact>
</mgrwt>
</event>
<event>
12    7  0.1729738E-007  0.3333262E+04  0.7818608E-02  0.8154483E-01
          2   -1    0    0  501    0  0.00000000000E+00  0.00000000000E+00  0.30355377492E+04  0.30355377492E+04  0.00000000000E+00 0. -1.
         -1   -1    0    0    0  501 -0.00000000000E+00 -0.00000000000E+00 -0.91504671447E+03  0.91504671447E+03  0.00000000000E+00 0.  1.
         24    2    1    2    0    0 -0.44054835014E+01 -0.13979659720E+03  0.28448133699E+04  0.28492804138E+04  0.76637264475E+02 0.  0.
        254    2    1    2    0    0  0.44054835014E+01  0.13979659720E+03 -0.72432233520E+03  0.11013040498E+04  0.81771955335E+03 0.  0.
         23    2    4    4    0    0 -0.21549632328E+02  0.46940197946E+03 -0.49413649911E+03  0.68814771712E+03  0.92594793888E+02 0.  0.
         23    2    4    4    0    0  0.25955115830E+02 -0.32960538226E+03 -0.23018583609E+03  0.41315633266E+03  0.91647476961E+02 0.  0.
          4    1    3    3  502    0 -0.22301092056E+02 -0.13953784717E+03  0.24677164326E+04  0.24717589974E+04  0.00000000000E+00 0. -1.
         -3    1    3    3    0  502  0.17895608554E+02 -0.25875003315E+00  0.37709693733E+03  0.37752141648E+03  0.00000000000E+00 0.  1.
         13    1    5    5    0    0 -0.18595217067E+02  0.43172104385E+03 -0.48437043047E+03  0.64910981792E+03  0.00000000000E+00 0. -1.
        -13    1    5    5    0    0 -0.29544152610E+01  0.37680935606E+02 -0.97660686403E+01  0.39037899206E+02  0.00000000000E+00 0.  1.
          4    1    6    6  503    0 -0.10713885126E+02 -0.23791594261E+03 -0.19669592594E+03  0.30888196834E+03  0.00000000000E+00 0. -1.
         -4    1    6    6    0  503  0.36669000956E+02 -0.91689439647E+02 -0.33489910151E+02  0.10427436433E+03  0.00000000000E+00 0.  1.
<mgrwt>
<rscale>  0 0.33332620E+04</rscale>
<asrwt>0</asrwt>
<pdfrwt beam="1">  1        2 0.46700580E+00 0.33332620E+04</pdfrwt>
<pdfrwt beam="2">  1       -1 0.14077642E+00 0.33332620E+04</pdfrwt>
<totfact> 0.64579581E-01</totfact>
</mgrwt>
</event>
<event>
12    7  0.1729738E-007  0.2329553E+04  0.7818608E-02  0.8466359E-01
          2   -1    0    0  501    0  0.00000000000E+00  0.00000000000E+00  0.10340019919E+04  0.10340019919E+04  0.00000000000E+00 0. -1.
         -1   -1    0    0    0  501 -0.00000000000E+00 -0.00000000000E+00 -0.13120905638E+04  0.13120905638E+04  0.00000000000E+00 0.  1.
         24    2    1    2    0    0 -0.43916420769E+03 -0.32029852564E+03 -0.95131836330E+03  0.10985358422E+04  0.79485982385E+02 0.  0.
        254    2    1    2    0    0  0.43916420769E+03  0.32029852564E+03  0.67322979144E+03  0.12475567135E+04  0.89872301315E+03 0.  0.
         23    2    4    4    0    0  0.75375428251E+02  0.27880243008E+03 -0.15297762208E+03  0.33948099923E+03  0.91831071969E+02 0.  0.
         23    2    4    4    0    0  0.36378877944E+03  0.41496095557E+02  0.82620741352E+03  0.90807571423E+03  0.88986575471E+02 0.  0.
          2    1    3    3  502    0 -0.28224584712E+03 -0.15771772154E+03 -0.55185646726E+03  0.63959609001E+03  0.00000000000E+00 0. -1.
         -1    1    3    3    0  502 -0.15691836057E+03 -0.16258080410E+03 -0.39946189604E+03  0.45893975219E+03  0.00000000000E+00 0.  1.
         13    1    5    5    0    0 -0.54912570392E+01  0.15409247676E+03 -0.84581867693E+02  0.17586568068E+03  0.00000000000E+00 0.  1.
        -13    1    5    5    0    0  0.80866685291E+02  0.12470995332E+03 -0.68395754387E+02  0.16361531855E+03  0.00000000000E+00 0. -1.
          4    1    6    6  503    0  0.36378284947E+02  0.91148440289E+01  0.35456955132E+02  0.51610615813E+02  0.00000000000E+00 0. -1.
         -4    1    6    6    0  503  0.32741049449E+03  0.32381251528E+02  0.79075045839E+03  0.85646509841E+03  0.00000000000E+00 0.  1.
<mgrwt>
<rscale>  0 0.23295530E+04</rscale>
<asrwt>0</asrwt>
<pdfrwt beam="1">  1        2 0.15907723E+00 0.23295530E+04</pdfrwt>
<pdfrwt beam="2">  1       -1 0.20186009E+00 0.23295530E+04</pdfrwt>
<totfact> 0.36104707E+00</totfact>
</mgrwt>
</event>
<event>
12    7  0.1729738E-007  0.1376510E+04  0.7818608E-02  0.8971000E-01
         -1   -1    0    0    0  501 -0.00000000000E+00  0.00000000000E+00  0.28446984730E+03  0.28446984730E+03  0.00000000000E+00 0.  1.
          2   -1    0    0  501    0  0.00000000000E+00 -0.00000000000E+00 -0.16651842201E+04  0.16651842201E+04  0.00000000000E+00 0. -1.
         24    2    1    2    0    0  0.33946558453E+03  0.17985260852E+03 -0.34977943308E+03  0.52576279898E+03  0.80604125925E+02 0.  0.
        254    2    1    2    0    0 -0.33946558453E+03 -0.17985260852E+03 -0.10309349397E+04  0.14238912684E+04  0.90391130674E+03 0.  0.
         23    2    4    4    0    0 -0.18563627946E+03  0.26009029731E+03 -0.85462919729E+03  0.91699297326E+03  0.91527357341E+02 0.  0.
         23    2    4    4    0    0 -0.15382930507E+03 -0.43994290582E+03 -0.17630574242E+03  0.50689829515E+03  0.92999738349E+02 0.  0.
          2    1    3    3  502    0  0.32170275247E+03  0.14398435257E+03 -0.31149997605E+03  0.47037898530E+03  0.00000000000E+00 0. -1.
         -1    1    3    3    0  502  0.17762832055E+02  0.35868255941E+02 -0.38279457033E+02  0.55383813679E+02  0.00000000000E+00 0.  1.
         13    1    5    5    0    0 -0.26656578787E+02  0.32278123230E+02 -0.22414032995E+03  0.22801609141E+03  0.00000000000E+00 0.  1.
        -13    1    5    5    0    0 -0.15897970067E+03  0.22781217408E+03 -0.63048886735E+03  0.68897688185E+03  0.00000000000E+00 0. -1.
          4    1    6    6  503    0  0.56648055812E+01 -0.50200868890E+02 -0.39470682688E+02  0.64110467565E+02  0.00000000000E+00 0. -1.
         -4    1    6    6    0  503 -0.15949411065E+03 -0.38974203693E+03 -0.13683505973E+03  0.44278782758E+03  0.00000000000E+00 0.  1.
<mgrwt>
<rscale>  0 0.13765096E+04</rscale>
<asrwt>0</asrwt>
<pdfrwt beam="1">  1        2 0.25618219E+00 0.13765096E+04</pdfrwt>
<pdfrwt beam="2">  1       -1 0.43764592E-01 0.13765096E+04</pdfrwt>
<totfact> 0.58753260E+01</totfact>
</mgrwt>
</event>
<event>
12    7  0.1729738E-007  0.1687683E+04  0.7818608E-02  0.8768421E-01
          2   -1    0    0  501    0  0.00000000000E+00  0.00000000000E+00  0.10473373573E+04  0.10473373573E+04  0.00000000000E+00 0. -1.
         -1   -1    0    0    0  501 -0.00000000000E+00 -0.00000000000E+00 -0.67988421606E+03  0.67988421606E+03  0.00000000000E+00 0.  1.
         24    2    1    2    0    0 -0.20604963671E+03  0.34767451921E+03 -0.31461577644E+03  0.51851225604E+03  0.80856964986E+02 0.  0.
        254    2    1    2    0    0  0.20604963671E+03 -0.34767451921E+03  0.68206891773E+03  0.12087093174E+04  0.91237392622E+03 0.  0.
         23    2    4    4    0    0  0.34238379687E+03 -0.68869426758E+02 -0.89576832361E+02  0.37188358761E+03  0.91124812969E+02 0.  0.
         23    2    4    4    0    0 -0.13633416016E+03 -0.27880509245E+03  0.77164575009E+03  0.83682572975E+03  0.92308480358E+02 0.  0.
          4    1    3    3  502    0 -0.14952704974E+02  0.20712663616E+02 -0.51137412757E+02  0.57163211977E+02  0.00000000000E+00 0. -1.
         -3    1    3    3    0  502 -0.19109693173E+03  0.32696185559E+03 -0.26347836369E+03  0.46134904407E+03  0.00000000000E+00 0.  1.
         13    1    5    5    0    0  0.30706223164E+03 -0.82376008885E+02 -0.98876867893E+02  0.33294091960E+03  0.00000000000E+00 0.  1.
        -13    1    5    5    0    0  0.35321565223E+02  0.13506582127E+02  0.93000355322E+01  0.38942668006E+02  0.00000000000E+00 0. -1.
          3    1    6    6  503    0 -0.79201248354E+01 -0.13415460709E+02  0.65666742845E+01  0.16906335340E+02  0.00000000000E+00 0. -1.
         -3    1    6    6    0  503 -0.12841403532E+03 -0.26538963174E+03  0.76507907581E+03  0.81991939442E+03  0.00000000000E+00 0.  1.
<mgrwt>
<rscale>  0 0.16876826E+04</rscale>
<asrwt>0</asrwt>
<pdfrwt beam="1">  1        2 0.16112882E+00 0.16876826E+04</pdfrwt>
<pdfrwt beam="2">  1       -1 0.10459757E+00 0.16876826E+04</pdfrwt>
<totfact> 0.21936645E+01</totfact>
</mgrwt>
</event>
<event>
12    7  0.1729738E-007  0.1735886E+04  0.7818608E-02  0.8741158E-01
         -1   -1    0    0    0  501 -0.00000000000E+00  0.00000000000E+00  0.48842907024E+03  0.48842907024E+03  0.00000000000E+00 0.  1.
          2   -1    0    0  501    0  0.00000000000E+00 -0.00000000000E+00 -0.15423429228E+04  0.15423429228E+04  0.00000000000E+00 0. -1.
         24    2    1    2    0    0  0.62923566512E+03  0.12153675477E+02 -0.42097522835E+03  0.76137362306E+03  0.79902546388E+02 0.  0.
        254    2    1    2    0    0 -0.62923566512E+03 -0.12153675477E+02 -0.63293862421E+03  0.12693983700E+04  0.90259386527E+03 0.  0.
         23    2    4    4    0    0 -0.17229481235E+02  0.33814879116E+03 -0.37441946106E+03  0.51271802716E+03  0.89712778139E+02 0.  0.
         23    2    4    4    0    0 -0.61200618388E+03 -0.35030246664E+03 -0.25851916315E+03  0.75668034283E+03  0.92030409480E+02 0.  0.
          4    1    3    3  502    0  0.27950478403E+03 -0.15238234246E+02 -0.22781159366E+03  0.36090615163E+03  0.00000000000E+00 0. -1.
         -3    1    3    3    0  502  0.34973088109E+03  0.27391909724E+02 -0.19316363469E+03  0.40046747143E+03  0.00000000000E+00 0.  1.
         13    1    5    5    0    0 -0.49700456961E+02  0.18207978511E+03 -0.17473424210E+03  0.25720660748E+03  0.00000000000E+00 0. -1.
        -13    1    5    5    0    0  0.32470975726E+02  0.15606900605E+03 -0.19968521896E+03  0.25551141967E+03  0.00000000000E+00 0.  1.
          4    1    6    6  503    0 -0.13655923896E+03 -0.44720306598E+02 -0.77234379963E+02  0.16313638777E+03  0.00000000000E+00 0. -1.
         -4    1    6    6    0  503 -0.47544694492E+03 -0.30558216004E+03 -0.18128478319E+03  0.59354395506E+03  0.00000000000E+00 0.  1.
<mgrwt>
<rscale>  0 0.17358861E+04</rscale>
<asrwt>0</asrwt>
<pdfrwt beam="1">  1        2 0.23728352E+00 0.17358861E+04</pdfrwt>
<pdfrwt beam="2">  1       -1 0.75142936E-01 0.17358861E+04</pdfrwt>
<totfact> 0.23131448E+01</totfact>
</mgrwt>
</event>
<event>
12    7  0.1729738E-007  0.1185671E+04  0.7818608E-02  0.9125492E-01
         -1   -1    0    0    0  501 -0.00000000000E+00  0.00000000000E+00  0.89843885368E+02  0.89843885368E+02  0.00000000000E+00 0.  1.
          2   -1    0    0  501    0  0.00000000000E+00 -0.00000000000E+00 -0.39118265091E+04  0.39118265091E+04  0.00000000000E+00 0. -1.
         24    2    1    2    0    0 -0.15572695320E+03  0.71287870258E+02 -0.13587464723E+04  0.13718407479E+04  0.80138736232E+02 0.  0.
        254    2    1    2    0    0  0.15572695320E+03 -0.71287870258E+02 -0.24632361514E+04  0.26298296466E+04  0.90506286420E+03 0.  0.
         23    2    4    4    0    0 -0.92159549295E+02 -0.40691628639E+03 -0.74645938234E+03  0.86014396243E+03  0.92583907766E+02 0.  0.
         23    2    4    4    0    0  0.24788650249E+03  0.33562841613E+03 -0.17167767691E+04  0.17696856842E+04  0.10183709592E+03 0.  0.
          4    1    3    3  502    0 -0.21666888426E+02 -0.16402531171E+02 -0.27145742403E+03  0.27281427775E+03  0.00000000000E+00 0. -1.
         -1    1    3    3    0  502 -0.13406006477E+03  0.87690401429E+02 -0.10872890483E+04  0.10990264701E+04  0.00000000000E+00 0.  1.
         13    1    5    5    0    0  0.96966638511E+00 -0.18631642056E+02 -0.88960073429E+02  0.90895395940E+02  0.00000000000E+00 0. -1.
        -13    1    5    5    0    0 -0.93129215680E+02 -0.38828464433E+03 -0.65749930891E+03  0.76924856649E+03  0.00000000000E+00 0.  1.
          1    1    6    6  503    0  0.33136616856E+02  0.10998527425E+03 -0.37353405951E+03  0.39079724864E+03  0.00000000000E+00 0. -1.
         -1    1    6    6    0  503  0.21474988564E+03  0.22564314188E+03 -0.13432427096E+04  0.13788884355E+04  0.00000000000E+00 0.  1.
<mgrwt>
<rscale>  0 0.11856706E+04</rscale>
<asrwt>0</asrwt>
<pdfrwt beam="1">  1        2 0.60181934E+00 0.11856706E+04</pdfrwt>
<pdfrwt beam="2">  1       -1 0.13822139E-01 0.11856706E+04</pdfrwt>
<totfact> 0.17675080E+01</totfact>
</mgrwt>
</event>
<event>
12    7  0.1729738E-007  0.1316560E+04  0.7818608E-02  0.9016535E-01
          2   -1    0    0  501    0  0.00000000000E+00  0.00000000000E+00  0.10904321101E+04  0.10904321101E+04  0.00000000000E+00 0. -1.
         -1   -1    0    0    0  501 -0.00000000000E+00 -0.00000000000E+00 -0.39739548640E+03  0.39739548640E+03  0.00000000000E+00 0.  1.
         24    2    1    2    0    0  0.29413398293E+03 -0.13518961437E+00  0.42621816851E+03  0.52212394103E+03  0.66608291062E+02 0.  0.
        254    2    1    2    0    0 -0.29413398293E+03  0.13518961437E+00  0.26681845515E+03  0.96570365544E+03  0.88027077875E+03 0.  0.
         23    2    4    4    0    0 -0.31289994270E+03 -0.34003090411E+03  0.36922033262E+03  0.59853792192E+03  0.91632963883E+02 0.  0.
         23    2    4    4    0    0  0.18765959768E+02  0.34016609372E+03 -0.10240187747E+03  0.36716573352E+03  0.90881234573E+02 0.  0.
          4    1    3    3  502    0  0.12629342204E+03  0.15170924727E+01  0.24151834012E+03  0.27254988284E+03  0.00000000000E+00 0. -1.
         -3    1    3    3    0  502  0.16784056089E+03 -0.16522820871E+01  0.18469982839E+03  0.24957405819E+03  0.00000000000E+00 0.  1.
         13    1    5    5    0    0 -0.20372081572E+03 -0.15788562393E+03  0.22163174583E+03  0.33992745073E+03  0.00000000000E+00 0.  1.
        -13    1    5    5    0    0 -0.10917912698E+03 -0.18214528018E+03  0.14758858680E+03  0.25861047119E+03  0.00000000000E+00 0. -1.
          1    1    6    6  503    0  0.11196214483E+01  0.85786179647E+01  0.13010134705E+02  0.15624014958E+02  0.00000000000E+00 0. -1.
         -1    1    6    6    0  503  0.17646338320E+02  0.33158747576E+03 -0.11541201217E+03  0.35154171856E+03  0.00000000000E+00 0.  1.
<mgrwt>
<rscale>  0 0.13165604E+04</rscale>
<asrwt>0</asrwt>
<pdfrwt beam="1">  1        2 0.16775879E+00 0.13165604E+04</pdfrwt>
<pdfrwt beam="2">  1       -1 0.61137767E-01 0.13165604E+04</pdfrwt>
<totfact> 0.66913600E+01</totfact>
</mgrwt>
</event>
<event>
12    7  0.1729738E-007  0.2563157E+04  0.7818608E-02  0.8380825E-01
         -1   -1    0    0    0  501 -0.00000000000E+00  0.00000000000E+00  0.90106101195E+03  0.90106101195E+03  0.00000000000E+00 0.  1.
          2   -1    0    0  501    0  0.00000000000E+00 -0.00000000000E+00 -0.18227888160E+04  0.18227888160E+04  0.00000000000E+00 0. -1.
         24    2    1    2    0    0 -0.52422388475E+03  0.90942894425E+03 -0.92767529790E+03  0.14031237696E+04  0.79392497028E+02 0.  0.
        254    2    1    2    0    0  0.52422388475E+03 -0.90942894425E+03  0.59474938445E+01  0.13207260583E+04  0.80150499842E+03 0.  0.
         23    2    4    4    0    0  0.62541274879E+03 -0.47861397135E+03 -0.20923712436E+03  0.82015341354E+03  0.93053788815E+02 0.  0.
         23    2    4    4    0    0 -0.10118886404E+03 -0.43081497290E+03  0.21518461820E+03  0.50057264479E+03  0.91803190118E+02 0.  0.
          2    1    3    3  502    0 -0.12474839418E+03  0.25093434214E+03 -0.20762402288E+03  0.34876631258E+03  0.00000000000E+00 0. -1.
         -1    1    3    3    0  502 -0.39947549057E+03  0.65849460211E+03 -0.72005127502E+03  0.10543574570E+04  0.00000000000E+00 0.  1.
         13    1    5    5    0    0  0.32801588975E+03 -0.19277550088E+03 -0.10518984466E+03  0.39474260106E+03  0.00000000000E+00 0. -1.
        -13    1    5    5    0    0  0.29739685904E+03 -0.28583847047E+03 -0.10404727970E+03  0.42541081249E+03  0.00000000000E+00 0.  1.
          4    1    6    6  503    0 -0.73333477409E+02 -0.41116006940E+03  0.20299123116E+03  0.46436606411E+03  0.00000000000E+00 0. -1.
         -4    1    6    6    0  503 -0.27855386634E+02 -0.19654903505E+02  0.12193387047E+02  0.36206580673E+02  0.00000000000E+00 0.  1.
<mgrwt>
<rscale>  0 0.25631574E+04</rscale>
<asrwt>0</asrwt>
<pdfrwt beam="1">  1        2 0.28042904E+00 0.25631574E+04</pdfrwt>
<pdfrwt beam="2">  1       -1 0.13862477E+00 0.25631574E+04</pdfrwt>
<totfact> 0.36403786E+00</totfact>
</mgrwt>
</event>
<event>
12    7  0.1729738E-007  0.1411166E+04  0.7818608E-02  0.8945775E-01
          2   -1    0    0  501    0  0.00000000000E+00  0.00000000000E+00  0.36851626407E+03  0.36851626407E+03  0.00000000000E+00 0. -1.
         -1   -1    0    0    0  501 -0.00000000000E+00 -0.00000000000E+00 -0.13509512876E+04  0.13509512876E+04  0.00000000000E+00 0.  1.
         24    2    1    2    0    0 -0.11018858252E+03  0.39644234355E+03 -0.25475267380E+03  0.48999466924E+03  0.76731972474E+02 0.  0.
        254    2    1    2    0    0  0.11018858252E+03 -0.39644234355E+03 -0.72768234977E+03  0.12294728825E+04  0.90153974458E+03 0.  0.
         23    2    4    4    0    0  0.14721358859E+03 -0.31474960067E+03  0.11510098418E+03  0.37695009947E+03  0.90022159158E+02 0.  0.
         23    2    4    4    0    0 -0.37025006072E+02 -0.81692742881E+02 -0.84278333395E+03  0.85252278299E+03  0.92015173867E+02 0.  0.
          4    1    3    3  502    0 -0.80974974402E+02  0.30600265752E+03 -0.15582830589E+03  0.35281302953E+03  0.00000000000E+00 0. -1.
         -3    1    3    3    0  502 -0.29213608116E+02  0.90439686033E+02 -0.98924367904E+02  0.13718163971E+03  0.00000000000E+00 0.  1.
         13    1    5    5    0    0  0.20776829040E+02 -0.13017133403E+03  0.67962064058E+02  0.14830743400E+03  0.00000000000E+00 0.  1.
        -13    1    5    5    0    0  0.12643675955E+03 -0.18457826664E+03  0.47138920126E+02  0.22864266547E+03  0.00000000000E+00 0. -1.
          1    1    6    6  503    0 -0.49931034010E+02 -0.30816877218E+02 -0.22538424541E+03  0.23289664265E+03  0.00000000000E+00 0. -1.
         -1    1    6    6    0  503  0.12906027938E+02 -0.50875865663E+02 -0.61739908854E+03  0.61962614034E+03  0.00000000000E+00 0.  1.
<mgrwt>
<rscale>  0 0.14111662E+04</rscale>
<asrwt>0</asrwt>
<pdfrwt beam="1">  1        2 0.56694810E-01 0.14111662E+04</pdfrwt>
<pdfrwt beam="2">  1       -1 0.20783866E+00 0.14111662E+04</pdfrwt>
<totfact> 0.12909375E+01</totfact>
</mgrwt>
</event>
<event>
12    7  0.1729738E-007  0.2977378E+04  0.7818608E-02  0.8250220E-01
          2   -1    0    0  501    0  0.00000000000E+00  0.00000000000E+00  0.10819575635E+04  0.10819575635E+04  0.00000000000E+00 0. -1.
         -1   -1    0    0    0  501 -0.00000000000E+00 -0.00000000000E+00 -0.20483201013E+04  0.20483201013E+04  0.00000000000E+00 0.  1.
         24    2    1    2    0    0  0.58848234346E+03 -0.73000645820E+03  0.59123678669E+03  0.11114977759E+04  0.81519754768E+02 0.  0.
        254    2    1    2    0    0 -0.58848234346E+03  0.73000645820E+03 -0.15575993245E+04  0.20187798889E+04  0.87757374988E+03 0.  0.
         23    2    4    4    0    0  0.17616801061E+03  0.40327057886E+02 -0.50280237932E+03  0.54192716036E+03  0.90627671965E+02 0.  0.
         23    2    4    4    0    0 -0.76465035407E+03  0.68967940031E+03 -0.10547969452E+04  0.14768527285E+04  0.90274841271E+02 0.  0.
          4    1    3    3  502    0  0.55545620759E+03 -0.65488734948E+03  0.54883649623E+03  0.10191322479E+04  0.00000000000E+00 0. -1.
         -3    1    3    3    0  502  0.33026135873E+02 -0.75119108712E+02  0.42400290459E+02  0.92365528069E+02  0.00000000000E+00 0.  1.
         13    1    5    5    0    0  0.63343243308E+01  0.31059091102E+01  0.25506116597E+01  0.75017301982E+01  0.00000000000E+00 0. -1.
        -13    1    5    5    0    0  0.16983368628E+03  0.37221148776E+02 -0.50535299098E+03  0.53442543016E+03  0.00000000000E+00 0.  1.
          3    1    6    6  503    0 -0.44726615825E+03  0.41736737742E+03 -0.56420445137E+03  0.83220743027E+03  0.00000000000E+00 0. -1.
         -3    1    6    6    0  503 -0.31738419582E+03  0.27231202289E+03 -0.49059249379E+03  0.64464529823E+03  0.00000000000E+00 0.  1.
<mgrwt>
<rscale>  0 0.29773783E+04</rscale>
<asrwt>0</asrwt>
<pdfrwt beam="1">  1        2 0.16645501E+00 0.29773783E+04</pdfrwt>
<pdfrwt beam="2">  1       -1 0.31512616E+00 0.29773783E+04</pdfrwt>
<totfact> 0.57520175E-01</totfact>
</mgrwt>
</event>
<event>
12    7  0.1729738E-007  0.2368951E+04  0.7818608E-02  0.8451220E-01
         -1   -1    0    0    0  501 -0.00000000000E+00  0.00000000000E+00  0.18277042279E+04  0.18277042279E+04  0.00000000000E+00 0.  1.
          2   -1    0    0  501    0  0.00000000000E+00 -0.00000000000E+00 -0.76761965674E+03  0.76761965674E+03  0.00000000000E+00 0. -1.
         24    2    1    2    0    0  0.46489944336E+03 -0.82921689917E+03  0.79356858136E+03  0.12409336618E+04  0.80206616003E+02 0.  0.
        254    2    1    2    0    0 -0.46489944336E+03  0.82921689917E+03  0.26651598977E+03  0.13543902228E+04  0.92715152194E+03 0.  0.
         23    2    4    4    0    0 -0.58930197795E+03  0.73876811897E+03 -0.91447966783E+02  0.95401696592E+03  0.93437068714E+02 0.  0.
         23    2    4    4    0    0  0.12440253458E+03  0.90448780200E+02  0.35796395655E+03  0.40037325693E+03  0.92214848183E+02 0.  0.
          4    1    3    3  502    0  0.26291948203E+02 -0.65252383875E+02  0.85495975271E+02  0.11071902244E+03  0.00000000000E+00 0. -1.
         -3    1    3    3    0  502  0.43860749516E+03 -0.76396451530E+03  0.70807260608E+03  0.11302146393E+04  0.00000000000E+00 0.  1.
         13    1    5    5    0    0 -0.20220820315E+02  0.62481393892E+02 -0.30522187020E+01  0.65742849010E+02  0.00000000000E+00 0. -1.
        -13    1    5    5    0    0 -0.56908115763E+03  0.67628672508E+03 -0.88395748081E+02  0.88827411691E+03  0.00000000000E+00 0.  1.
          1    1    6    6  503    0  0.15275912210E+02  0.24647408009E+02  0.17512150041E+03  0.17750602278E+03  0.00000000000E+00 0. -1.
         -1    1    6    6    0  503  0.10912662237E+03  0.65801372191E+02  0.18284245614E+03  0.22286723416E+03  0.00000000000E+00 0.  1.
<mgrwt>
<rscale>  0 0.23689506E+04</rscale>
<asrwt>0</asrwt>
<pdfrwt beam="1">  1        2 0.11809533E+00 0.23689506E+04</pdfrwt>
<pdfrwt beam="2">  1       -1 0.28118526E+00 0.23689506E+04</pdfrwt>
<totfact> 0.16362331E+00</totfact>
</mgrwt>
</event>
<event>
12    7  0.1729738E-007  0.1816493E+04  0.7818608E-02  0.8697578E-01
         -1   -1    0    0    0  501 -0.00000000000E+00  0.00000000000E+00  0.10981973805E+04  0.10981973805E+04  0.00000000000E+00 0.  1.
          2   -1    0    0  501    0  0.00000000000E+00 -0.00000000000E+00 -0.75115028573E+03  0.75115028573E+03  0.00000000000E+00 0. -1.
         24    2    1    2    0    0 -0.13359418064E+03 -0.42801029938E+03 -0.39573518455E+03  0.60317045032E+03  0.78536834466E+02 0.  0.
        254    2    1    2    0    0  0.13359418064E+03  0.42801029938E+03  0.74278227932E+03  0.12461772159E+04  0.89453446971E+03 0.  0.
         23    2    4    4    0    0 -0.93706892472E+00  0.67961606198E+03  0.61240779001E+03  0.91929212539E+03  0.90420355801E+02 0.  0.
         23    2    4    4    0    0  0.13453124956E+03 -0.25160576261E+03  0.13037448931E+03  0.32688509051E+03  0.91936054126E+02 0.  0.
          2    1    3    3  502    0 -0.13283283861E+03 -0.33471906039E+03 -0.33506321063E+03  0.49188287988E+03  0.00000000000E+00 0. -1.
         -1    1    3    3    0  502 -0.76134202428E+00 -0.93291238993E+02 -0.60671973925E+02  0.11128757044E+03  0.00000000000E+00 0.  1.
         13    1    5    5    0    0 -0.28861895442E+02  0.14926563347E+03  0.17013804387E+03  0.22816702723E+03  0.00000000000E+00 0. -1.
        -13    1    5    5    0    0  0.27924826517E+02  0.53035042851E+03  0.44226974614E+03  0.69112509816E+03  0.00000000000E+00 0.  1.
          4    1    6    6  503    0  0.11288432738E+03 -0.12784608067E+03  0.49967203515E+02  0.17771947879E+03  0.00000000000E+00 0. -1.
         -4    1    6    6    0  503  0.21646922178E+02 -0.12375968193E+03  0.80407285793E+02  0.14916561172E+03  0.00000000000E+00 0.  1.
<mgrwt>
<rscale>  0 0.18164925E+04</rscale>
<asrwt>0</asrwt>
<pdfrwt beam="1">  1        2 0.11556158E+00 0.18164925E+04</pdfrwt>
<pdfrwt beam="2">  1       -1 0.16895344E+00 0.18164925E+04</pdfrwt>
<totfact> 0.10089589E+01</totfact>
</mgrwt>
</event>
<event>
12    7  0.1729738E-007  0.2806525E+04  0.7818608E-02  0.8301245E-01
         -1   -1    0    0    0  501 -0.00000000000E+00  0.00000000000E+00  0.13481357960E+04  0.13481357960E+04  0.00000000000E+00 0.  1.
          2   -1    0    0  501    0  0.00000000000E+00 -0.00000000000E+00 -0.14606435022E+04  0.14606435022E+04  0.00000000000E+00 0. -1.
         24    2    1    2    0    0  0.51852537330E+03  0.51790877736E+03 -0.10438810801E+04  0.12775144416E+04  0.72507755814E+02 0.  0.
        254    2    1    2    0    0 -0.51852537330E+03 -0.51790877736E+03  0.93137337393E+03  0.15312648565E+04  0.96964820155E+03 0.  0.
         23    2    4    4    0    0 -0.14992393851E+03  0.28052094772E+03  0.25920318999E+03  0.42064661952E+03  0.92671977245E+02 0.  0.
         23    2    4    4    0    0 -0.36860143479E+03 -0.79842972507E+03  0.67217018394E+03  0.11106182370E+04  0.91121175385E+02 0.  0.
          2    1    3    3  502    0  0.33934439955E+03  0.38480888681E+03 -0.71437702953E+03  0.87952660061E+03  0.00000000000E+00 0. -1.
         -1    1    3    3    0  502  0.17918097375E+03  0.13309989055E+03 -0.32950405059E+03  0.39798784098E+03  0.00000000000E+00 0.  1.
         13    1    5    5    0    0 -0.43380967796E+02  0.22793178908E+02  0.18925541421E+02  0.52532023469E+02  0.00000000000E+00 0. -1.
        -13    1    5    5    0    0 -0.10654297071E+03  0.25772776881E+03  0.24027764857E+03  0.36811459605E+03  0.00000000000E+00 0.  1.
          2    1    6    6  503    0 -0.10045126909E+03 -0.14535115274E+03  0.16062702165E+03  0.23878537465E+03  0.00000000000E+00 0. -1.
         -2    1    6    6    0  503 -0.26815016570E+03 -0.65307857234E+03  0.51154316230E+03  0.87183286237E+03  0.00000000000E+00 0.  1.
<mgrwt>
<rscale>  0 0.28065251E+04</rscale>
<asrwt>0</asrwt>
<pdfrwt beam="1">  1        2 0.22471438E+00 0.28065251E+04</pdfrwt>
<pdfrwt beam="2">  1       -1 0.20740551E+00 0.28065251E+04</pdfrwt>
<totfact> 0.17721091E+00</totfact>
</mgrwt>
</event>
<event>
12    7  0.1729738E-007  0.1317865E+04  0.7818608E-02  0.9015517E-01
          2   -1    0    0  501    0  0.00000000000E+00  0.00000000000E+00  0.25053204003E+04  0.25053204003E+04  0.00000000000E+00 0. -1.
         -1   -1    0    0    0  501 -0.00000000000E+00 -0.00000000000E+00 -0.17330805098E+03  0.17330805098E+03  0.00000000000E+00 0.  1.
         24    2    1    2    0    0 -0.11377944543E+03 -0.53063230140E+02  0.17657111584E+02  0.14911001270E+03  0.78489194809E+02 0.  0.
        254    2    1    2    0    0  0.11377944543E+03  0.53063230140E+02  0.23143552377E+04  0.25295184386E+04  0.10131445583E+04 0.  0.
         23    2    4    4    0    0 -0.31858665392E+03 -0.19364210790E+03  0.16491378672E+04  0.16935409050E+04  0.97110091414E+02 0.  0.
         23    2    4    4    0    0  0.43236609935E+03  0.24670533804E+03  0.66521737054E+03  0.83597753359E+03  0.92413845881E+02 0.  0.
          2    1    3    3  502    0 -0.18295588835E+02 -0.50780797616E+01 -0.27235055726E+02  0.33200357307E+02  0.00000000000E+00 0. -1.
         -1    1    3    3    0  502 -0.95483856593E+02 -0.47985150378E+02  0.44892167309E+02  0.11590965539E+03  0.00000000000E+00 0.  1.
         13    1    5    5    0    0 -0.79615943823E+02 -0.16368608660E+02  0.49696598815E+03  0.50356908487E+03  0.00000000000E+00 0. -1.
        -13    1    5    5    0    0 -0.23897071010E+03 -0.17727349924E+03  0.11521718790E+04  0.11899718201E+04  0.00000000000E+00 0.  1.
          2    1    6    6  503    0  0.17538659882E+03  0.14688901258E+03  0.26637743360E+03  0.35113213780E+03  0.00000000000E+00 0.  1.
         -2    1    6    6    0  503  0.25697950053E+03  0.99816325458E+02  0.39883993694E+03  0.48484539579E+03  0.00000000000E+00 0. -1.
<mgrwt>
<rscale>  0 0.13178652E+04</rscale>
<asrwt>0</asrwt>
<pdfrwt beam="1">  1        2 0.38543388E+00 0.13178652E+04</pdfrwt>
<pdfrwt beam="2">  1       -1 0.26662779E-01 0.13178652E+04</pdfrwt>
<totfact> 0.48532567E+01</totfact>
</mgrwt>
</event>
<event>
12    7  0.1729738E-007  0.1663499E+04  0.7818608E-02  0.8782461E-01
          2   -1    0    0  501    0  0.00000000000E+00  0.00000000000E+00  0.23809103454E+04  0.23809103454E+04  0.00000000000E+00 0. -1.
         -1   -1    0    0    0  501 -0.00000000000E+00 -0.00000000000E+00 -0.29056407234E+03  0.29056407234E+03  0.00000000000E+00 0.  1.
         24    2    1    2    0    0  0.18971138969E+03 -0.54324722703E+03  0.55803789475E+03  0.80552718178E+03  0.79748276124E+02 0.  0.
        254    2    1    2    0    0 -0.18971138969E+03  0.54324722703E+03  0.15323083783E+04  0.18659472359E+04  0.89592530946E+03 0.  0.
         23    2    4    4    0    0  0.26535973682E+03  0.11357879316E+03  0.98181764349E+03  0.10273643738E+04  0.90530322592E+02 0.  0.
         23    2    4    4    0    0 -0.45507112651E+03  0.42966843387E+03  0.55049073479E+03  0.83858286214E+03  0.92067770349E+02 0.  0.
          4    1    3    3  502    0  0.22520289105E+02 -0.79757881840E+02  0.12251639088E+03  0.14791466855E+03  0.00000000000E+00 0. -1.
         -3    1    3    3    0  502  0.16719110059E+03 -0.46348934519E+03  0.43552150387E+03  0.65761251323E+03  0.00000000000E+00 0.  1.
         13    1    5    5    0    0  0.27074502974E+03  0.10797669822E+03  0.92027453359E+03  0.96533261400E+03  0.00000000000E+00 0.  1.
        -13    1    5    5    0    0 -0.53852929153E+01  0.56020949424E+01  0.61543109903E+02  0.62031759802E+02  0.00000000000E+00 0. -1.
          1    1    6    6  503    0 -0.12416601667E+03  0.15790723203E+03  0.13564392126E+03  0.24238640019E+03  0.00000000000E+00 0. -1.
         -1    1    6    6    0  503 -0.33090510984E+03  0.27176120184E+03  0.41484681353E+03  0.59619646195E+03  0.00000000000E+00 0.  1.
<mgrwt>
<rscale>  0 0.16634987E+04</rscale>
<asrwt>0</asrwt>
<pdfrwt beam="1">  1        2 0.36629389E+00 0.16634987E+04</pdfrwt>
<pdfrwt beam="2">  1       -1 0.44702167E-01 0.16634987E+04</pdfrwt>
<totfact> 0.21995863E+01</totfact>
</mgrwt>
</event>
<event>
12    7  0.1729738E-007  0.1371958E+04  0.7818608E-02  0.8974370E-01
         -1   -1    0    0    0  501 -0.00000000000E+00  0.00000000000E+00  0.22469604798E+03  0.22469604798E+03  0.00000000000E+00 0.  1.
          2   -1    0    0  501    0  0.00000000000E+00 -0.00000000000E+00 -0.20942401355E+04  0.20942401355E+04  0.00000000000E+00 0. -1.
         24    2    1    2    0    0  0.13499114208E+03  0.24924886648E+03 -0.95633802465E+02  0.31002625589E+03  0.81380890170E+02 0.  0.
        254    2    1    2    0    0 -0.13499114208E+03 -0.24924886648E+03 -0.17739102851E+04  0.20089099276E+04  0.89922955459E+03 0.  0.
         23    2    4    4    0    0 -0.47082814560E+03 -0.31821786265E+03 -0.12483125853E+04  0.13746339544E+04  0.91610301103E+02 0.  0.
         23    2    4    4    0    0  0.33583700352E+03  0.68968996176E+02 -0.52559769979E+03  0.63427597318E+03  0.92248863200E+02 0.  0.
          4    1    3    3  502    0  0.76308048726E+01  0.25830510034E+02  0.14125153224E+02  0.30413227143E+02  0.00000000000E+00 0. -1.
         -3    1    3    3    0  502  0.12736033721E+03  0.22341835644E+03 -0.10975895569E+03  0.27961302875E+03  0.00000000000E+00 0.  1.
         13    1    5    5    0    0  0.37014064453E+01 -0.28169639412E+01 -0.20973466459E+02  0.21483062883E+02  0.00000000000E+00 0. -1.
        -13    1    5    5    0    0 -0.47452955205E+03 -0.31540089871E+03 -0.12273391188E+04  0.13531508916E+04  0.00000000000E+00 0.  1.
          4    1    6    6  503    0  0.93589821196E+02 -0.13648411269E+01 -0.21253467736E+03  0.23223244068E+03  0.00000000000E+00 0. -1.
         -4    1    6    6    0  503  0.24224718233E+03  0.70333837303E+02 -0.31306302244E+03  0.40204353251E+03  0.00000000000E+00 0.  1.
<mgrwt>
<rscale>  0 0.13719584E+04</rscale>
<asrwt>0</asrwt>
<pdfrwt beam="1">  1        2 0.32219078E+00 0.13719584E+04</pdfrwt>
<pdfrwt beam="2">  1       -1 0.34568624E-01 0.13719584E+04</pdfrwt>
<totfact> 0.52234470E+01</totfact>
</mgrwt>
</event>
<event>
12    7  0.1729738E-007  0.1597104E+04  0.7818608E-02  0.8822329E-01
          2   -1    0    0  501    0  0.00000000000E+00  0.00000000000E+00  0.10802799499E+04  0.10802799499E+04  0.00000000000E+00 0. -1.
         -1   -1    0    0    0  501 -0.00000000000E+00 -0.00000000000E+00 -0.59029620379E+03  0.59029620379E+03  0.00000000000E+00 0.  1.
         24    2    1    2    0    0  0.25191545211E+03 -0.11271712173E+03 -0.32004709175E+03  0.43057939709E+03  0.82473824440E+02 0.  0.
        254    2    1    2    0    0 -0.25191545211E+03  0.11271712173E+03  0.81003083788E+03  0.12399967566E+04  0.89737141339E+03 0.  0.
         23    2    4    4    0    0 -0.27337847636E+03  0.20089726908E+03 -0.62508707496E+02  0.35784958187E+03  0.95149780204E+02 0.  0.
         23    2    4    4    0    0  0.21463024245E+02 -0.88180147348E+02  0.87253954538E+03  0.88214717475E+03  0.92854616887E+02 0.  0.
          2    1    3    3  502    0  0.28962868821E+02  0.66313185278E+01 -0.64715252567E+02  0.71210154266E+02  0.00000000000E+00 0. -1.
         -1    1    3    3    0  502  0.22295258329E+03 -0.11934844026E+03 -0.25533183918E+03  0.35936924282E+03  0.00000000000E+00 0.  1.
         13    1    5    5    0    0 -0.20500429188E+03  0.94566086103E+02 -0.34790761372E+02  0.22842920437E+03  0.00000000000E+00 0. -1.
        -13    1    5    5    0    0 -0.68374184475E+02  0.10633118297E+03 -0.27717946124E+02  0.12942037750E+03  0.00000000000E+00 0.  1.
          4    1    6    6  503    0  0.37842309919E+02 -0.99256144419E+01  0.47740476117E+03  0.47900507746E+03  0.00000000000E+00 0. -1.
         -4    1    6    6    0  503 -0.16379285675E+02 -0.78254532906E+02  0.39513478421E+03  0.40314209729E+03  0.00000000000E+00 0.  1.
<mgrwt>
<rscale>  0 0.15971038E+04</rscale>
<asrwt>0</asrwt>
<pdfrwt beam="1">  1        2 0.16619692E+00 0.15971038E+04</pdfrwt>
<pdfrwt beam="2">  1       -1 0.90814801E-01 0.15971038E+04</pdfrwt>
<totfact> 0.29034353E+01</totfact>
</mgrwt>
</event>
<event>
12    7  0.1729738E-007  0.1173250E+04  0.7818608E-02  0.9136598E-01
          2   -1    0    0  501    0  0.00000000000E+00  0.00000000000E+00  0.19991631582E+04  0.19991631582E+04  0.00000000000E+00 0. -1.
         -1   -1    0    0    0  501 -0.00000000000E+00 -0.00000000000E+00 -0.17213659113E+03  0.17213659113E+03  0.00000000000E+00 0.  1.
         24    2    1    2    0    0  0.13084051906E+03  0.71895435999E+02  0.52611873327E+02  0.17714590717E+03  0.79526524301E+02 0.  0.
        254    2    1    2    0    0 -0.13084051906E+03 -0.71895435999E+02  0.17744146938E+04  0.19941538422E+04  0.89767134613E+03 0.  0.
         23    2    4    4    0    0  0.64657967003E+02  0.12651734840E+03  0.16760097312E+04  0.16845763137E+04  0.92743976982E+02 0.  0.
         23    2    4    4    0    0 -0.19549848606E+03 -0.19841278440E+03  0.98404962559E+02  0.30957752852E+03  0.92560350285E+02 0.  0.
          2    1    3    3  502    0  0.45780250127E+02  0.14672092507E+02 -0.19424871164E+02  0.51850045516E+02  0.00000000000E+00 0. -1.
         -1    1    3    3    0  502  0.85060268931E+02  0.57223343492E+02  0.72036744491E+02  0.12529586166E+03  0.00000000000E+00 0.  1.
         13    1    5    5    0    0  0.79081806816E+02  0.94046321365E+02  0.14994943262E+04  0.15045204808E+04  0.00000000000E+00 0. -1.
        -13    1    5    5    0    0 -0.14423839812E+02  0.32471027037E+02  0.17651540504E+03  0.18005583292E+03  0.00000000000E+00 0.  1.
          4    1    6    6  503    0 -0.59388174421E+02 -0.44276997655E+02 -0.13761372371E+02  0.75344430132E+02  0.00000000000E+00 0.  1.
         -4    1    6    6    0  503 -0.13611031164E+03 -0.15413578675E+03  0.11216633493E+03  0.23423309839E+03  0.00000000000E+00 0. -1.
<mgrwt>
<rscale>  0 0.11732504E+04</rscale>
<asrwt>0</asrwt>
<pdfrwt beam="1">  1        2 0.30756355E+00 0.11732504E+04</pdfrwt>
<pdfrwt beam="2">  1       -1 0.26482554E-01 0.11732504E+04</pdfrwt>
<totfact> 0.95660919E+01</totfact>
</mgrwt>
</event>
<event>
12    7  0.1729738E-007  0.1446597E+04  0.7818608E-02  0.8920763E-01
         -1   -1    0    0    0  501 -0.00000000000E+00  0.00000000000E+00  0.90713602657E+03  0.90713602657E+03  0.00000000000E+00 0.  1.
          2   -1    0    0  501    0  0.00000000000E+00 -0.00000000000E+00 -0.57671690079E+03  0.57671690079E+03  0.00000000000E+00 0. -1.
         24    2    1    2    0    0  0.35676237202E+02 -0.28449009128E+03  0.44334474078E+03  0.53400158780E+03  0.79973312135E+02 0.  0.
        254    2    1    2    0    0 -0.35676237202E+02  0.28449009128E+03 -0.11292561500E+03  0.94985133956E+03  0.89847535682E+03 0.  0.
         23    2    4    4    0    0 -0.70321868114E+00 -0.27537054658E+03 -0.22858349615E+03  0.36978706980E+03  0.93073249854E+02 0.  0.
         23    2    4    4    0    0 -0.34973018521E+02  0.55986063786E+03  0.11565788116E+03  0.58006426976E+03  0.91819201320E+02 0.  0.
          2    1    3    3  502    0 -0.10247732139E+02 -0.39656028535E+02  0.11347840479E+03  0.12064395952E+03  0.00000000000E+00 0. -1.
         -1    1    3    3    0  502  0.45923969341E+02 -0.24483406275E+03  0.32986633599E+03  0.41335762828E+03  0.00000000000E+00 0.  1.
         13    1    5    5    0    0  0.34535010272E+02 -0.87739176130E+02 -0.43338845332E+02  0.10377420430E+03  0.00000000000E+00 0. -1.
        -13    1    5    5    0    0 -0.35238228953E+02 -0.18763137045E+03 -0.18524465082E+03  0.26601286550E+03  0.00000000000E+00 0.  1.
          4    1    6    6  503    0 -0.28042092649E+02  0.15999877462E+03  0.72292289804E+02  0.17779803712E+03  0.00000000000E+00 0. -1.
         -4    1    6    6    0  503 -0.69309258719E+01  0.39986186324E+03  0.43365591355E+02  0.40226623264E+03  0.00000000000E+00 0.  1.
<mgrwt>
<rscale>  0 0.14465969E+04</rscale>
<asrwt>0</asrwt>
<pdfrwt beam="1">  1        2 0.88725677E-01 0.14465969E+04</pdfrwt>
<pdfrwt beam="2">  1       -1 0.13955939E+00 0.14465969E+04</pdfrwt>
<totfact> 0.24377845E+01</totfact>
</mgrwt>
</event>
<event>
12    7  0.1729738E-007  0.2265996E+04  0.7818608E-02  0.8491450E-01
          2   -1    0    0  501    0  0.00000000000E+00  0.00000000000E+00  0.11478866204E+04  0.11478866204E+04  0.00000000000E+00 0. -1.
         -1   -1    0    0    0  501 -0.00000000000E+00 -0.00000000000E+00 -0.11183026132E+04  0.11183026132E+04  0.00000000000E+00 0.  1.
         24    2    1    2    0    0 -0.30572658186E+03 -0.63845795940E+02  0.91290684373E+03  0.96823278225E+03  0.80813283469E+02 0.  0.
        254    2    1    2    0    0  0.30572658186E+03  0.63845795940E+02 -0.88332283661E+03  0.12979564514E+04  0.89826871671E+03 0.  0.
         23    2    4    4    0    0  0.51412438210E+03  0.29596421672E+03 -0.71220683514E+03  0.93122431633E+03  0.89562567324E+02 0.  0.
         23    2    4    4    0    0 -0.20839780024E+03 -0.23211842078E+03 -0.17111600147E+03  0.36673213502E+03  0.88899766531E+02 0.  0.
          2    1    3    3  502    0 -0.21849706742E+03 -0.65704986294E+02  0.74285032889E+03  0.77710020257E+03  0.00000000000E+00 0. -1.
         -1    1    3    3    0  502 -0.87229514441E+02  0.18591903541E+01  0.17005651483E+03  0.19113257968E+03  0.00000000000E+00 0.  1.
         13    1    5    5    0    0  0.49510254626E+03  0.30169991447E+03 -0.68300480076E+03  0.89590453039E+03  0.00000000000E+00 0. -1.
        -13    1    5    5    0    0  0.19021835837E+02 -0.57356977564E+01 -0.29202034373E+02  0.35319785941E+02  0.00000000000E+00 0.  1.
          2    1    6    6  503    0 -0.16637766096E+03 -0.18576539820E+03 -0.17403013511E+03  0.30409997889E+03  0.00000000000E+00 0. -1.
         -2    1    6    6    0  503 -0.42020139282E+02 -0.46353022573E+02  0.29141336339E+01  0.62632156132E+02  0.00000000000E+00 0.  1.
<mgrwt>
<rscale>  0 0.22659961E+04</rscale>
<asrwt>0</asrwt>
<pdfrwt beam="1">  1        2 0.17659794E+00 0.22659961E+04</pdfrwt>
<pdfrwt beam="2">  1       -1 0.17204656E+00 0.22659961E+04</pdfrwt>
<totfact> 0.50167408E+00</totfact>
</mgrwt>
</event>
<event>
12    7  0.1729738E-007  0.1319222E+04  0.7818608E-02  0.9014459E-01
         -1   -1    0    0    0  501 -0.00000000000E+00  0.00000000000E+00  0.12780893014E+04  0.12780893014E+04  0.00000000000E+00 0.  1.
          2   -1    0    0  501    0  0.00000000000E+00 -0.00000000000E+00 -0.34041986455E+03  0.34041986455E+03  0.00000000000E+00 0. -1.
         24    2    1    2    0    0 -0.53573148258E+02 -0.33284349919E+03 -0.22248412212E+02  0.34677229497E+03  0.78109894022E+02 0.  0.
        254    2    1    2    0    0  0.53573148258E+02  0.33284349919E+03  0.95991784903E+03  0.12717368710E+04  0.76303179153E+03 0.  0.
         23    2    4    4    0    0 -0.49429724278E+01 -0.14497955128E+02 -0.10806311641E+03  0.14345315726E+03  0.93094293704E+02 0.  0.
         23    2    4    4    0    0  0.58516120686E+02  0.34734145432E+03  0.10679809654E+04  0.11282837137E+04  0.91490839834E+02 0.  0.
          2    1    3    3  502    0 -0.48973636741E+02 -0.14695503060E+03 -0.39998963959E+02  0.15998160904E+03  0.00000000000E+00 0. -1.
         -1    1    3    3    0  502 -0.45995115173E+01 -0.18588846859E+03  0.17750551747E+02  0.18679068592E+03  0.00000000000E+00 0.  1.
         13    1    5    5    0    0  0.29801237792E+02 -0.40969175939E+02 -0.57281010674E+02  0.76470264384E+02  0.00000000000E+00 0.  1.
        -13    1    5    5    0    0 -0.34744210220E+02  0.26471220811E+02 -0.50782105735E+02  0.66982892875E+02  0.00000000000E+00 0. -1.
          3    1    6    6  503    0 -0.12111988776E+02  0.20456263374E+02  0.13723804762E+03  0.13928187498E+03  0.00000000000E+00 0. -1.
         -3    1    6    6    0  503  0.70628109462E+02  0.32688519094E+03  0.93074291782E+03  0.98900183871E+03  0.00000000000E+00 0.  1.
<mgrwt>
<rscale>  0 0.13192225E+04</rscale>
<asrwt>0</asrwt>
<pdfrwt beam="1">  1        2 0.52372287E-01 0.13192225E+04</pdfrwt>
<pdfrwt beam="2">  1       -1 0.19662912E+00 0.13192225E+04</pdfrwt>
<totfact> 0.16969102E+01</totfact>
</mgrwt>
</event>
<event>
12    7  0.1729738E-007  0.1850927E+04  0.7818608E-02  0.8679676E-01
          2   -1    0    0  501    0  0.00000000000E+00  0.00000000000E+00  0.55013016386E+03  0.55013016386E+03  0.00000000000E+00 0. -1.
         -1   -1    0    0    0  501 -0.00000000000E+00 -0.00000000000E+00 -0.15568732514E+04  0.15568732514E+04  0.00000000000E+00 0.  1.
         24    2    1    2    0    0 -0.88312295922E+02  0.46480514798E+03 -0.97780136948E+03  0.10893507484E+04  0.82137979015E+02 0.  0.
        254    2    1    2    0    0  0.88312295922E+02 -0.46480514798E+03 -0.28941718096E+02  0.10176526669E+04  0.90052009432E+03 0.  0.
         23    2    4    4    0    0  0.46578427929E+03 -0.35678270074E+03 -0.11698143992E+03  0.60510218263E+03  0.90637209527E+02 0.  0.
         23    2    4    4    0    0 -0.37747198337E+03 -0.10802244724E+03  0.88039721826E+02  0.41255048431E+03  0.91065702365E+02 0.  0.
          4    1    3    3  502    0 -0.17697859306E+02  0.25773203599E+03 -0.46757207639E+03  0.53419346984E+03  0.00000000000E+00 0. -1.
         -3    1    3    3    0  502 -0.70614436616E+02  0.20707311199E+03 -0.51022929309E+03  0.55515727852E+03  0.00000000000E+00 0.  1.
         13    1    5    5    0    0  0.41809684739E+03 -0.33723601040E+03 -0.83399321024E+02  0.54358858271E+03  0.00000000000E+00 0.  1.
        -13    1    5    5    0    0  0.47687431901E+02 -0.19546690337E+02 -0.33582118898E+02  0.61513599912E+02  0.00000000000E+00 0. -1.
          4    1    6    6  503    0 -0.22568202032E+03 -0.35380256683E+02  0.86498847017E+02  0.24426663176E+03  0.00000000000E+00 0. -1.
         -4    1    6    6    0  503 -0.15178996305E+03 -0.72642190559E+02  0.15408748094E+01  0.16828385255E+03  0.00000000000E+00 0.  1.
<mgrwt>
<rscale>  0 0.18509273E+04</rscale>
<asrwt>0</asrwt>
<pdfrwt beam="1">  1        2 0.84635409E-01 0.18509273E+04</pdfrwt>
<pdfrwt beam="2">  1       -1 0.23951897E+00 0.18509273E+04</pdfrwt>
<totfact> 0.48276673E+00</totfact>
</mgrwt>
</event>
<event>
12    7  0.1729738E-007  0.2987268E+04  0.7818608E-02  0.8247376E-01
          2   -1    0    0  501    0  0.00000000000E+00  0.00000000000E+00  0.97836393872E+03  0.97836393872E+03  0.00000000000E+00 0. -1.
         -1   -1    0    0    0  501 -0.00000000000E+00 -0.00000000000E+00 -0.22802795316E+04  0.22802795316E+04  0.00000000000E+00 0.  1.
         24    2    1    2    0    0 -0.72273456939E+03 -0.10826747903E+04 -0.16938553382E+03  0.13149420044E+04  0.76492198196E+02 0.  0.
        254    2    1    2    0    0  0.72273456939E+03  0.10826747903E+04 -0.11325300590E+04  0.19437014659E+04  0.89488607912E+03 0.  0.
         23    2    4    4    0    0  0.38760288697E+03  0.11463893584E+04 -0.97664679162E+03  0.15577102161E+04  0.90430097444E+02 0.  0.
         23    2    4    4    0    0  0.33513168243E+03 -0.63714568125E+02 -0.15588326740E+03  0.38599124984E+03  0.91196826365E+02 0.  0.
          2    1    3    3  502    0 -0.67433361619E+03 -0.97870415738E+03 -0.14150741483E+03  0.11969177090E+04  0.00000000000E+00 0. -1.
         -1    1    3    3    0  502 -0.48400953206E+02 -0.10397063294E+03 -0.27878118986E+02  0.11802429540E+03  0.00000000000E+00 0.  1.
         13    1    5    5    0    0  0.18391869732E+03  0.46719206522E+03 -0.45287782219E+03  0.67616036179E+03  0.00000000000E+00 0.  1.
        -13    1    5    5    0    0  0.20368418964E+03  0.67919729323E+03 -0.52376896943E+03  0.88154985428E+03  0.00000000000E+00 0. -1.
          4    1    6    6  503    0  0.93688829219E+02  0.20351981763E+02 -0.59097185455E+02  0.11262449649E+03  0.00000000000E+00 0. -1.
         -4    1    6    6    0  503  0.24144285321E+03 -0.84066549889E+02 -0.96786081948E+02  0.27336675334E+03  0.00000000000E+00 0.  1.
<mgrwt>
<rscale>  0 0.29872685E+04</rscale>
<asrwt>0</asrwt>
<pdfrwt beam="1">  1        2 0.15051753E+00 0.29872685E+04</pdfrwt>
<pdfrwt beam="2">  1       -1 0.35081223E+00 0.29872685E+04</pdfrwt>
<totfact> 0.38976204E-01</totfact>
</mgrwt>
</event>
<event>
12    7  0.1729738E-007  0.1399007E+04  0.7818608E-02  0.8954537E-01
         -1   -1    0    0    0  501 -0.00000000000E+00  0.00000000000E+00  0.68000172208E+03  0.68000172208E+03  0.00000000000E+00 0.  1.
          2   -1    0    0  501    0  0.00000000000E+00 -0.00000000000E+00 -0.71956498873E+03  0.71956498873E+03  0.00000000000E+00 0. -1.
         24    2    1    2    0    0  0.13287903140E+01 -0.36422967570E+03 -0.16990473679E+03  0.40998791119E+03  0.80978055047E+02 0.  0.
        254    2    1    2    0    0 -0.13287903140E+01  0.36422967570E+03  0.13034147015E+03  0.98957879962E+03  0.91083054377E+03 0.  0.
         23    2    4    4    0    0 -0.23797822730E+03 -0.20724381185E+03 -0.63386346938E+02  0.33439443721E+03  0.90654158411E+02 0.  0.
         23    2    4    4    0    0  0.23664943699E+03  0.57147348755E+03  0.19372781709E+03  0.65518436241E+03  0.95661792949E+02 0.  0.
          2    1    3    3  502    0 -0.14216966628E+01 -0.19938977998E+03 -0.48392530381E+02  0.20518319273E+03  0.00000000000E+00 0. -1.
         -1    1    3    3    0  502  0.27504869769E+01 -0.16483989572E+03 -0.12151220641E+03  0.20480471847E+03  0.00000000000E+00 0.  1.
         13    1    5    5    0    0 -0.23002550838E+03 -0.21140622940E+03 -0.47305589894E+02  0.31597808021E+03  0.00000000000E+00 0.  1.
        -13    1    5    5    0    0 -0.79527189266E+01  0.41624175520E+01 -0.16080757045E+02  0.18416357005E+02  0.00000000000E+00 0. -1.
          2    1    6    6  503    0  0.16244735059E+03  0.47234088144E+03  0.13106246724E+03  0.51640335041E+03  0.00000000000E+00 0.  1.
         -2    1    6    6    0  503  0.74202086399E+02  0.99132606108E+02  0.62665349847E+02  0.13878101200E+03  0.00000000000E+00 0. -1.
<mgrwt>
<rscale>  0 0.13990074E+04</rscale>
<asrwt>0</asrwt>
<pdfrwt beam="1">  1        2 0.11070231E+00 0.13990074E+04</pdfrwt>
<pdfrwt beam="2">  1       -1 0.10461565E+00 0.13990074E+04</pdfrwt>
<totfact> 0.37778440E+01</totfact>
</mgrwt>
</event>
<event>
12    7  0.1729738E-007  0.1436003E+04  0.7818608E-02  0.8928162E-01
          2   -1    0    0  501    0  0.00000000000E+00  0.00000000000E+00  0.77051468009E+03  0.77051468009E+03  0.00000000000E+00 0. -1.
         -1   -1    0    0    0  501 -0.00000000000E+00 -0.00000000000E+00 -0.66906702512E+03  0.66906702512E+03  0.00000000000E+00 0.  1.
         24    2    1    2    0    0 -0.11654615826E+03 -0.38465939108E+03  0.18612650076E+03  0.45058308945E+03  0.82681267872E+02 0.  0.
        254    2    1    2    0    0  0.11654615826E+03  0.38465939108E+03 -0.84678845795E+02  0.98899861576E+03  0.89966766136E+03 0.  0.
         23    2    4    4    0    0 -0.19862084741E+03  0.35853745430E+03 -0.36535619320E+03  0.55648972046E+03  0.90533496079E+02 0.  0.
         23    2    4    4    0    0  0.31516700567E+03  0.26121936786E+02  0.28067734741E+03  0.43250889530E+03  0.90948194726E+02 0.  0.
          2    1    3    3  502    0 -0.12773875652E+03 -0.32008228173E+03  0.16113991234E+03  0.38044175421E+03  0.00000000000E+00 0. -1.
         -1    1    3    3    0  502  0.11192598264E+02 -0.64577109351E+02  0.24986588419E+02  0.70141335237E+02  0.00000000000E+00 0.  1.
         13    1    5    5    0    0 -0.20164123375E+03  0.32336836074E+03 -0.31200039257E+03  0.49251449607E+03  0.00000000000E+00 0.  1.
        -13    1    5    5    0    0  0.30203863403E+01  0.35169093559E+02 -0.53355800631E+02  0.63975224395E+02  0.00000000000E+00 0. -1.
          1    1    6    6  503    0  0.38887411246E+02 -0.78827843153E+01  0.37469025103E+01  0.39854840614E+02  0.00000000000E+00 0. -1.
         -1    1    6    6    0  503  0.27627959442E+03  0.34004721101E+02  0.27693044490E+03  0.39265405468E+03  0.00000000000E+00 0.  1.
<mgrwt>
<rscale>  0 0.14360027E+04</rscale>
<asrwt>0</asrwt>
<pdfrwt beam="1">  1        2 0.11854072E+00 0.14360027E+04</pdfrwt>
<pdfrwt beam="2">  1       -1 0.10293339E+00 0.14360027E+04</pdfrwt>
<totfact> 0.35794170E+01</totfact>
</mgrwt>
</event>
<event>
12    7  0.1729738E-007  0.1401085E+04  0.7818608E-02  0.8953034E-01
          2   -1    0    0  501    0  0.00000000000E+00  0.00000000000E+00  0.14883804332E+04  0.14883804332E+04  0.00000000000E+00 0. -1.
         -1   -1    0    0    0  501 -0.00000000000E+00 -0.00000000000E+00 -0.32972724677E+03  0.32972724677E+03  0.00000000000E+00 0.  1.
         24    2    1    2    0    0  0.92306230021E+02  0.38649728274E+03  0.42682880765E+03  0.58868429960E+03  0.80410098212E+02 0.  0.
        254    2    1    2    0    0 -0.92306230021E+02 -0.38649728274E+03  0.73182437876E+03  0.12294233803E+04  0.90444145035E+03 0.  0.
         23    2    4    4    0    0  0.53573386798E+02 -0.28761732687E+02  0.81737084446E+03  0.82469703203E+03  0.91283909975E+02 0.  0.
         23    2    4    4    0    0 -0.14587961682E+03 -0.35773555005E+03 -0.85546465699E+02  0.40472634831E+03  0.85027247713E+02 0.  0.
          4    1    3    3  502    0  0.58391475631E+02  0.28900202035E+03  0.26327154765E+03  0.39527666260E+03  0.00000000000E+00 0. -1.
         -1    1    3    3    0  502  0.33914754390E+02  0.97495262389E+02  0.16355726000E+03  0.19340763700E+03  0.00000000000E+00 0.  1.
         13    1    5    5    0    0  0.72635040562E+02 -0.81642423661E+01  0.41808734349E+03  0.42442847543E+03  0.00000000000E+00 0.  1.
        -13    1    5    5    0    0 -0.19061653764E+02 -0.20597490320E+02  0.39928350097E+03  0.40026855659E+03  0.00000000000E+00 0. -1.
          2    1    6    6  503    0  0.90367283299E+01 -0.18914829322E+02  0.45039052956E+01  0.21441044519E+02  0.00000000000E+00 0. -1.
         -2    1    6    6    0  503 -0.15491634515E+03 -0.33882072073E+03 -0.90050370994E+02  0.38328530379E+03  0.00000000000E+00 0.  1.
<mgrwt>
<rscale>  0 0.14010847E+04</rscale>
<asrwt>0</asrwt>
<pdfrwt beam="1">  1        2 0.22898160E+00 0.14010847E+04</pdfrwt>
<pdfrwt beam="2">  1       -1 0.50727270E-01 0.14010847E+04</pdfrwt>
<totfact> 0.55799530E+01</totfact>
</mgrwt>
</event>
<event>
12    7  0.1729738E-007  0.1506928E+04  0.7818608E-02  0.8879859E-01
          2   -1    0    0  501    0  0.00000000000E+00  0.00000000000E+00  0.57635859144E+03  0.57635859144E+03  0.00000000000E+00 0. -1.
         -1   -1    0    0    0  501 -0.00000000000E+00 -0.00000000000E+00 -0.98499095670E+03  0.98499095670E+03  0.00000000000E+00 0.  1.
         24    2    1    2    0    0 -0.24439037331E+03 -0.41359123865E+03 -0.19584054295E+03  0.52500189069E+03  0.80554948372E+02 0.  0.
        254    2    1    2    0    0  0.24439037331E+03  0.41359123865E+03 -0.21279182232E+03  0.10363476574E+04  0.89328144512E+03 0.  0.
         23    2    4    4    0    0  0.16691801150E+03 -0.26127439923E+03 -0.15930910220E+02  0.32349917929E+03  0.90950485674E+02 0.  0.
         23    2    4    4    0    0  0.77472361807E+02  0.67486563788E+03 -0.19686091210E+03  0.71284847816E+03  0.89180368186E+02 0.  0.
          2    1    3    3  502    0 -0.36792834147E+02 -0.20908990848E+02 -0.24647077079E+02  0.48973226884E+02  0.00000000000E+00 0. -1.
         -1    1    3    3    0  502 -0.20759753916E+03 -0.39268224780E+03 -0.17119346587E+03  0.47602866381E+03  0.00000000000E+00 0.  1.
         13    1    5    5    0    0  0.63261591801E+02 -0.15140173335E+03 -0.43949472138E+02  0.16987074486E+03  0.00000000000E+00 0.  1.
        -13    1    5    5    0    0  0.10365641970E+03 -0.10987266587E+03  0.28018561918E+02  0.15362843442E+03  0.00000000000E+00 0. -1.
          4    1    6    6  503    0 -0.10334072499E+02  0.26740813952E+02 -0.21107272336E+02  0.35600296779E+02  0.00000000000E+00 0. -1.
         -4    1    6    6    0  503  0.87806434306E+02  0.64812482393E+03 -0.17575363976E+03  0.67724818138E+03  0.00000000000E+00 0.  1.
<mgrwt>
<rscale>  0 0.15069280E+04</rscale>
<asrwt>0</asrwt>
<pdfrwt beam="1">  1        2 0.88670553E-01 0.15069280E+04</pdfrwt>
<pdfrwt beam="2">  1       -1 0.15153707E+00 0.15069280E+04</pdfrwt>
<totfact> 0.19501074E+01</totfact>
</mgrwt>
</event>
<event>
12    7  0.1729738E-007  0.1860642E+04  0.7818608E-02  0.8674699E-01
         -1   -1    0    0    0  501 -0.00000000000E+00  0.00000000000E+00  0.19680270726E+04  0.19680270726E+04  0.00000000000E+00 0.  1.
          2   -1    0    0  501    0  0.00000000000E+00 -0.00000000000E+00 -0.43977892423E+03  0.43977892423E+03  0.00000000000E+00 0. -1.
         24    2    1    2    0    0  0.48764354834E+03 -0.43544498889E+03  0.95506632309E+03  0.11601933475E+04  0.80550316723E+02 0.  0.
        254    2    1    2    0    0 -0.48764354834E+03  0.43544498889E+03  0.57318182530E+03  0.12476126493E+04  0.89475770428E+03 0.  0.
         23    2    4    4    0    0 -0.16475047893E+02 -0.17666859438E+03  0.40514044392E+03  0.45184776276E+03  0.92435934401E+02 0.  0.
         23    2    4    4    0    0 -0.47116850044E+03  0.61211358328E+03  0.16804138138E+03  0.79576488658E+03  0.91219812643E+02 0.  0.
          2    1    3    3  502    0  0.23056170271E+03 -0.20461316656E+03  0.52153940343E+03  0.60582885044E+03  0.00000000000E+00 0. -1.
         -1    1    3    3    0  502  0.25708184563E+03 -0.23083182233E+03  0.43352691966E+03  0.55436449708E+03  0.00000000000E+00 0.  1.
         13    1    5    5    0    0 -0.29378299938E+02 -0.14772994130E+03  0.23747352988E+03  0.28121325975E+03  0.00000000000E+00 0. -1.
        -13    1    5    5    0    0  0.12903252045E+02 -0.28938653085E+02  0.16766691404E+03  0.17063450301E+03  0.00000000000E+00 0.  1.
          3    1    6    6  503    0 -0.42302665366E+03  0.51197962849E+03  0.16632994464E+03  0.68464614231E+03  0.00000000000E+00 0. -1.
         -3    1    6    6    0  503 -0.48141846789E+02  0.10013395479E+03  0.17114367376E+01  0.11111874428E+03  0.00000000000E+00 0.  1.
<mgrwt>
<rscale>  0 0.18606416E+04</rscale>
<asrwt>0</asrwt>
<pdfrwt beam="1">  1        2 0.67658297E-01 0.18606416E+04</pdfrwt>
<pdfrwt beam="2">  1       -1 0.30277339E+00 0.18606416E+04</pdfrwt>
<totfact> 0.24318968E+00</totfact>
</mgrwt>
</event>
<event>
12    7  0.1729738E-007  0.3840346E+04  0.7818608E-02  0.8037552E-01
          2   -1    0    0  501    0  0.00000000000E+00  0.00000000000E+00  0.19013994756E+04  0.19013994756E+04  0.00000000000E+00 0. -1.
         -1   -1    0    0    0  501 -0.00000000000E+00 -0.00000000000E+00 -0.19391322850E+04  0.19391322850E+04  0.00000000000E+00 0.  1.
         24    2    1    2    0    0 -0.59416335818E+03 -0.13090975181E+04  0.10873100491E+04  0.18043076726E+04  0.80725624858E+02 0.  0.
        254    2    1    2    0    0  0.59416335818E+03  0.13090975181E+04 -0.11250428585E+04  0.20362240880E+04  0.90206468449E+03 0.  0.
         23    2    4    4    0    0  0.27666836658E+03  0.58982483138E+03  0.30556148238E+01  0.65816006721E+03  0.93416382404E+02 0.  0.
         23    2    4    4    0    0  0.31749499160E+03  0.71927268668E+03 -0.11280984733E+04  0.13780640208E+04  0.91093426594E+02 0.  0.
          4    1    3    3  502    0 -0.55664318058E+03 -0.11895421928E+04  0.97063610091E+03  0.16330942102E+04  0.00000000000E+00 0. -1.
         -3    1    3    3    0  502 -0.37520177597E+02 -0.11955532529E+03  0.11667394818E+03  0.17121346242E+03  0.00000000000E+00 0.  1.
         13    1    5    5    0    0  0.34976914004E+01 -0.30655316642E+01  0.26743858716E+01  0.53650414077E+01  0.00000000000E+00 0.  1.
        -13    1    5    5    0    0  0.27317067518E+03  0.59289036305E+03  0.38122895221E+00  0.65279502580E+03  0.00000000000E+00 0. -1.
          3    1    6    6  503    0  0.11504022621E+03  0.24308955175E+03 -0.46237845369E+03  0.53490243807E+03  0.00000000000E+00 0. -1.
         -3    1    6    6    0  503  0.20245476539E+03  0.47618313494E+03 -0.66572001960E+03  0.84316158269E+03  0.00000000000E+00 0.  1.
<mgrwt>
<rscale>  0 0.38403464E+04</rscale>
<asrwt>0</asrwt>
<pdfrwt beam="1">  1        2 0.29252299E+00 0.38403464E+04</pdfrwt>
<pdfrwt beam="2">  1       -1 0.29832805E+00 0.38403464E+04</pdfrwt>
<totfact> 0.23337005E-01</totfact>
</mgrwt>
</event>
<event>
12    7  0.1729738E-007  0.1652859E+04  0.7818608E-02  0.8788717E-01
          2   -1    0    0  501    0  0.00000000000E+00  0.00000000000E+00  0.21221177628E+04  0.21221177628E+04  0.00000000000E+00 0. -1.
         -1   -1    0    0    0  501 -0.00000000000E+00 -0.00000000000E+00 -0.32184153292E+03  0.32184153292E+03  0.00000000000E+00 0.  1.
         24    2    1    2    0    0 -0.34529360359E+03  0.39839495929E+03  0.10025274317E+04  0.11355447940E+04  0.80339975041E+02 0.  0.
        254    2    1    2    0    0  0.34529360359E+03 -0.39839495929E+03  0.79774879827E+03  0.13084145018E+04  0.89308406498E+03 0.  0.
         23    2    4    4    0    0  0.59183193989E+03 -0.47498319388E+03  0.57750433583E+03  0.95777682939E+03  0.89169038773E+02 0.  0.
         23    2    4    4    0    0 -0.24653833630E+03  0.76588234595E+02  0.22024446244E+03  0.35063767241E+03  0.88273694442E+02 0.  0.
          4    1    3    3  502    0 -0.33825422532E+03  0.40105083499E+03  0.99529380198E+03  0.11251077484E+04  0.00000000000E+00 0. -1.
         -3    1    3    3    0  502 -0.70393782676E+01 -0.26558757038E+01  0.72336296804E+01  0.10437045583E+02  0.00000000000E+00 0.  1.
         13    1    5    5    0    0  0.23063746768E+03 -0.13448401809E+03  0.22188343685E+03  0.34714817034E+03  0.00000000000E+00 0.  1.
        -13    1    5    5    0    0  0.36119447221E+03 -0.34049917579E+03  0.35562089897E+03  0.61062865906E+03  0.00000000000E+00 0. -1.
          1    1    6    6  503    0 -0.10635692116E+03  0.71579725974E+02  0.13652825877E+03  0.18728432207E+03  0.00000000000E+00 0. -1.
         -1    1    6    6    0  503 -0.14018141515E+03  0.50085086213E+01  0.83716203669E+02  0.16335335034E+03  0.00000000000E+00 0.  1.
<mgrwt>
<rscale>  0 0.16528589E+04</rscale>
<asrwt>0</asrwt>
<pdfrwt beam="1">  1        2 0.32647965E+00 0.16528589E+04</pdfrwt>
<pdfrwt beam="2">  1       -1 0.49514083E-01 0.16528589E+04</pdfrwt>
<totfact> 0.25411908E+01</totfact>
</mgrwt>
</event>
<event>
12    7  0.1729738E-007  0.1215657E+04  0.7818608E-02  0.9099261E-01
          2   -1    0    0  501    0  0.00000000000E+00  0.00000000000E+00  0.11537133481E+04  0.11537133481E+04  0.00000000000E+00 0. -1.
         -1   -1    0    0    0  501 -0.00000000000E+00 -0.00000000000E+00 -0.32023177508E+03  0.32023177508E+03  0.00000000000E+00 0.  1.
         24    2    1    2    0    0  0.50027612133E+02 -0.22824046859E+03  0.36480999001E+02  0.25016154921E+03  0.81568768145E+02 0.  0.
        254    2    1    2    0    0 -0.50027612133E+02  0.22824046859E+03  0.79700057403E+03  0.12237835740E+04  0.89879911408E+03 0.  0.
         23    2    4    4    0    0 -0.10073951592E+03 -0.30878618697E+03  0.49489451573E+03  0.59902147825E+03  0.91699456755E+02 0.  0.
         23    2    4    4    0    0  0.50711903785E+02  0.53702665556E+03  0.30210605830E+03  0.62476209574E+03  0.89945982898E+02 0.  0.
          4    1    3    3  502    0  0.32100953056E+02 -0.23885960509E+02  0.18953982387E+02  0.44274865837E+02  0.00000000000E+00 0. -1.
         -3    1    3    3    0  502  0.17926659077E+02 -0.20435450808E+03  0.17527016614E+02  0.20588668337E+03  0.00000000000E+00 0.  1.
         13    1    5    5    0    0 -0.29795740314E+02 -0.65088644430E+02  0.18553383372E+03  0.19886458013E+03  0.00000000000E+00 0.  1.
        -13    1    5    5    0    0 -0.70943775603E+02 -0.24369754254E+03  0.30936068201E+03  0.40015689812E+03  0.00000000000E+00 0. -1.
          4    1    6    6  503    0  0.66917399171E+02  0.50024568461E+03  0.29287357925E+03  0.58352259314E+03  0.00000000000E+00 0. -1.
         -4    1    6    6    0  503 -0.16205495386E+02  0.36780970951E+02  0.92324790423E+01  0.41239502593E+02  0.00000000000E+00 0.  1.
<mgrwt>
<rscale>  0 0.12156573E+04</rscale>
<asrwt>0</asrwt>
<pdfrwt beam="1">  1        2 0.17749436E+00 0.12156573E+04</pdfrwt>
<pdfrwt beam="2">  1       -1 0.49266428E-01 0.12156573E+04</pdfrwt>
<totfact> 0.93684917E+01</totfact>
</mgrwt>
</event>
<event>
12    7  0.1729738E-007  0.1278065E+04  0.7818608E-02  0.9047143E-01
         -1   -1    0    0    0  501 -0.00000000000E+00  0.00000000000E+00  0.68956986874E+03  0.68956986874E+03  0.00000000000E+00 0.  1.
          2   -1    0    0  501    0  0.00000000000E+00 -0.00000000000E+00 -0.59219853950E+03  0.59219853950E+03  0.00000000000E+00 0. -1.
         24    2    1    2    0    0 -0.77052627062E+02  0.20273928646E+03  0.24576981921E+03  0.33747557694E+03  0.80290942118E+02 0.  0.
        254    2    1    2    0    0  0.77052627062E+02 -0.20273928646E+03 -0.14839848997E+03  0.94429283130E+03  0.90698760400E+03 0.  0.
         23    2    4    4    0    0 -0.53002169346E+02 -0.15307932631E+03 -0.51222634333E+03  0.54450634001E+03  0.88706354972E+02 0.  0.
         23    2    4    4    0    0  0.13005479641E+03 -0.49659960151E+02  0.36382785336E+03  0.39978649130E+03  0.89878640574E+02 0.  0.
          2    1    3    3  502    0  0.90423785407E+01  0.35723285521E+02  0.14758240178E+02  0.39695382493E+02  0.00000000000E+00 0. -1.
         -1    1    3    3    0  502 -0.86095005603E+02  0.16701600094E+03  0.23101157903E+03  0.29778019445E+03  0.00000000000E+00 0.  1.
         13    1    5    5    0    0 -0.59306219455E+02 -0.13986060493E+03 -0.50648332871E+03  0.52877554666E+03  0.00000000000E+00 0. -1.
        -13    1    5    5    0    0  0.63040501095E+01 -0.13218721376E+02 -0.57430146143E+01  0.15730793352E+02  0.00000000000E+00 0.  1.
          2    1    6    6  503    0  0.20259341080E+02 -0.42992493198E+01  0.17820164841E+03  0.17940109237E+03  0.00000000000E+00 0.  1.
         -2    1    6    6    0  503  0.10979545533E+03 -0.45360710831E+02  0.18562620495E+03  0.22038539893E+03  0.00000000000E+00 0. -1.
<mgrwt>
<rscale>  0 0.12780646E+04</rscale>
<asrwt>0</asrwt>
<pdfrwt beam="1">  1        2 0.91107467E-01 0.12780646E+04</pdfrwt>
<pdfrwt beam="2">  1       -1 0.10608767E+00 0.12780646E+04</pdfrwt>
<totfact> 0.47006375E+01</totfact>
</mgrwt>
</event>
<event>
12    7  0.1729738E-007  0.1901376E+04  0.7818608E-02  0.8654172E-01
         -1   -1    0    0    0  501 -0.00000000000E+00  0.00000000000E+00  0.49353523233E+03  0.49353523233E+03  0.00000000000E+00 0.  1.
          2   -1    0    0  501    0  0.00000000000E+00 -0.00000000000E+00 -0.18312922827E+04  0.18312922827E+04  0.00000000000E+00 0. -1.
         24    2    1    2    0    0  0.63134232269E+03  0.37387177680E+03 -0.47336249767E+03  0.87676914015E+03  0.79239112899E+02 0.  0.
        254    2    1    2    0    0 -0.63134232269E+03 -0.37387177680E+03 -0.86439455270E+03  0.14480583749E+04  0.90073407865E+03 0.  0.
         23    2    4    4    0    0 -0.57105332721E+03 -0.85604799903E+02 -0.96032255745E+03  0.11243107675E+04  0.91788906679E+02 0.  0.
         23    2    4    4    0    0 -0.60288995478E+02 -0.28826697690E+03  0.95928004751E+02  0.32374760734E+03  0.94221644102E+02 0.  0.
          2    1    3    3  502    0  0.76230056447E+01  0.52792844878E+01  0.29473705997E+01  0.97297509328E+01  0.00000000000E+00 0. -1.
         -1    1    3    3    0  502  0.62371931704E+03  0.36859249231E+03 -0.47630986827E+03  0.86703938921E+03  0.00000000000E+00 0.  1.
         13    1    5    5    0    0 -0.42632965153E+03 -0.78203299409E+02 -0.64280521763E+03  0.77528786629E+03  0.00000000000E+00 0. -1.
        -13    1    5    5    0    0 -0.14472367568E+03 -0.74015004945E+01 -0.31751733982E+03  0.34902290125E+03  0.00000000000E+00 0.  1.
          2    1    6    6  503    0 -0.56389683497E+02 -0.15817633906E+03  0.10890330384E+02  0.16827997486E+03  0.00000000000E+00 0.  1.
         -2    1    6    6    0  503 -0.38993119802E+01 -0.13009063784E+03  0.85037674367E+02  0.15546763248E+03  0.00000000000E+00 0. -1.
<mgrwt>
<rscale>  0 0.19013756E+04</rscale>
<asrwt>0</asrwt>
<pdfrwt beam="1">  1        2 0.28173728E+00 0.19013756E+04</pdfrwt>
<pdfrwt beam="2">  1       -1 0.75928497E-01 0.19013756E+04</pdfrwt>
<totfact> 0.15404200E+01</totfact>
</mgrwt>
</event>
<event>
12    7  0.1729738E-007  0.2037320E+04  0.7818608E-02  0.8589368E-01
          2   -1    0    0  501    0  0.00000000000E+00  0.00000000000E+00  0.33517387428E+04  0.33517387428E+04  0.00000000000E+00 0. -1.
         -1   -1    0    0    0  501 -0.00000000000E+00 -0.00000000000E+00 -0.30959115343E+03  0.30959115343E+03  0.00000000000E+00 0.  1.
         24    2    1    2    0    0 -0.35468017341E+03  0.40944421269E+03  0.23212385643E+04  0.23849266447E+04  0.79271932380E+02 0.  0.
        254    2    1    2    0    0  0.35468017341E+03 -0.40944421269E+03  0.72090902506E+03  0.12764032516E+04  0.90335643546E+03 0.  0.
         23    2    4    4    0    0  0.12651388609E+03 -0.55938052360E+03  0.95764561905E+02  0.58802538446E+03  0.87696453126E+02 0.  0.
         23    2    4    4    0    0  0.22816628731E+03  0.14993631091E+03  0.62514446315E+03  0.68837786711E+03  0.92291582029E+02 0.  0.
          4    1    3    3  502    0 -0.19327556880E+03  0.28171752015E+03  0.14468128824E+04  0.14866027456E+04  0.00000000000E+00 0. -1.
         -3    1    3    3    0  502 -0.16140460461E+03  0.12772669253E+03  0.87442568190E+03  0.89832389902E+03  0.00000000000E+00 0.  1.
         13    1    5    5    0    0 -0.32151519612E+00 -0.76027550794E+02  0.37954097754E+02  0.84975322230E+02  0.00000000000E+00 0.  1.
        -13    1    5    5    0    0  0.12683540129E+03 -0.48335297281E+03  0.57810464151E+02  0.50305006223E+03  0.00000000000E+00 0. -1.
          2    1    6    6  503    0  0.14542671230E+01  0.29798766612E+02  0.91810554615E+02  0.96536310905E+02  0.00000000000E+00 0. -1.
         -2    1    6    6    0  503  0.22671202019E+03  0.12013754430E+03  0.53333390854E+03  0.59184155620E+03  0.00000000000E+00 0.  1.
<mgrwt>
<rscale>  0 0.20373205E+04</rscale>
<asrwt>0</asrwt>
<pdfrwt beam="1">  1        2 0.51565209E+00 0.20373205E+04</pdfrwt>
<pdfrwt beam="2">  1       -1 0.47629410E-01 0.20373205E+04</pdfrwt>
<totfact> 0.47908395E+00</totfact>
</mgrwt>
</event>
<event>
12    7  0.1729738E-007  0.1438991E+04  0.7818608E-02  0.8926069E-01
          2   -1    0    0  501    0  0.00000000000E+00  0.00000000000E+00  0.97998553865E+03  0.97998553865E+03  0.00000000000E+00 0. -1.
         -1   -1    0    0    0  501 -0.00000000000E+00 -0.00000000000E+00 -0.52824629610E+03  0.52824629610E+03  0.00000000000E+00 0.  1.
         24    2    1    2    0    0  0.12831618071E+03  0.11541453513E+03 -0.27597460711E+03  0.33564411336E+03  0.81911109814E+02 0.  0.
        254    2    1    2    0    0 -0.12831618071E+03 -0.11541453513E+03  0.72771384967E+03  0.11725877214E+04  0.90311071315E+03 0.  0.
         23    2    4    4    0    0 -0.49843909266E+03 -0.20875045942E+02  0.52827581600E+03  0.73227815093E+03  0.90987119602E+02 0.  0.
         23    2    4    4    0    0  0.37012291195E+03 -0.94539489190E+02  0.19943803367E+03  0.44030957046E+03  0.90378667842E+02 0.  0.
          4    1    3    3  502    0  0.36676241545E+02  0.11279280787E+02 -0.17231996487E+02  0.42063173583E+02  0.00000000000E+00 0. -1.
         -3    1    3    3    0  502  0.91639939169E+02  0.10413525435E+03 -0.25874261062E+03  0.29358093978E+03  0.00000000000E+00 0.  1.
         13    1    5    5    0    0 -0.25203034743E+03 -0.19957686136E+02  0.20315120893E+03  0.32432702470E+03  0.00000000000E+00 0. -1.
        -13    1    5    5    0    0 -0.24640874523E+03 -0.91735980582E+00  0.32512460707E+03  0.40795112623E+03  0.00000000000E+00 0.  1.
          3    1    6    6  503    0  0.28564961470E+03 -0.75316746177E+02  0.19418084599E+03  0.35351734835E+03  0.00000000000E+00 0. -1.
         -3    1    6    6    0  503  0.84473297249E+02 -0.19222743013E+02  0.52571876749E+01  0.86792222113E+02  0.00000000000E+00 0.  1.
<mgrwt>
<rscale>  0 0.14389909E+04</rscale>
<asrwt>0</asrwt>
<pdfrwt beam="1">  1        2 0.15076701E+00 0.14389909E+04</pdfrwt>
<pdfrwt beam="2">  1       -1 0.81268661E-01 0.14389909E+04</pdfrwt>
<totfact> 0.43355429E+01</totfact>
</mgrwt>
</event>
<event>
12    7  0.1729738E-007  0.1893363E+04  0.7818608E-02  0.8658167E-01
          2   -1    0    0  501    0  0.00000000000E+00  0.00000000000E+00  0.92778521963E+03  0.92778521963E+03  0.00000000000E+00 0. -1.
         -1   -1    0    0    0  501 -0.00000000000E+00 -0.00000000000E+00 -0.96596314323E+03  0.96596314323E+03  0.00000000000E+00 0.  1.
         24    2    1    2    0    0  0.33037530285E+03 -0.54764172940E+03 -0.30613805007E+03  0.71430974473E+03  0.86363193569E+02 0.  0.
        254    2    1    2    0    0 -0.33037530285E+03  0.54764172940E+03  0.26796012648E+03  0.11794386181E+04  0.95405110977E+03 0.  0.
         23    2    4    4    0    0 -0.48217793265E+03  0.67051910998E+03  0.40008523424E+03  0.92235671224E+03  0.92640565512E+02 0.  0.
         23    2    4    4    0    0  0.15180262980E+03 -0.12287738059E+03 -0.13212510776E+03  0.25708190589E+03  0.10242642804E+03 0.  0.
          4    1    3    3  502    0  0.10519412436E+03 -0.13982746247E+03 -0.46774098844E+02  0.18112244307E+03  0.00000000000E+00 0. -1.
         -3    1    3    3    0  502  0.22518117849E+03 -0.40781426693E+03 -0.25936395123E+03  0.53318730167E+03  0.00000000000E+00 0.  1.
         13    1    5    5    0    0 -0.30959173700E+03  0.49399323304E+03  0.30351985534E+03  0.65726757146E+03  0.00000000000E+00 0. -1.
        -13    1    5    5    0    0 -0.17258619565E+03  0.17652587694E+03  0.96565378899E+02  0.26508914078E+03  0.00000000000E+00 0.  1.
          1    1    6    6  503    0  0.71428091851E+02 -0.31982181830E+02 -0.10799624150E+03  0.13337173778E+03  0.00000000000E+00 0. -1.
         -1    1    6    6    0  503  0.80374537944E+02 -0.90895198759E+02 -0.24128866262E+02  0.12371016811E+03  0.00000000000E+00 0.  1.
<mgrwt>
<rscale>  0 0.18933635E+04</rscale>
<asrwt>0</asrwt>
<pdfrwt beam="1">  1        2 0.14273619E+00 0.18933635E+04</pdfrwt>
<pdfrwt beam="2">  1       -1 0.14860971E+00 0.18933635E+04</pdfrwt>
<totfact> 0.10744452E+01</totfact>
</mgrwt>
</event>
<event>
12    7  0.1948532E-007  0.2061199E+04  0.7818608E-02  0.8578531E-01
          2   -1    0    0  501    0  0.00000000000E+00  0.00000000000E+00  0.78368354038E+03  0.78368354038E+03  0.00000000000E+00 0. -1.
         -1   -1    0    0    0  501 -0.00000000000E+00 -0.00000000000E+00 -0.13553120532E+04  0.13553120532E+04  0.00000000000E+00 0.  1.
         24    2    1    2    0    0 -0.34086487382E+03 -0.16608451697E+03  0.53226347493E+03  0.65863501953E+03  0.81992397366E+02 0.  0.
        254    2    1    2    0    0  0.34086487382E+03  0.16608451697E+03 -0.11038919878E+04  0.14803605741E+04  0.91055860856E+03 0.  0.
         23    2    4    4    0    0  0.25314348716E+02  0.28633856018E+03  0.22355141390E+02  0.30112107708E+03  0.86853689727E+02 0.  0.
         23    2    4    4    0    0  0.31555052510E+03 -0.12025404321E+03 -0.11262471292E+04  0.11792394970E+04  0.90222095492E+02 0.  0.
          4    1    3    3  502    0 -0.32612679688E+03 -0.13392796056E+03  0.48241758055E+03  0.59751327039E+03  0.00000000000E+00 0. -1.
         -1    1    3    3    0  502 -0.14738076942E+02 -0.32156556411E+02  0.49845894373E+02  0.61121749141E+02  0.00000000000E+00 0.  1.
         13    1    5    5    0    0 -0.29923780376E+02  0.15346933308E+03  0.13993050317E+02  0.15698431223E+03  0.00000000000E+00 0. -1.
        -13    1    5    5    0    0  0.55238129092E+02  0.13286922710E+03  0.83620910731E+01  0.14413676485E+03  0.00000000000E+00 0.  1.
          3    1    6    6  503    0  0.29934089470E+03 -0.95198059374E+02 -0.95276131679E+03  0.10032057459E+04  0.00000000000E+00 0. -1.
         -3    1    6    6    0  503  0.16209630407E+02 -0.25055983840E+02 -0.17348581239E+03  0.17603375115E+03  0.00000000000E+00 0.  1.
<mgrwt>
<rscale>  0 0.20611994E+04</rscale>
<asrwt>0</asrwt>
<pdfrwt beam="1">  1        2 0.12056670E+00 0.20611994E+04</pdfrwt>
<pdfrwt beam="2">  1       -1 0.20850955E+00 0.20611994E+04</pdfrwt>
<totfact> 0.49143825E+00</totfact>
</mgrwt>
</event>
<event>
12    7  0.1729738E-007  0.1296981E+04  0.7818608E-02  0.9031963E-01
          2   -1    0    0  501    0  0.00000000000E+00  0.00000000000E+00  0.52504321245E+03  0.52504321245E+03  0.00000000000E+00 0. -1.
         -1   -1    0    0    0  501 -0.00000000000E+00 -0.00000000000E+00 -0.80096262181E+03  0.80096262181E+03  0.00000000000E+00 0.  1.
         24    2    1    2    0    0  0.57892402160E+02  0.85210478240E+02 -0.38761335077E+03  0.40894484896E+03  0.79871296235E+02 0.  0.
        254    2    1    2    0    0 -0.57892402160E+02 -0.85210478240E+02  0.11169394141E+03  0.91706098531E+03  0.90438540368E+03 0.  0.
         23    2    4    4    0    0  0.96436940263E+02  0.38535296208E+03  0.50498683940E+02  0.40993490985E+03  0.87746933893E+02 0.  0.
         23    2    4    4    0    0 -0.15432934242E+03 -0.47056344032E+03  0.61195257472E+02  0.50712607545E+03  0.90468224101E+02 0.  0.
          4    1    3    3  502    0  0.23426107470E+02  0.17835886858E+02 -0.25324010613E+02  0.38835639363E+02  0.00000000000E+00 0. -1.
         -3    1    3    3    0  502  0.34466294690E+02  0.67374591382E+02 -0.36228934016E+03  0.37010920959E+03  0.00000000000E+00 0.  1.
         13    1    5    5    0    0 -0.10330837592E+02  0.48374371077E+02  0.25273497130E+02  0.55547777990E+02  0.00000000000E+00 0.  1.
        -13    1    5    5    0    0  0.10676777786E+03  0.33697859100E+03  0.25225186810E+02  0.35438713186E+03  0.00000000000E+00 0. -1.
          3    1    6    6  503    0 -0.12938161845E+03 -0.36652356352E+03  0.84169737092E+02  0.39769796385E+03  0.00000000000E+00 0. -1.
         -3    1    6    6    0  503 -0.24947723974E+02 -0.10403987680E+03 -0.22974479620E+02  0.10942811160E+03  0.00000000000E+00 0.  1.
<mgrwt>
<rscale>  0 0.12969811E+04</rscale>
<asrwt>0</asrwt>
<pdfrwt beam="1">  1        2 0.80775880E-01 0.12969811E+04</pdfrwt>
<pdfrwt beam="2">  1       -1 0.12322502E+00 0.12969811E+04</pdfrwt>
<totfact> 0.37814806E+01</totfact>
</mgrwt>
</event>
<event>
12    7  0.1729738E-007  0.2136406E+04  0.7818608E-02  0.8545373E-01
          2   -1    0    0  501    0  0.00000000000E+00  0.00000000000E+00  0.13263727103E+04  0.13263727103E+04  0.00000000000E+00 0. -1.
         -1   -1    0    0    0  501 -0.00000000000E+00 -0.00000000000E+00 -0.86028470297E+03  0.86028470297E+03  0.00000000000E+00 0.  1.
         24    2    1    2    0    0  0.79649627216E+03  0.33297184875E+03  0.70974036143E+02  0.87031737151E+03  0.84489346781E+02 0.  0.
        254    2    1    2    0    0 -0.79649627216E+03 -0.33297184875E+03  0.39511397120E+03  0.13163400418E+04  0.91178917066E+03 0.  0.
         23    2    4    4    0    0 -0.82120718004E+03 -0.51058369442E+03  0.49606296715E+03  0.10907017860E+04  0.92059638698E+02 0.  0.
         23    2    4    4    0    0  0.24710907886E+02  0.17761184568E+03 -0.10094899595E+03  0.22563825576E+03  0.92549046382E+02 0.  0.
          4    1    3    3  502    0  0.34993839504E+03  0.12051929398E+03 -0.40879801584E+01  0.37013307354E+03  0.00000000000E+00 0. -1.
         -3    1    3    3    0  502  0.44655787712E+03  0.21245255477E+03  0.75062016301E+02  0.50018429797E+03  0.00000000000E+00 0.  1.
         13    1    5    5    0    0 -0.65419371331E+03 -0.37186832358E+03  0.35711660832E+03  0.83293921540E+03  0.00000000000E+00 0.  1.
        -13    1    5    5    0    0 -0.16701346674E+03 -0.13871537084E+03  0.13894635883E+03  0.25776257062E+03  0.00000000000E+00 0. -1.
          1    1    6    6  503    0  0.23830099711E+02  0.29881937171E+02  0.11572715032E+02  0.39934090130E+02  0.00000000000E+00 0. -1.
         -1    1    6    6    0  503  0.88080817527E+00  0.14772990850E+03 -0.11252171098E+03  0.18570416563E+03  0.00000000000E+00 0.  1.
<mgrwt>
<rscale>  0 0.21364065E+04</rscale>
<asrwt>0</asrwt>
<pdfrwt beam="1">  1        2 0.20405734E+00 0.21364065E+04</pdfrwt>
<pdfrwt beam="2">  1       -1 0.13235149E+00 0.21364065E+04</pdfrwt>
<totfact> 0.80979438E+00</totfact>
</mgrwt>
</event>
<event>
12    7  0.1729738E-007  0.1578415E+04  0.7818608E-02  0.8833919E-01
         -1   -1    0    0    0  501 -0.00000000000E+00  0.00000000000E+00  0.79112274711E+03  0.79112274711E+03  0.00000000000E+00 0.  1.
          2   -1    0    0  501    0  0.00000000000E+00 -0.00000000000E+00 -0.78729726660E+03  0.78729726660E+03  0.00000000000E+00 0. -1.
         24    2    1    2    0    0  0.26231245060E+03  0.30433060259E+03 -0.34427233364E+03  0.53523286940E+03  0.80782717017E+02 0.  0.
        254    2    1    2    0    0 -0.26231245060E+03 -0.30433060259E+03  0.34809781415E+03  0.10431871443E+04  0.89757584215E+03 0.  0.
         23    2    4    4    0    0 -0.46546221420E+03 -0.33907143731E+03 -0.50389818772E+02  0.58547989814E+03  0.92860458959E+02 0.  0.
         23    2    4    4    0    0  0.20314976361E+03  0.34740834729E+02  0.39848763292E+03  0.45770724616E+03  0.90701585154E+02 0.  0.
          4    1    3    3  502    0  0.14947959110E+03  0.17482563445E+03 -0.14392199388E+03  0.27133317331E+03  0.00000000000E+00 0. -1.
         -3    1    3    3    0  502  0.11283285950E+03  0.12950496813E+03 -0.20035033976E+03  0.26389969609E+03  0.00000000000E+00 0.  1.
         13    1    5    5    0    0 -0.40629259728E+03 -0.32712606243E+03 -0.32995569646E+02  0.52266035142E+03  0.00000000000E+00 0.  1.
        -13    1    5    5    0    0 -0.59169616924E+02 -0.11945374881E+02 -0.17394249127E+02  0.62819546725E+02  0.00000000000E+00 0. -1.
          3    1    6    6  503    0  0.93788415907E+01  0.75771241118E+00  0.98616396185E+02  0.99064274056E+02  0.00000000000E+00 0. -1.
         -3    1    6    6    0  503  0.19377092202E+03  0.33983122317E+02  0.29987123673E+03  0.35864297211E+03  0.00000000000E+00 0.  1.
<mgrwt>
<rscale>  0 0.15784154E+04</rscale>
<asrwt>0</asrwt>
<pdfrwt beam="1">  1        2 0.12112266E+00 0.15784154E+04</pdfrwt>
<pdfrwt beam="2">  1       -1 0.12171119E+00 0.15784154E+04</pdfrwt>
<totfact> 0.23076410E+01</totfact>
</mgrwt>
</event>
<event>
12    7  0.1729738E-007  0.1685840E+04  0.7818608E-02  0.8769482E-01
         -1   -1    0    0    0  501 -0.00000000000E+00  0.00000000000E+00  0.32475550471E+03  0.32475550471E+03  0.00000000000E+00 0.  1.
          2   -1    0    0  501    0  0.00000000000E+00 -0.00000000000E+00 -0.21878428708E+04  0.21878428708E+04  0.00000000000E+00 0. -1.
         24    2    1    2    0    0 -0.43140569663E+03  0.86194086458E+02 -0.54852525041E+02  0.45040152566E+03  0.79450860248E+02 0.  0.
        254    2    1    2    0    0  0.43140569663E+03 -0.86194086458E+02 -0.18082348410E+04  0.20621968498E+04  0.88848315204E+03 0.  0.
         23    2    4    4    0    0  0.29579005985E+03 -0.73933446665E+02 -0.84921482276E+02  0.33128203080E+03  0.97868338802E+02 0.  0.
         23    2    4    4    0    0  0.13561563678E+03 -0.12260639793E+02 -0.17233133587E+04  0.17309148190E+04  0.87836518656E+02 0.  0.
          4    1    3    3  502    0 -0.46271463892E+02  0.32868921143E+02  0.51491901325E+01  0.56990600162E+02  0.00000000000E+00 0. -1.
         -3    1    3    3    0  502 -0.38513423273E+03  0.53325165315E+02 -0.60001715173E+02  0.39341092550E+03  0.00000000000E+00 0.  1.
         13    1    5    5    0    0  0.15579780968E+02 -0.33641400354E+02 -0.80374118728E+01  0.37935120699E+02  0.00000000000E+00 0. -1.
        -13    1    5    5    0    0  0.28021027888E+03 -0.40292046311E+02 -0.76884070403E+02  0.29334691010E+03  0.00000000000E+00 0.  1.
          1    1    6    6  503    0  0.11394630172E+03  0.27073837742E+02 -0.12355059253E+04  0.12410445777E+04  0.00000000000E+00 0. -1.
         -1    1    6    6    0  503  0.21669335065E+02 -0.39334477535E+02 -0.48780743339E+03  0.48987024126E+03  0.00000000000E+00 0.  1.
<mgrwt>
<rscale>  0 0.16858399E+04</rscale>
<asrwt>0</asrwt>
<pdfrwt beam="1">  1        2 0.33659121E+00 0.16858399E+04</pdfrwt>
<pdfrwt beam="2">  1       -1 0.49962385E-01 0.16858399E+04</pdfrwt>
<totfact> 0.22887781E+01</totfact>
</mgrwt>
</event>
<event>
12    7  0.1729738E-007  0.1405072E+04  0.7818608E-02  0.8950155E-01
          2   -1    0    0  501    0  0.00000000000E+00  0.00000000000E+00  0.36963151804E+03  0.36963151804E+03  0.00000000000E+00 0. -1.
         -1   -1    0    0    0  501 -0.00000000000E+00 -0.00000000000E+00 -0.13352679010E+04  0.13352679010E+04  0.00000000000E+00 0.  1.
         24    2    1    2    0    0 -0.33018007198E+02  0.56033614864E+02 -0.77761677251E+03  0.78440974096E+03  0.79880172914E+02 0.  0.
        254    2    1    2    0    0  0.33018007198E+02 -0.56033614864E+02 -0.18801961041E+03  0.92048967805E+03  0.89873239549E+03 0.  0.
         23    2    4    4    0    0 -0.11765861914E+03 -0.31707932014E+03 -0.40719516381E+03  0.53692070958E+03  0.89961664169E+02 0.  0.
         23    2    4    4    0    0  0.15067662634E+03  0.26104570528E+03  0.21917555341E+03  0.38356896847E+03  0.90768520930E+02 0.  0.
          4    1    3    3  502    0 -0.28646805351E+02  0.34768178230E+02 -0.15498411365E+03  0.16139870247E+03  0.00000000000E+00 0. -1.
         -3    1    3    3    0  502 -0.43712018473E+01  0.21265436635E+02 -0.62263265886E+03  0.62301103849E+03  0.00000000000E+00 0.  1.
         13    1    5    5    0    0 -0.94664616586E+02 -0.30204997025E+03 -0.34109676225E+03  0.46534135361E+03  0.00000000000E+00 0.  1.
        -13    1    5    5    0    0 -0.22994002557E+02 -0.15029349894E+02 -0.66098401562E+02  0.71579355969E+02  0.00000000000E+00 0. -1.
          4    1    6    6  503    0  0.66169905279E+02  0.91130406950E+02  0.13544198275E+03  0.17614692199E+03  0.00000000000E+00 0. -1.
         -4    1    6    6    0  503  0.84506721062E+02  0.16991529833E+03  0.83733570658E+02  0.20742204648E+03  0.00000000000E+00 0.  1.
<mgrwt>
<rscale>  0 0.14050724E+04</rscale>
<asrwt>0</asrwt>
<pdfrwt beam="1">  1        2 0.56866388E-01 0.14050724E+04</pdfrwt>
<pdfrwt beam="2">  1       -1 0.20542583E+00 0.14050724E+04</pdfrwt>
<totfact> 0.13368418E+01</totfact>
</mgrwt>
</event>
<event>
12    7  0.1729738E-007  0.1672210E+04  0.7818608E-02  0.8777375E-01
          2   -1    0    0  501    0  0.00000000000E+00  0.00000000000E+00  0.32856938531E+04  0.32856938531E+04  0.00000000000E+00 0. -1.
         -1   -1    0    0    0  501 -0.00000000000E+00 -0.00000000000E+00 -0.21276220836E+03  0.21276220836E+03  0.00000000000E+00 0.  1.
         24    2    1    2    0    0  0.10795134627E+03 -0.44136145183E+03  0.30947870279E+03  0.55536046311E+03  0.78706747995E+02 0.  0.
        254    2    1    2    0    0 -0.10795134627E+03  0.44136145183E+03  0.27634529419E+04  0.29430955983E+04  0.90481275095E+03 0.  0.
         23    2    4    4    0    0 -0.43299869096E+03  0.36529973072E+03  0.22610074594E+04  0.23326113459E+04  0.89382323817E+02 0.  0.
         23    2    4    4    0    0  0.32504734469E+03  0.76061721113E+02  0.50244548256E+03  0.61048425247E+03  0.93799775397E+02 0.  0.
          2    1    3    3  502    0  0.33935243478E+02 -0.29393924331E+03  0.18926224354E+03  0.35124361395E+03  0.00000000000E+00 0. -1.
         -1    1    3    3    0  502  0.74016102794E+02 -0.14742220852E+03  0.12021645925E+03  0.20411684916E+03  0.00000000000E+00 0.  1.
         13    1    5    5    0    0 -0.13078222616E+03  0.15802458096E+03  0.90518047627E+03  0.92813116179E+03  0.00000000000E+00 0. -1.
        -13    1    5    5    0    0 -0.30221646480E+03  0.20727514976E+03  0.13558269831E+04  0.14044801841E+04  0.00000000000E+00 0.  1.
          4    1    6    6  503    0  0.32067335008E+02  0.31729474366E+02  0.10877128279E+03  0.11775510807E+03  0.00000000000E+00 0. -1.
         -4    1    6    6    0  503  0.29298000968E+03  0.44332246747E+02  0.39367419977E+03  0.49272914440E+03  0.00000000000E+00 0.  1.
<mgrwt>
<rscale>  0 0.16722099E+04</rscale>
<asrwt>0</asrwt>
<pdfrwt beam="1">  1        2 0.50549132E+00 0.16722099E+04</pdfrwt>
<pdfrwt beam="2">  1       -1 0.32732650E-01 0.16722099E+04</pdfrwt>
<totfact> 0.10898566E+01</totfact>
</mgrwt>
</event>
<event>
12    7  0.1729738E-007  0.1880721E+04  0.7818608E-02  0.8664513E-01
         -1   -1    0    0    0  501 -0.00000000000E+00  0.00000000000E+00  0.60915418153E+03  0.60915418153E+03  0.00000000000E+00 0.  1.
          2   -1    0    0  501    0  0.00000000000E+00 -0.00000000000E+00 -0.14516482685E+04  0.14516482685E+04  0.00000000000E+00 0. -1.
         24    2    1    2    0    0 -0.32468187566E+02  0.19306828822E+03  0.43909288529E+03  0.48817805564E+03  0.84768537696E+02 0.  0.
        254    2    1    2    0    0  0.32468187566E+02 -0.19306828822E+03 -0.12815869723E+04  0.15726243944E+04  0.89014199500E+03 0.  0.
         23    2    4    4    0    0 -0.16627948584E+03 -0.48265241346E+03 -0.54517063202E+03  0.75202030509E+03  0.87870937303E+02 0.  0.
         23    2    4    4    0    0  0.19874767341E+03  0.28958412524E+03 -0.73641634029E+03  0.82060408934E+03  0.87877425565E+02 0.  0.
          4    1    3    3  502    0 -0.10137101312E+02 -0.65436950399E+01  0.32779016115E+02  0.34929137769E+02  0.00000000000E+00 0. -1.
         -3    1    3    3    0  502 -0.22331086254E+02  0.19961198326E+03  0.40631386917E+03  0.45324891787E+03  0.00000000000E+00 0.  1.
         13    1    5    5    0    0 -0.15728910283E+03 -0.42121547196E+03 -0.51278611895E+03  0.68199115792E+03  0.00000000000E+00 0. -1.
        -13    1    5    5    0    0 -0.89903830153E+01 -0.61436941498E+02 -0.32384513072E+02  0.70029147177E+02  0.00000000000E+00 0.  1.
          4    1    6    6  503    0  0.55844948182E+02  0.56396106918E+02 -0.98244812790E+02  0.12629814865E+03  0.00000000000E+00 0. -1.
         -4    1    6    6    0  503  0.14290272522E+03  0.23318801833E+03 -0.63817152750E+03  0.69430594069E+03  0.00000000000E+00 0.  1.
<mgrwt>
<rscale>  0 0.18807207E+04</rscale>
<asrwt>0</asrwt>
<pdfrwt beam="1">  1        2 0.22333050E+00 0.18807207E+04</pdfrwt>
<pdfrwt beam="2">  1       -1 0.93716029E-01 0.18807207E+04</pdfrwt>
<totfact> 0.15955449E+01</totfact>
</mgrwt>
</event>
<event>
12    7  0.1729738E-007  0.2222173E+04  0.7818608E-02  0.8509256E-01
         -1   -1    0    0    0  501 -0.00000000000E+00  0.00000000000E+00  0.21539823115E+04  0.21539823115E+04  0.00000000000E+00 0.  1.
          2   -1    0    0  501    0  0.00000000000E+00 -0.00000000000E+00 -0.57313054249E+03  0.57313054249E+03  0.00000000000E+00 0. -1.
         24    2    1    2    0    0 -0.56288763315E+03 -0.53669991851E+03  0.81805140203E+01  0.78206812122E+03  0.81696605408E+02 0.  0.
        254    2    1    2    0    0  0.56288763315E+03  0.53669991851E+03  0.15726712550E+04  0.19450447327E+04  0.83965162187E+03 0.  0.
         23    2    4    4    0    0  0.48174815917E+03  0.53468464349E+03  0.16494452368E+04  0.18023837958E+04  0.99743678964E+02 0.  0.
         23    2    4    4    0    0  0.81139473975E+02  0.20152750174E+01 -0.76773981817E+02  0.14266093691E+03  0.88714277689E+02 0.  0.
          4    1    3    3  502    0 -0.51013037730E+03 -0.50928013375E+03  0.21436518832E+02  0.72115101111E+03  0.00000000000E+00 0. -1.
         -3    1    3    3    0  502 -0.52757255847E+02 -0.27419784756E+02 -0.13256004812E+02  0.60917110110E+02  0.00000000000E+00 0.  1.
         13    1    5    5    0    0  0.12840748010E+03  0.99919265961E+02  0.45110226009E+03  0.47954727579E+03  0.00000000000E+00 0. -1.
        -13    1    5    5    0    0  0.35334067908E+03  0.43476537753E+03  0.11983429767E+04  0.13228365200E+04  0.00000000000E+00 0.  1.
          2    1    6    6  503    0  0.49703108834E+02  0.44347069018E+02 -0.51447845258E+02  0.84166159113E+02  0.00000000000E+00 0. -1.
         -2    1    6    6    0  503  0.31436365142E+02 -0.42331794000E+02 -0.25326136559E+02  0.58494777798E+02  0.00000000000E+00 0.  1.
<mgrwt>
<rscale>  0 0.22221729E+04</rscale>
<asrwt>0</asrwt>
<pdfrwt beam="1">  1        2 0.88173931E-01 0.22221729E+04</pdfrwt>
<pdfrwt beam="2">  1       -1 0.33138189E+00 0.22221729E+04</pdfrwt>
<totfact> 0.11262435E+00</totfact>
</mgrwt>
</event>
<event>
12    7  0.1729738E-007  0.1544396E+04  0.7818608E-02  0.8855456E-01
          2   -1    0    0  501    0  0.00000000000E+00  0.00000000000E+00  0.36421589405E+04  0.36421589405E+04  0.00000000000E+00 0. -1.
         -1   -1    0    0    0  501 -0.00000000000E+00 -0.00000000000E+00 -0.16371865895E+03  0.16371865895E+03  0.00000000000E+00 0.  1.
         24    2    1    2    0    0 -0.31433225392E+03 -0.36362713472E+03  0.83111812763E+03  0.96389991364E+03  0.85535036563E+02 0.  0.
        254    2    1    2    0    0  0.31433225392E+03  0.36362713472E+03  0.26473221539E+04  0.28419776858E+04  0.91514650252E+03 0.  0.
         23    2    4    4    0    0  0.48395957072E+03  0.32977369582E+03  0.86561316577E+03  0.10490160126E+04  0.90448247001E+02 0.  0.
         23    2    4    4    0    0 -0.16962731680E+03  0.33853438896E+02  0.17817089881E+04  0.17929616732E+04  0.10151434013E+03 0.  0.
          2    1    3    3  502    0 -0.25389542169E+02 -0.77425090606E+02  0.14284200399E+03  0.16444789938E+03  0.00000000000E+00 0. -1.
         -1    1    3    3    0  502 -0.28894271175E+03 -0.28620204411E+03  0.68827612365E+03  0.79945201426E+03  0.00000000000E+00 0.  1.
         13    1    5    5    0    0  0.90490130484E+02  0.10799190398E+03  0.20257675631E+03  0.24675505514E+03  0.00000000000E+00 0. -1.
        -13    1    5    5    0    0  0.39346944023E+03  0.22178179184E+03  0.66303640947E+03  0.80226095746E+03  0.00000000000E+00 0.  1.
          2    1    6    6  503    0  0.88914071647E+00 -0.21214962981E+02  0.21030653919E+03  0.21137574518E+03  0.00000000000E+00 0. -1.
         -2    1    6    6    0  503 -0.17051645751E+03  0.55068401877E+02  0.15714024489E+04  0.15815859280E+04  0.00000000000E+00 0.  1.
<mgrwt>
<rscale>  0 0.15443955E+04</rscale>
<asrwt>0</asrwt>
<pdfrwt beam="1">  1        2 0.56033208E+00 0.15443955E+04</pdfrwt>
<pdfrwt beam="2">  1       -1 0.25187489E-01 0.15443955E+04</pdfrwt>
<totfact> 0.99099668E+00</totfact>
</mgrwt>
</event>
<event>
12    7  0.1729738E-007  0.2073461E+04  0.7818608E-02  0.8573025E-01
         -1   -1    0    0    0  501 -0.00000000000E+00  0.00000000000E+00  0.36252081228E+03  0.36252081228E+03  0.00000000000E+00 0.  1.
          2   -1    0    0  501    0  0.00000000000E+00 -0.00000000000E+00 -0.29648228565E+04  0.29648228565E+04  0.00000000000E+00 0. -1.
         24    2    1    2    0    0 -0.11433421642E+03  0.34790342510E+03 -0.22564981787E+04  0.22872810981E+04  0.75905762250E+02 0.  0.
        254    2    1    2    0    0  0.11433421642E+03 -0.34790342510E+03 -0.34580386546E+03  0.10400625707E+04  0.90996743420E+03 0.  0.
         23    2    4    4    0    0 -0.96804014791E+02  0.11883813866E+03  0.21179839818E+03  0.27744097135E+03  0.92851551586E+02 0.  0.
         23    2    4    4    0    0  0.21113823121E+03 -0.46674156376E+03 -0.55760226363E+03  0.76262159933E+03  0.90798564576E+02 0.  0.
          2    1    3    3  502    0 -0.59664236120E+02  0.28221153870E+03 -0.17601746997E+04  0.17836530344E+04  0.00000000000E+00 0. -1.
         -1    1    3    3    0  502 -0.54669980297E+02  0.65691886397E+02 -0.49632347900E+03  0.50362806364E+03  0.00000000000E+00 0.  1.
         13    1    5    5    0    0 -0.73369351330E+01 -0.15835445622E+02  0.23019964584E+02  0.28887899277E+02  0.00000000000E+00 0. -1.
        -13    1    5    5    0    0 -0.89467079658E+02  0.13467358428E+03  0.18877843359E+03  0.24855307207E+03  0.00000000000E+00 0.  1.
          2    1    6    6  503    0  0.13740607521E+03 -0.28042376065E+03 -0.27444930138E+03  0.41574070533E+03  0.00000000000E+00 0. -1.
         -2    1    6    6    0  503  0.73732155994E+02 -0.18631780311E+03 -0.28315296226E+03  0.34688089399E+03  0.00000000000E+00 0.  1.
<mgrwt>
<rscale>  0 0.20734609E+04</rscale>
<asrwt>0</asrwt>
<pdfrwt beam="1">  1        2 0.45612660E+00 0.20734609E+04</pdfrwt>
<pdfrwt beam="2">  1       -1 0.55772432E-01 0.20734609E+04</pdfrwt>
<totfact> 0.62711414E+00</totfact>
</mgrwt>
</event>
<event>
12    7  0.1729738E-007  0.1580147E+04  0.7818608E-02  0.8832838E-01
          2   -1    0    0  501    0  0.00000000000E+00  0.00000000000E+00  0.35717462933E+04  0.35717462933E+04  0.00000000000E+00 0. -1.
         -1   -1    0    0    0  501 -0.00000000000E+00 -0.00000000000E+00 -0.17476488733E+03  0.17476488733E+03  0.00000000000E+00 0.  1.
         24    2    1    2    0    0 -0.41007663436E+03  0.34884613927E+03  0.12146653877E+04  0.13308765137E+04  0.77225744509E+02 0.  0.
        254    2    1    2    0    0  0.41007663436E+03 -0.34884613927E+03  0.21823160183E+04  0.24156346670E+04  0.88483397634E+03 0.  0.
         23    2    4    4    0    0  0.67400420377E+03 -0.26141009778E+03  0.17279590811E+04  0.18753973857E+04  0.93036886947E+02 0.  0.
         23    2    4    4    0    0 -0.26392756941E+03 -0.87436041495E+02  0.45435693712E+03  0.54023728124E+03  0.90073694753E+02 0.  0.
          2    1    3    3  502    0 -0.21655502726E+03  0.17986479183E+03  0.72855647619E+03  0.78105183065E+03  0.00000000000E+00 0. -1.
         -1    1    3    3    0  502 -0.19352160710E+03  0.16898134745E+03  0.48610891155E+03  0.54982468305E+03  0.00000000000E+00 0.  1.
         13    1    5    5    0    0  0.62851274142E+03 -0.25217677415E+03  0.15500203639E+04  0.16915036270E+04  0.00000000000E+00 0. -1.
        -13    1    5    5    0    0  0.45491462343E+02 -0.92333236277E+01  0.17793871725E+03  0.18389375875E+03  0.00000000000E+00 0.  1.
          2    1    6    6  503    0 -0.17428264093E+03 -0.35446702211E+02  0.35304653695E+03  0.39531350202E+03  0.00000000000E+00 0. -1.
         -2    1    6    6    0  503 -0.89644928472E+02 -0.51989339284E+02  0.10131040017E+03  0.14492377922E+03  0.00000000000E+00 0.  1.
<mgrwt>
<rscale>  0 0.15801466E+04</rscale>
<asrwt>0</asrwt>
<pdfrwt beam="1">  1        2 0.54949938E+00 0.15801466E+04</pdfrwt>
<pdfrwt beam="2">  1       -1 0.26886908E-01 0.15801466E+04</pdfrwt>
<totfact> 0.99039697E+00</totfact>
</mgrwt>
</event>
<event>
12    7  0.1729738E-007  0.1937786E+04  0.7818608E-02  0.8636273E-01
          2   -1    0    0  501    0  0.00000000000E+00  0.00000000000E+00  0.37688596891E+04  0.37688596891E+04  0.00000000000E+00 0. -1.
         -1   -1    0    0    0  501 -0.00000000000E+00 -0.00000000000E+00 -0.24908173435E+03  0.24908173435E+03  0.00000000000E+00 0.  1.
         24    2    1    2    0    0 -0.64167974814E+03  0.40880102857E+03  0.13944182375E+04  0.15904843533E+04  0.79793964697E+02 0.  0.
        254    2    1    2    0    0  0.64167974814E+03 -0.40880102857E+03  0.21253597172E+04  0.24274570702E+04  0.89248121532E+03 0.  0.
         23    2    4    4    0    0  0.93475708743E+02 -0.57637672125E+03  0.10248464294E+04  0.11830539902E+04  0.91425965087E+02 0.  0.
         23    2    4    4    0    0  0.54820403940E+03  0.16757569268E+03  0.11005132879E+04  0.12444030799E+04  0.93809631569E+02 0.  0.
          2    1    3    3  502    0 -0.24323647417E+03  0.12380590927E+03  0.55785102869E+03  0.62103917409E+03  0.00000000000E+00 0. -1.
         -1    1    3    3    0  502 -0.39844327397E+03  0.28499511930E+03  0.83656720882E+03  0.96944517920E+03  0.00000000000E+00 0.  1.
         13    1    5    5    0    0  0.58944024539E+02 -0.42956811509E+03  0.67736609015E+03  0.80425616791E+03  0.00000000000E+00 0.  1.
        -13    1    5    5    0    0  0.34531684204E+02 -0.14680860616E+03  0.34748033920E+03  0.37879782232E+03  0.00000000000E+00 0. -1.
          2    1    6    6  503    0  0.12406524443E+03  0.79486419064E+02  0.26121921314E+03  0.29990957472E+03  0.00000000000E+00 0. -1.
         -2    1    6    6    0  503  0.42413879497E+03  0.88089273616E+02  0.83929407473E+03  0.94449350522E+03  0.00000000000E+00 0.  1.
<mgrwt>
<rscale>  0 0.19377865E+04</rscale>
<asrwt>0</asrwt>
<pdfrwt beam="1">  1        2 0.57982452E+00 0.19377865E+04</pdfrwt>
<pdfrwt beam="2">  1       -1 0.38320270E-01 0.19377865E+04</pdfrwt>
<totfact> 0.36633049E+00</totfact>
</mgrwt>
</event>
<event>
12    7  0.1729738E-007  0.1273076E+04  0.7818608E-02  0.9051193E-01
          2   -1    0    0  501    0  0.00000000000E+00  0.00000000000E+00  0.10401749830E+04  0.10401749830E+04  0.00000000000E+00 0. -1.
         -1   -1    0    0    0  501 -0.00000000000E+00 -0.00000000000E+00 -0.38953142399E+03  0.38953142399E+03  0.00000000000E+00 0.  1.
         24    2    1    2    0    0 -0.21497994824E+03 -0.17434311533E+03  0.35724349892E+01  0.28775433247E+03  0.78599577315E+02 0.  0.
        254    2    1    2    0    0  0.21497994824E+03  0.17434311533E+03  0.64707112404E+03  0.11419520745E+04  0.89930061769E+03 0.  0.
         23    2    4    4    0    0  0.51883393609E+03  0.10157713779E+02  0.18688897050E+03  0.55907411223E+03  0.91348471713E+02 0.  0.
         23    2    4    4    0    0 -0.30385398785E+03  0.16418540156E+03  0.46018215353E+03  0.58287796231E+03  0.93247050895E+02 0.  0.
          4    1    3    3  502    0 -0.10372445217E+03 -0.10510315161E+03  0.37576222223E+02  0.15237259246E+03  0.00000000000E+00 0. -1.
         -3    1    3    3    0  502 -0.11125549606E+03 -0.69239963723E+02 -0.34003787233E+02  0.13538174000E+03  0.00000000000E+00 0.  1.
         13    1    5    5    0    0  0.64968718164E+02 -0.14803936997E+02  0.53213717262E+02  0.85274794607E+02  0.00000000000E+00 0. -1.
        -13    1    5    5    0    0  0.45386521792E+03  0.24961650776E+02  0.13367525324E+03  0.47379931762E+03  0.00000000000E+00 0.  1.
          3    1    6    6  503    0 -0.27685028178E+02 -0.11608934493E+02  0.31877591504E+02  0.43788228845E+02  0.00000000000E+00 0. -1.
         -3    1    6    6    0  503 -0.27616895967E+03  0.17579433605E+03  0.42830456203E+03  0.53908973347E+03  0.00000000000E+00 0.  1.
<mgrwt>
<rscale>  0 0.12730763E+04</rscale>
<asrwt>0</asrwt>
<pdfrwt beam="1">  1        2 0.16002692E+00 0.12730763E+04</pdfrwt>
<pdfrwt beam="2">  1       -1 0.59927912E-01 0.12730763E+04</pdfrwt>
<totfact> 0.75086925E+01</totfact>
</mgrwt>
</event>
<event>
12    7  0.1729738E-007  0.1187656E+04  0.7818608E-02  0.9123730E-01
          2   -1    0    0  501    0  0.00000000000E+00  0.00000000000E+00  0.80869502849E+03  0.80869502849E+03  0.00000000000E+00 0. -1.
         -1   -1    0    0    0  501 -0.00000000000E+00 -0.00000000000E+00 -0.43605037411E+03  0.43605037411E+03  0.00000000000E+00 0.  1.
         24    2    1    2    0    0 -0.22692846885E+03  0.48285480473E+02  0.86214870075E+02  0.26049230690E+03  0.81210963153E+02 0.  0.
        254    2    1    2    0    0  0.22692846885E+03 -0.48285480473E+02  0.28642978431E+03  0.98425309569E+03  0.91262485033E+03 0.  0.
         23    2    4    4    0    0  0.50405945220E+03  0.74465235779E+02  0.39329348418E+03  0.65006170948E+03  0.90991531164E+02 0.  0.
         23    2    4    4    0    0 -0.27713098336E+03 -0.12275071625E+03 -0.10686369987E+03  0.33419138620E+03  0.91622660879E+02 0.  0.
          2    1    3    3  502    0 -0.21565635455E+03  0.37028836504E+02  0.55265230063E+02  0.22568350326E+03  0.00000000000E+00 0. -1.
         -1    1    3    3    0  502 -0.11272114298E+02  0.11256643969E+02  0.30949640012E+02  0.34808803643E+02  0.00000000000E+00 0.  1.
         13    1    5    5    0    0  0.23565296412E+03 -0.59916916576E+01  0.20568591653E+03  0.31284967017E+03  0.00000000000E+00 0. -1.
        -13    1    5    5    0    0  0.26840648808E+03  0.80456927436E+02  0.18760756765E+03  0.33721203931E+03  0.00000000000E+00 0.  1.
          2    1    6    6  503    0  0.29065942102E+01 -0.11299290573E+02  0.50104902105E+01  0.12697530055E+02  0.00000000000E+00 0.  1.
         -2    1    6    6    0  503 -0.28003757757E+03 -0.11145142568E+03 -0.11187419009E+03  0.32149385615E+03  0.00000000000E+00 0. -1.
<mgrwt>
<rscale>  0 0.11876561E+04</rscale>
<asrwt>0</asrwt>
<pdfrwt beam="1">  1        2 0.12441462E+00 0.11876561E+04</pdfrwt>
<pdfrwt beam="2">  1       -1 0.67084673E-01 0.11876561E+04</pdfrwt>
<totfact> 0.86175190E+01</totfact>
</mgrwt>
</event>
<event>
12    7  0.1729738E-007  0.2674255E+04  0.7818608E-02  0.8343407E-01
         -1   -1    0    0    0  501 -0.00000000000E+00  0.00000000000E+00  0.10092484261E+04  0.10092484261E+04  0.00000000000E+00 0.  1.
          2   -1    0    0  501    0  0.00000000000E+00 -0.00000000000E+00 -0.17715259619E+04  0.17715259619E+04  0.00000000000E+00 0. -1.
         24    2    1    2    0    0 -0.54647516288E+03  0.26485950995E+03 -0.13816802028E+04  0.15113131011E+04  0.79002804195E+02 0.  0.
        254    2    1    2    0    0  0.54647516288E+03 -0.26485950995E+03  0.61940266702E+03  0.12694612869E+04  0.92686926333E+03 0.  0.
         23    2    4    4    0    0  0.12303714600E+03 -0.13913205641E+03  0.76747917942E+03  0.79497615445E+03  0.92015905644E+02 0.  0.
         23    2    4    4    0    0  0.42343801688E+03 -0.12572745354E+03 -0.14807651239E+03  0.47448513243E+03  0.90013002735E+02 0.  0.
          2    1    3    3  502    0 -0.27620702938E+03  0.17375476695E+03 -0.69697153671E+03  0.76957804355E+03  0.00000000000E+00 0. -1.
         -1    1    3    3    0  502 -0.27026813350E+03  0.91104742997E+02 -0.68470866606E+03  0.74173505753E+03  0.00000000000E+00 0.  1.
         13    1    5    5    0    0  0.52272182183E+02 -0.44126695094E+02  0.13330679367E+03  0.14983406652E+03  0.00000000000E+00 0. -1.
        -13    1    5    5    0    0  0.70764963819E+02 -0.95005361318E+02  0.63417238574E+03  0.64514208793E+03  0.00000000000E+00 0.  1.
          2    1    6    6  503    0  0.40995617737E+02 -0.39709892864E+02 -0.53952085112E+01  0.57329089821E+02  0.00000000000E+00 0. -1.
         -2    1    6    6    0  503  0.38244239914E+03 -0.86017560676E+02 -0.14268130388E+03  0.41715604261E+03  0.00000000000E+00 0.  1.
<mgrwt>
<rscale>  0 0.26742549E+04</rscale>
<asrwt>0</asrwt>
<pdfrwt beam="1">  1        2 0.27254245E+00 0.26742549E+04</pdfrwt>
<pdfrwt beam="2">  1       -1 0.15526899E+00 0.26742549E+04</pdfrwt>
<totfact> 0.28441785E+00</totfact>
</mgrwt>
</event>
<event>
12    7  0.1729738E-007  0.1237721E+04  0.7818608E-02  0.9080465E-01
          2   -1    0    0  501    0  0.00000000000E+00  0.00000000000E+00  0.15020359648E+04  0.15020359648E+04  0.00000000000E+00 0. -1.
         -3   -1    0    0    0  501 -0.00000000000E+00 -0.00000000000E+00 -0.25497960310E+03  0.25497960310E+03  0.00000000000E+00 0.  1.
         24    2    1    2    0    0  0.14839882267E+03 -0.60289481531E+02  0.63505096468E+03  0.66048110511E+03  0.85372889787E+02 0.  0.
        254    2    1    2    0    0 -0.14839882267E+03  0.60289481531E+02  0.61200539698E+03  0.10965344628E+04  0.89564512500E+03 0.  0.
         23    2    4    4    0    0  0.17634283729E+03 -0.32772556677E+03  0.35366187926E+03  0.52107226305E+03  0.89099579671E+02 0.  0.
         23    2    4    4    0    0 -0.32474165997E+03  0.38801504830E+03  0.25834351772E+03  0.57546219971E+03  0.91665406315E+02 0.  0.
          2    1    3    3  502    0  0.94835145890E+02 -0.31697091788E+02  0.52822308732E+03  0.53760398111E+03  0.00000000000E+00 0. -1.
         -1    1    3    3    0  502  0.53563676785E+02 -0.28592389743E+02  0.10682787736E+03  0.12287712400E+03  0.00000000000E+00 0.  1.
         13    1    5    5    0    0  0.16322105573E+03 -0.28533852544E+03  0.34370578714E+03  0.47559736674E+03  0.00000000000E+00 0. -1.
        -13    1    5    5    0    0  0.13121781562E+02 -0.42387041333E+02  0.99560921188E+01  0.45474896312E+02  0.00000000000E+00 0.  1.
          1    1    6    6  503    0 -0.25400021645E+03  0.23676972516E+03  0.17386664693E+03  0.38833699749E+03  0.00000000000E+00 0. -1.
         -1    1    6    6    0  503 -0.70741443515E+02  0.15124532315E+03  0.84476870795E+02  0.18712520221E+03  0.00000000000E+00 0.  1.
<mgrwt>
<rscale>  0 0.12377213E+04</rscale>
<asrwt>0</asrwt>
<pdfrwt beam="1">  1        2 0.23108245E+00 0.12377213E+04</pdfrwt>
<pdfrwt beam="2">  1       -3 0.39227632E-01 0.12377213E+04</pdfrwt>
<totfact> 0.51673892E+01</totfact>
</mgrwt>
</event>
<event>
12    7  0.1729738E-007  0.1805750E+04  0.7818608E-02  0.8703248E-01
         -1   -1    0    0    0  501 -0.00000000000E+00  0.00000000000E+00  0.48768379460E+03  0.48768379460E+03  0.00000000000E+00 0.  1.
          2   -1    0    0  501    0  0.00000000000E+00 -0.00000000000E+00 -0.16715399328E+04  0.16715399328E+04  0.00000000000E+00 0. -1.
         24    2    1    2    0    0 -0.17540871654E+02  0.25001102506E+03  0.30597506758E+03  0.40348832384E+03  0.79805329796E+02 0.  0.
        254    2    1    2    0    0  0.17540871654E+02 -0.25001102506E+03 -0.14898312057E+04  0.17557354035E+04  0.89453708179E+03 0.  0.
         23    2    4    4    0    0 -0.27033124086E+02  0.32792327507E+03 -0.51464994154E+03  0.61756231995E+03  0.90852587037E+02 0.  0.
         23    2    4    4    0    0  0.44573995740E+02 -0.57793430013E+03 -0.97518126420E+03  0.11381730836E+04  0.92003117950E+02 0.  0.
          4    1    3    3  502    0 -0.35805457144E+02  0.18477386472E+03  0.26246903001E+03  0.32297585600E+03  0.00000000000E+00 0. -1.
         -3    1    3    3    0  502  0.18264585490E+02  0.65237160348E+02  0.43506037576E+02  0.80512467848E+02  0.00000000000E+00 0.  1.
         13    1    5    5    0    0 -0.23117739297E+02  0.21898918748E+03 -0.26101548484E+03  0.34149637982E+03  0.00000000000E+00 0. -1.
        -13    1    5    5    0    0 -0.39153847890E+01  0.10893408758E+03 -0.25363445670E+03  0.27606594013E+03  0.00000000000E+00 0.  1.
          4    1    6    6  503    0  0.33926034383E+02 -0.17611033370E+03 -0.23188449477E+03  0.29314884335E+03  0.00000000000E+00 0.  1.
         -4    1    6    6    0  503  0.10647961357E+02 -0.40182396644E+03 -0.74329676943E+03  0.84502424020E+03  0.00000000000E+00 0. -1.
<mgrwt>
<rscale>  0 0.18057496E+04</rscale>
<asrwt>0</asrwt>
<pdfrwt beam="1">  1        2 0.25715999E+00 0.18057496E+04</pdfrwt>
<pdfrwt beam="2">  1       -1 0.75028276E-01 0.18057496E+04</pdfrwt>
<totfact> 0.19532159E+01</totfact>
</mgrwt>
</event>
<event>
12    7  0.1729738E-007  0.1638703E+04  0.7818608E-02  0.8797118E-01
          2   -1    0    0  501    0  0.00000000000E+00  0.00000000000E+00  0.13048323266E+04  0.13048323266E+04  0.00000000000E+00 0. -1.
         -1   -1    0    0    0  501 -0.00000000000E+00 -0.00000000000E+00 -0.51450035764E+03  0.51450035764E+03  0.00000000000E+00 0.  1.
         24    2    1    2    0    0  0.49180537232E+03 -0.27667460775E+03  0.23243059377E+03  0.61461117207E+03  0.72811737331E+02 0.  0.
        254    2    1    2    0    0 -0.49180537232E+03  0.27667460775E+03  0.55790137521E+03  0.12047215122E+04  0.90646489987E+03 0.  0.
         23    2    4    4    0    0  0.22781672001E+03  0.23056876860E+03  0.14135103013E+03  0.36658079138E+03  0.96638232198E+02 0.  0.
         23    2    4    4    0    0 -0.71962209232E+03  0.46105839152E+02  0.41655034508E+03  0.83814072083E+03  0.94783826441E+02 0.  0.
          2    1    3    3  502    0  0.80140671100E+01 -0.81159567905E+01 -0.50443528475E+01  0.12471548497E+02  0.00000000000E+00 0. -1.
         -1    1    3    3    0  502  0.48379130521E+03 -0.26855865096E+03  0.23747494662E+03  0.60213962357E+03  0.00000000000E+00 0.  1.
         13    1    5    5    0    0  0.20978544776E+03  0.21728120779E+03  0.15588111325E+03  0.33988230142E+03  0.00000000000E+00 0. -1.
        -13    1    5    5    0    0  0.18031272249E+02  0.13287560808E+02 -0.14530083112E+02  0.26698489964E+02  0.00000000000E+00 0.  1.
          4    1    6    6  503    0 -0.48682467022E+03  0.22017042483E+02  0.23012054065E+03  0.53892343883E+03  0.00000000000E+00 0. -1.
         -4    1    6    6    0  503 -0.23279742211E+03  0.24088796668E+02  0.18642980443E+03  0.29921728200E+03  0.00000000000E+00 0.  1.
<mgrwt>
<rscale>  0 0.16387028E+04</rscale>
<asrwt>0</asrwt>
<pdfrwt beam="1">  1        2 0.20074343E+00 0.16387028E+04</pdfrwt>
<pdfrwt beam="2">  1       -1 0.79153902E-01 0.16387028E+04</pdfrwt>
<totfact> 0.28565565E+01</totfact>
</mgrwt>
</event>
<event>
12    7  0.1729738E-007  0.1811627E+04  0.7818608E-02  0.8700141E-01
         -1   -1    0    0    0  501 -0.00000000000E+00  0.00000000000E+00  0.70822612038E+03  0.70822612038E+03  0.00000000000E+00 0.  1.
          2   -1    0    0  501    0  0.00000000000E+00 -0.00000000000E+00 -0.11585258317E+04  0.11585258317E+04  0.00000000000E+00 0. -1.
         24    2    1    2    0    0 -0.41246634566E+02  0.22428625352E+03  0.49161529573E+03  0.54776652319E+03  0.79730524621E+02 0.  0.
        254    2    1    2    0    0  0.41246634566E+02 -0.22428625352E+03 -0.94191500703E+03  0.13189854289E+04  0.89471396141E+03 0.  0.
         23    2    4    4    0    0  0.20226377270E+03 -0.16830607863E+03 -0.10577287952E+04  0.10939387649E+04  0.93135639840E+02 0.  0.
         23    2    4    4    0    0 -0.16101713814E+03 -0.55980174890E+02  0.11581378813E+03  0.22504666396E+03  0.90403919631E+02 0.  0.
          2    1    3    3  502    0  0.11674068835E+02  0.12200333817E+03  0.20447133865E+03  0.23838965316E+03  0.00000000000E+00 0. -1.
         -1    1    3    3    0  502 -0.52920703401E+02  0.10228291535E+03  0.28714395708E+03  0.30937687003E+03  0.00000000000E+00 0.  1.
         13    1    5    5    0    0  0.96259315222E+01 -0.34656279365E+02 -0.25975433266E+03  0.26223277750E+03  0.00000000000E+00 0. -1.
        -13    1    5    5    0    0  0.19263784118E+03 -0.13364979926E+03 -0.79797446251E+03  0.83170598742E+03  0.00000000000E+00 0.  1.
          3    1    6    6  503    0 -0.11367241515E+01 -0.25624193255E+02  0.60441669740E+00  0.25656514598E+02  0.00000000000E+00 0. -1.
         -3    1    6    6    0  503 -0.15988041399E+03 -0.30355981635E+02  0.11520937144E+03  0.19939014937E+03  0.00000000000E+00 0.  1.
<mgrwt>
<rscale>  0 0.18116272E+04</rscale>
<asrwt>0</asrwt>
<pdfrwt beam="1">  1        2 0.17823474E+00 0.18116272E+04</pdfrwt>
<pdfrwt beam="2">  1       -1 0.10895787E+00 0.18116272E+04</pdfrwt>
<totfact> 0.16845164E+01</totfact>
</mgrwt>
</event>
<event>
12    7  0.1729738E-007  0.1163815E+04  0.7818608E-02  0.9145133E-01
          2   -1    0    0  501    0  0.00000000000E+00  0.00000000000E+00  0.10167860604E+04  0.10167860604E+04  0.00000000000E+00 0. -1.
         -1   -1    0    0    0  501 -0.00000000000E+00 -0.00000000000E+00 -0.33302587704E+03  0.33302587704E+03  0.00000000000E+00 0.  1.
         24    2    1    2    0    0  0.13992867611E+03  0.16030829680E+03  0.15709367873E+03  0.27634632863E+03  0.80063006615E+02 0.  0.
        254    2    1    2    0    0 -0.13992867611E+03 -0.16030829680E+03  0.52666650459E+03  0.10734656088E+04  0.91086333867E+03 0.  0.
         23    2    4    4    0    0 -0.62340741066E+02  0.18236382214E+03 -0.17975844544E+03  0.27904426642E+03  0.91704265381E+02 0.  0.
         23    2    4    4    0    0 -0.77587935040E+02 -0.34267211895E+03  0.70642495003E+03  0.79442134235E+03  0.92870826408E+02 0.  0.
          2    1    3    3  502    0  0.11965305525E+03  0.15654294067E+03  0.16207714054E+03  0.25513044779E+03  0.00000000000E+00 0. -1.
         -1    1    3    3    0  502  0.20275620859E+02  0.37653561309E+01 -0.49834618117E+01  0.21215880836E+02  0.00000000000E+00 0.  1.
         13    1    5    5    0    0 -0.66919778954E+01  0.14318235166E+03 -0.10330070824E+03  0.17668334590E+03  0.00000000000E+00 0.  1.
        -13    1    5    5    0    0 -0.55648763171E+02  0.39181470485E+02 -0.76457737200E+02  0.10236092052E+03  0.00000000000E+00 0. -1.
          1    1    6    6  503    0 -0.13313294470E+02 -0.49798912901E+02  0.45884320487E+02  0.69011204905E+02  0.00000000000E+00 0. -1.
         -1    1    6    6    0  503 -0.64274640570E+02 -0.29287320604E+03  0.66054062954E+03  0.72541013745E+03  0.00000000000E+00 0.  1.
<mgrwt>
<rscale>  0 0.11638145E+04</rscale>
<asrwt>0</asrwt>
<pdfrwt beam="1">  1        2 0.15642862E+00 0.11638145E+04</pdfrwt>
<pdfrwt beam="2">  1       -1 0.51234751E-01 0.11638145E+04</pdfrwt>
<totfact> 0.10615917E+02</totfact>
</mgrwt>
</event>
<event>
12    7  0.1729738E-007  0.2365531E+04  0.7818608E-02  0.8452522E-01
          2   -1    0    0  501    0  0.00000000000E+00  0.00000000000E+00  0.57169971016E+03  0.57169971016E+03  0.00000000000E+00 0. -1.
         -1   -1    0    0    0  501 -0.00000000000E+00 -0.00000000000E+00 -0.24469732358E+04  0.24469732358E+04  0.00000000000E+00 0.  1.
         24    2    1    2    0    0 -0.70264850148E+03 -0.15396239319E+03 -0.17092486316E+04  0.18561097767E+04  0.78697417529E+02 0.  0.
        254    2    1    2    0    0  0.70264850148E+03  0.15396239319E+03 -0.16602489410E+03  0.11625631693E+04  0.89809215671E+03 0.  0.
         23    2    4    4    0    0  0.73974246005E+03 -0.17977872291E+03 -0.24602885047E+03  0.80550535348E+03  0.93644982831E+02 0.  0.
         23    2    4    4    0    0 -0.37093958568E+02  0.33374111611E+03  0.80003956369E+02  0.35705781580E+03  0.91271881988E+02 0.  0.
          4    1    3    3  502    0 -0.28567460795E+03 -0.39638066787E+02 -0.76573436757E+03  0.81824829950E+03  0.00000000000E+00 0. -1.
         -3    1    3    3    0  502 -0.41697389354E+03 -0.11432432641E+03 -0.94351426401E+03  0.10378614772E+04  0.00000000000E+00 0.  1.
         13    1    5    5    0    0  0.74121092025E+03 -0.18297796424E+03 -0.24537614443E+03  0.80192519349E+03  0.00000000000E+00 0. -1.
        -13    1    5    5    0    0 -0.14684602008E+01  0.31992413225E+01 -0.65270603984E+00  0.35801599930E+01  0.00000000000E+00 0.  1.
          3    1    6    6  503    0 -0.34315035209E+02  0.33426348300E+03  0.65580796280E+02  0.34236010069E+03  0.00000000000E+00 0. -1.
         -3    1    6    6    0  503 -0.27789233592E+01 -0.52236688849E+00  0.14423160089E+02  0.14697715100E+02  0.00000000000E+00 0.  1.
<mgrwt>
<rscale>  0 0.23655307E+04</rscale>
<asrwt>0</asrwt>
<pdfrwt beam="1">  1        2 0.87953802E-01 0.23655307E+04</pdfrwt>
<pdfrwt beam="2">  1       -1 0.37645742E+00 0.23655307E+04</pdfrwt>
<totfact> 0.55967612E-01</totfact>
</mgrwt>
</event>
<event>
12    7  0.1729738E-007  0.2057325E+04  0.7818608E-02  0.8580278E-01
         -1   -1    0    0    0  501 -0.00000000000E+00  0.00000000000E+00  0.15912216539E+04  0.15912216539E+04  0.00000000000E+00 0.  1.
          2   -1    0    0  501    0  0.00000000000E+00 -0.00000000000E+00 -0.66499017190E+03  0.66499017190E+03  0.00000000000E+00 0. -1.
         24    2    1    2    0    0  0.23152658617E+03  0.43383327464E+03 -0.29237060508E+03  0.57685926473E+03  0.73960599646E+02 0.  0.
        254    2    1    2    0    0 -0.23152658617E+03 -0.43383327464E+03  0.12186020871E+04  0.16793525611E+04  0.10456663461E+04 0.  0.
         23    2    4    4    0    0  0.11942332111E+03 -0.44643935780E+03  0.72883285654E+02  0.47762112530E+03  0.96124586791E+02 0.  0.
         23    2    4    4    0    0 -0.35094990728E+03  0.12606083164E+02  0.11457188014E+04  0.12017314358E+04  0.90344457750E+02 0.  0.
          4    1    3    3  502    0  0.15903226954E+03  0.27691623104E+03 -0.22814703375E+03  0.39246010088E+03  0.00000000000E+00 0. -1.
         -3    1    3    3    0  502  0.72494316627E+02  0.15691704360E+03 -0.64223571323E+02  0.18439916385E+03  0.00000000000E+00 0.  1.
         13    1    5    5    0    0  0.10798457380E+03 -0.36418525336E+03  0.95247702045E+02  0.39161676635E+03  0.00000000000E+00 0.  1.
        -13    1    5    5    0    0  0.11438747313E+02 -0.82254104441E+02 -0.22364416391E+02  0.86004358948E+02  0.00000000000E+00 0. -1.
          3    1    6    6  503    0 -0.95883914007E+02 -0.27578881032E+02  0.23967440893E+03  0.25961152120E+03  0.00000000000E+00 0. -1.
         -3    1    6    6    0  503 -0.25506599327E+03  0.40184964195E+02  0.90604439247E+03  0.94211991455E+03  0.00000000000E+00 0.  1.
<mgrwt>
<rscale>  0 0.20573252E+04</rscale>
<asrwt>0</asrwt>
<pdfrwt beam="1">  1        2 0.10230618E+00 0.20573252E+04</pdfrwt>
<pdfrwt beam="2">  1       -1 0.24480333E+00 0.20573252E+04</pdfrwt>
<totfact> 0.34787060E+00</totfact>
</mgrwt>
</event>
<event>
12    7  0.1729738E-007  0.1921000E+04  0.7818608E-02  0.8644473E-01
         -1   -1    0    0    0  501 -0.00000000000E+00  0.00000000000E+00  0.25631899222E+03  0.25631899222E+03  0.00000000000E+00 0.  1.
          2   -1    0    0  501    0  0.00000000000E+00 -0.00000000000E+00 -0.35992658886E+04  0.35992658886E+04  0.00000000000E+00 0. -1.
         24    2    1    2    0    0  0.41434089467E+03 -0.53786331362E+03 -0.19423011953E+04  0.20591142794E+04  0.80264321192E+02 0.  0.
        254    2    1    2    0    0 -0.41434089467E+03  0.53786331362E+03 -0.14006457010E+04  0.17964706014E+04  0.89695201691E+03 0.  0.
         23    2    4    4    0    0 -0.11559003425E+03  0.60313984218E+02  0.10242857470E+03  0.18888081570E+03  0.90473846586E+02 0.  0.
         23    2    4    4    0    0 -0.29875086043E+03  0.47754932940E+03 -0.15030742757E+04  0.16075897857E+04  0.88358372555E+02 0.  0.
          2    1    3    3  502    0  0.30204223118E+03 -0.41453845051E+03 -0.15556089082E+04  0.16379837336E+04  0.00000000000E+00 0. -1.
         -1    1    3    3    0  502  0.11229866349E+03 -0.12332486311E+03 -0.38669228712E+03  0.42113054580E+03  0.00000000000E+00 0.  1.
         13    1    5    5    0    0 -0.12649660236E+03  0.39719681030E+02  0.73038025066E+02  0.15137237719E+03  0.00000000000E+00 0. -1.
        -13    1    5    5    0    0  0.10906568117E+02  0.20594303188E+02  0.29390549635E+02  0.37508438513E+02  0.00000000000E+00 0.  1.
          1    1    6    6  503    0 -0.28379065357E+03  0.45919062934E+03 -0.13716308464E+04  0.14740299684E+04  0.00000000000E+00 0. -1.
         -1    1    6    6    0  503 -0.14960206856E+02  0.18358700057E+02 -0.13144342936E+03  0.13355981723E+03  0.00000000000E+00 0.  1.
<mgrwt>
<rscale>  0 0.19210000E+04</rscale>
<asrwt>0</asrwt>
<pdfrwt beam="1">  1        2 0.55373317E+00 0.19210000E+04</pdfrwt>
<pdfrwt beam="2">  1       -1 0.39433694E-01 0.19210000E+04</pdfrwt>
<totfact> 0.46342034E+00</totfact>
</mgrwt>
</event>
<event>
12    7  0.1729738E-007  0.2312008E+04  0.7818608E-02  0.8473201E-01
         -1   -1    0    0    0  501 -0.00000000000E+00  0.00000000000E+00  0.78441032107E+03  0.78441032107E+03  0.00000000000E+00 0.  1.
          2   -1    0    0  501    0  0.00000000000E+00 -0.00000000000E+00 -0.17036305863E+04  0.17036305863E+04  0.00000000000E+00 0. -1.
         24    2    1    2    0    0 -0.56644393197E+03 -0.58297383728E+03  0.15312416789E+03  0.83130594517E+03  0.83098379442E+02 0.  0.
        254    2    1    2    0    0  0.56644393197E+03  0.58297383728E+03 -0.10723444331E+04  0.16567349622E+04  0.96650448977E+03 0.  0.
         23    2    4    4    0    0 -0.26547588551E+03  0.11171562682E+03 -0.22361275105E+03  0.37500653140E+03  0.87575162556E+02 0.  0.
         23    2    4    4    0    0  0.83191981749E+03  0.47125821045E+03 -0.84873168210E+03  0.12817284308E+04  0.91145041177E+02 0.  0.
          4    1    3    3  502    0 -0.11583143006E+03 -0.10487742250E+03 -0.19472109436E+01  0.15626895268E+03  0.00000000000E+00 0. -1.
         -1    1    3    3    0  502 -0.45061250191E+03 -0.47809641477E+03  0.15507137884E+03  0.67503699249E+03  0.00000000000E+00 0.  1.
         13    1    5    5    0    0 -0.23175275662E+03  0.12399802246E+03 -0.18020372710E+03  0.31868202497E+03  0.00000000000E+00 0. -1.
        -13    1    5    5    0    0 -0.33723128890E+02 -0.12282395641E+02 -0.43409023945E+02  0.56324506431E+02  0.00000000000E+00 0.  1.
          4    1    6    6  503    0  0.36482922002E+02  0.13268491057E+02 -0.60369325570E+02  0.71774033762E+02  0.00000000000E+00 0.  1.
         -4    1    6    6    0  503  0.79543689549E+03  0.45798971940E+03 -0.78836235653E+03  0.12099543971E+04  0.00000000000E+00 0. -1.
<mgrwt>
<rscale>  0 0.23120081E+04</rscale>
<asrwt>0</asrwt>
<pdfrwt beam="1">  1        2 0.26209701E+00 0.23120081E+04</pdfrwt>
<pdfrwt beam="2">  1       -1 0.12067851E+00 0.23120081E+04</pdfrwt>
<totfact> 0.61465611E+00</totfact>
</mgrwt>
</event>
<event>
12    7  0.1729738E-007  0.1749403E+04  0.7818608E-02  0.8733679E-01
          2   -1    0    0  501    0  0.00000000000E+00  0.00000000000E+00  0.80117179522E+03  0.80117179522E+03  0.00000000000E+00 0. -1.
         -1   -1    0    0    0  501 -0.00000000000E+00 -0.00000000000E+00 -0.95497990869E+03  0.95497990869E+03  0.00000000000E+00 0.  1.
         24    2    1    2    0    0  0.40756305126E+03  0.15213760398E+03 -0.51872313784E+03  0.68161186087E+03  0.79167820764E+02 0.  0.
        254    2    1    2    0    0 -0.40756305126E+03 -0.15213760398E+03  0.36491502437E+03  0.10745398430E+04  0.91226060310E+03 0.  0.
         23    2    4    4    0    0 -0.48062417228E+02 -0.61438094886E+02  0.60887686976E+03  0.62128726224E+03  0.95823714375E+02 0.  0.
         23    2    4    4    0    0 -0.35950063403E+03 -0.90699509089E+02 -0.24396184539E+03  0.45325258080E+03  0.91942444908E+02 0.  0.
          4    1    3    3  502    0  0.17411088508E+03  0.10579271135E+03 -0.22416087943E+03  0.30291054446E+03  0.00000000000E+00 0. -1.
         -3    1    3    3    0  502  0.23345216618E+03  0.46344892624E+02 -0.29456225841E+03  0.37870131640E+03  0.00000000000E+00 0.  1.
         13    1    5    5    0    0 -0.46536891135E+02 -0.35200242118E+02  0.57713346253E+03  0.58007566132E+03  0.00000000000E+00 0. -1.
        -13    1    5    5    0    0 -0.15255260931E+01 -0.26237852768E+02  0.31743407228E+02  0.41211600917E+02  0.00000000000E+00 0.  1.
          4    1    6    6  503    0 -0.36111499734E+03 -0.90467368592E+02 -0.24905633449E+03  0.44790338672E+03  0.00000000000E+00 0. -1.
         -4    1    6    6    0  503  0.16143633042E+01 -0.23214049706E+00  0.50944891039E+01  0.53491940812E+01  0.00000000000E+00 0.  1.
<mgrwt>
<rscale>  0 0.17494033E+04</rscale>
<asrwt>0</asrwt>
<pdfrwt beam="1">  1        2 0.12325720E+00 0.17494033E+04</pdfrwt>
<pdfrwt beam="2">  1       -1 0.14691999E+00 0.17494033E+04</pdfrwt>
<totfact> 0.13724112E+01</totfact>
</mgrwt>
</event>
<event>
12    7  0.1729738E-007  0.2700547E+04  0.7818608E-02  0.8334827E-01
         -1   -1    0    0    0  501 -0.00000000000E+00  0.00000000000E+00  0.86483567118E+03  0.86483567118E+03  0.00000000000E+00 0.  1.
          2   -1    0    0  501    0  0.00000000000E+00 -0.00000000000E+00 -0.21081913089E+04  0.21081913089E+04  0.00000000000E+00 0. -1.
         24    2    1    2    0    0 -0.60836392363E+03  0.50924361035E+03  0.42982515059E+03  0.90597865127E+03  0.81313825537E+02 0.  0.
        254    2    1    2    0    0  0.60836392363E+03 -0.50924361035E+03 -0.16731807883E+04  0.20670483288E+04  0.91854184717E+03 0.  0.
         23    2    4    4    0    0 -0.20029844105E+03  0.44077695648E+02 -0.36295110543E+03  0.42817518949E+03  0.97663602323E+02 0.  0.
         23    2    4    4    0    0  0.80866236469E+03 -0.55332130599E+03 -0.13102296829E+04  0.16388731393E+04  0.95415182996E+02 0.  0.
          2    1    3    3  502    0 -0.42590606771E+03  0.31824464403E+03  0.31478503898E+03  0.61787155035E+03  0.00000000000E+00 0. -1.
         -1    1    3    3    0  502 -0.18245785592E+03  0.19099896632E+03  0.11504011161E+03  0.28810710092E+03  0.00000000000E+00 0.  1.
         13    1    5    5    0    0 -0.18756202164E+03  0.23342120487E+02 -0.25439261041E+03  0.31692265110E+03  0.00000000000E+00 0.  1.
        -13    1    5    5    0    0 -0.12736419419E+02  0.20735575161E+02 -0.10855849503E+03  0.11125253839E+03  0.00000000000E+00 0. -1.
          4    1    6    6  503    0  0.73508534571E+03 -0.53317412359E+03 -0.12021094830E+04  0.15065498069E+04  0.00000000000E+00 0. -1.
         -4    1    6    6    0  503  0.73577018982E+02 -0.20147182407E+02 -0.10812019992E+03  0.13232333246E+03  0.00000000000E+00 0.  1.
<mgrwt>
<rscale>  0 0.27005474E+04</rscale>
<asrwt>0</asrwt>
<pdfrwt beam="1">  1        2 0.32433712E+00 0.27005474E+04</pdfrwt>
<pdfrwt beam="2">  1       -1 0.13305164E+00 0.27005474E+04</pdfrwt>
<totfact> 0.27737066E+00</totfact>
</mgrwt>
</event>
<event>
12    7  0.1729738E-007  0.1292234E+04  0.7818608E-02  0.9035746E-01
          2   -1    0    0  501    0  0.00000000000E+00  0.00000000000E+00  0.66874260178E+03  0.66874260178E+03  0.00000000000E+00 0. -1.
         -1   -1    0    0    0  501 -0.00000000000E+00 -0.00000000000E+00 -0.62425712168E+03  0.62425712168E+03  0.00000000000E+00 0.  1.
         24    2    1    2    0    0 -0.23542610498E+02 -0.28216215882E+03  0.27778670917E+02  0.29576144751E+03  0.80829703051E+02 0.  0.
        254    2    1    2    0    0  0.23542610498E+02  0.28216215882E+03  0.16706809180E+02  0.99723827596E+03  0.95605194586E+03 0.  0.
         23    2    4    4    0    0  0.41838293431E+03  0.18851523147E+03 -0.22033668594E+03  0.51793254485E+03  0.95517504285E+02 0.  0.
         23    2    4    4    0    0 -0.39484032381E+03  0.93646927346E+02  0.23704349512E+03  0.47930573111E+03  0.94211129837E+02 0.  0.
          4    1    3    3  502    0 -0.21865391695E+02 -0.17105066636E+02  0.11958931048E+02  0.30227383122E+02  0.00000000000E+00 0. -1.
         -3    1    3    3    0  502 -0.16772188033E+01 -0.26505709218E+03  0.15819739870E+02  0.26553406439E+03  0.00000000000E+00 0.  1.
         13    1    5    5    0    0  0.25750854353E+03  0.92791507289E+02 -0.83891340348E+02  0.28628424826E+03  0.00000000000E+00 0. -1.
        -13    1    5    5    0    0  0.16087439079E+03  0.95723724185E+02 -0.13644534559E+03  0.23164829659E+03  0.00000000000E+00 0.  1.
          1    1    6    6  503    0 -0.28908477190E+03  0.63357482929E+02  0.12192924739E+03  0.32007954848E+03  0.00000000000E+00 0. -1.
         -1    1    6    6    0  503 -0.10575555192E+03  0.30289444417E+02  0.11511424773E+03  0.15922618263E+03  0.00000000000E+00 0.  1.
<mgrwt>
<rscale>  0 0.12922342E+04</rscale>
<asrwt>0</asrwt>
<pdfrwt beam="1">  1        2 0.10288348E+00 0.12922342E+04</pdfrwt>
<pdfrwt beam="2">  1       -1 0.96039557E-01 0.12922342E+04</pdfrwt>
<totfact> 0.50827545E+01</totfact>
</mgrwt>
</event>
<event>
12    7  0.1729738E-007  0.3069224E+04  0.7818608E-02  0.8224235E-01
         -1   -1    0    0    0  501 -0.00000000000E+00  0.00000000000E+00  0.10923180478E+04  0.10923180478E+04  0.00000000000E+00 0.  1.
          2   -1    0    0  501    0  0.00000000000E+00 -0.00000000000E+00 -0.21559968009E+04  0.21559968009E+04  0.00000000000E+00 0. -1.
         24    2    1    2    0    0  0.90010129817E+03 -0.55491978875E+03  0.47680325535E+03  0.11627406782E+04  0.80661153089E+02 0.  0.
        254    2    1    2    0    0 -0.90010129817E+03  0.55491978875E+03 -0.15404820084E+04  0.20855741704E+04  0.92650768111E+03 0.  0.
         23    2    4    4    0    0 -0.10023344457E+03  0.34234079048E+03 -0.10640827699E+04  0.11260025636E+04  0.91464045612E+02 0.  0.
         23    2    4    4    0    0 -0.79986785360E+03  0.21257899827E+03 -0.47639923849E+03  0.95957160686E+03  0.94037335892E+02 0.  0.
          4    1    3    3  502    0  0.11844272027E+03 -0.10400963565E+03  0.58812931390E+02  0.16824281023E+03  0.00000000000E+00 0. -1.
         -3    1    3    3    0  502  0.78165857789E+03 -0.45091015309E+03  0.41799032396E+03  0.99449786802E+03  0.00000000000E+00 0.  1.
         13    1    5    5    0    0 -0.10254629187E+03  0.19261613712E+03 -0.65310044548E+03  0.68859052429E+03  0.00000000000E+00 0.  1.
        -13    1    5    5    0    0  0.23128473001E+01  0.14972465336E+03 -0.41098232446E+03  0.43741203928E+03  0.00000000000E+00 0. -1.
          4    1    6    6  503    0 -0.73726893397E+03  0.21295986980E+03 -0.46053902939E+03  0.89499362273E+03  0.00000000000E+00 0. -1.
         -4    1    6    6    0  503 -0.62598919625E+02 -0.38087152849E+00 -0.15860209097E+02  0.64577984128E+02  0.00000000000E+00 0.  1.
<mgrwt>
<rscale>  0 0.30692241E+04</rscale>
<asrwt>0</asrwt>
<pdfrwt beam="1">  1        2 0.33169182E+00 0.30692241E+04</pdfrwt>
<pdfrwt beam="2">  1       -1 0.16804893E+00 0.30692241E+04</pdfrwt>
<totfact> 0.13457673E+00</totfact>
</mgrwt>
</event>
<event>
12    7  0.1729738E-007  0.2443250E+04  0.7818608E-02  0.8423487E-01
         -1   -1    0    0    0  501 -0.00000000000E+00  0.00000000000E+00  0.57482556773E+03  0.57482556773E+03  0.00000000000E+00 0.  1.
          2   -1    0    0  501    0  0.00000000000E+00 -0.00000000000E+00 -0.25962100463E+04  0.25962100463E+04  0.00000000000E+00 0. -1.
         24    2    1    2    0    0  0.74450423501E+03  0.41348631342E+03 -0.11493330035E+03  0.86326672832E+03  0.82233164646E+02 0.  0.
        254    2    1    2    0    0 -0.74450423501E+03 -0.41348631342E+03 -0.19064511782E+04  0.23077688857E+04  0.98284467114E+03 0.  0.
         23    2    4    4    0    0 -0.93925157202E+03 -0.16120539206E+03 -0.12755592753E+04  0.15949558219E+04  0.93015670107E+02 0.  0.
         23    2    4    4    0    0  0.19474733701E+03 -0.25228092137E+03 -0.63089190288E+03  0.71281306382E+03  0.92226255948E+02 0.  0.
          2    1    3    3  502    0  0.57580130711E+03  0.33955128892E+03 -0.11928563918E+03  0.67902230213E+03  0.00000000000E+00 0. -1.
         -1    1    3    3    0  502  0.16870292790E+03  0.73935024505E+02  0.43523388309E+01  0.18424442619E+03  0.00000000000E+00 0.  1.
         13    1    5    5    0    0 -0.18617207210E+03 -0.66657181680E+02 -0.23822589186E+03  0.30960425684E+03  0.00000000000E+00 0. -1.
        -13    1    5    5    0    0 -0.75307949992E+03 -0.94548210375E+02 -0.10373333834E+04  0.12853515650E+04  0.00000000000E+00 0.  1.
          3    1    6    6  503    0  0.59098735497E+01 -0.22134244513E+02 -0.11594059048E+02  0.25676323544E+02  0.00000000000E+00 0. -1.
         -3    1    6    6    0  503  0.18883746346E+03 -0.23014667685E+03 -0.61929784383E+03  0.68713674028E+03  0.00000000000E+00 0.  1.
<mgrwt>
<rscale>  0 0.24432502E+04</rscale>
<asrwt>0</asrwt>
<pdfrwt beam="1">  1        2 0.39941692E+00 0.24432502E+04</pdfrwt>
<pdfrwt beam="2">  1       -1 0.88434704E-01 0.24432502E+04</pdfrwt>
<totfact> 0.39139951E+00</totfact>
</mgrwt>
</event>
<event>
12    7  0.1729738E-007  0.1422238E+04  0.7818608E-02  0.8937877E-01
         -1   -1    0    0    0  501 -0.00000000000E+00  0.00000000000E+00  0.10483618328E+04  0.10483618328E+04  0.00000000000E+00 0.  1.
          2   -1    0    0  501    0  0.00000000000E+00 -0.00000000000E+00 -0.48236238398E+03  0.48236238398E+03  0.00000000000E+00 0. -1.
         24    2    1    2    0    0 -0.44017634634E+02  0.23265189330E+03  0.47060834024E+03  0.53290574460E+03  0.80323515335E+02 0.  0.
        254    2    1    2    0    0  0.44017634634E+02 -0.23265189330E+03  0.95391108561E+02  0.99781847216E+03  0.96461276384E+03 0.  0.
         23    2    4    4    0    0  0.11919785196E+03  0.32411267390E+03  0.21313648929E+03  0.41643586753E+03  0.93458629384E+02 0.  0.
         23    2    4    4    0    0 -0.75180217322E+02 -0.55676456720E+03 -0.11774538073E+03  0.58138260462E+03  0.92211224424E+02 0.  0.
          4    1    3    3  502    0 -0.28790108125E+01  0.75081021193E+02  0.80223081625E+02  0.10991447253E+03  0.00000000000E+00 0. -1.
         -3    1    3    3    0  502 -0.41138623822E+02  0.15757087210E+03  0.39038525861E+03  0.42299127207E+03  0.00000000000E+00 0.  1.
         13    1    5    5    0    0  0.92260124285E+02  0.24125518876E+03  0.20340085464E+03  0.32876724944E+03  0.00000000000E+00 0. -1.
        -13    1    5    5    0    0  0.26937727671E+02  0.82857485144E+02  0.97356346517E+01  0.87668618094E+02  0.00000000000E+00 0.  1.
          4    1    6    6  503    0 -0.34357119841E+02 -0.48567533596E+02 -0.11298208307E+02  0.60554657247E+02  0.00000000000E+00 0. -1.
         -4    1    6    6    0  503 -0.40823097482E+02 -0.50819703360E+03 -0.10644717243E+03  0.52082794738E+03  0.00000000000E+00 0.  1.
<mgrwt>
<rscale>  0 0.14222381E+04</rscale>
<asrwt>0</asrwt>
<pdfrwt beam="1">  1        2 0.74209598E-01 0.14222381E+04</pdfrwt>
<pdfrwt beam="2">  1       -1 0.16128644E+00 0.14222381E+04</pdfrwt>
<totfact> 0.20386546E+01</totfact>
</mgrwt>
</event>
<event>
12    7  0.1729738E-007  0.1318461E+04  0.7818608E-02  0.9015052E-01
         -3   -1    0    0    0  501 -0.00000000000E+00  0.00000000000E+00  0.35411974010E+03  0.35411974010E+03  0.00000000000E+00 0.  1.
          4   -1    0    0  501    0  0.00000000000E+00 -0.00000000000E+00 -0.12272255004E+04  0.12272255004E+04  0.00000000000E+00 0. -1.
         24    2    1    2    0    0  0.29543493022E+03  0.17336795483E+03 -0.26844524059E+03  0.44261162542E+03  0.80647120251E+02 0.  0.
        254    2    1    2    0    0 -0.29543493022E+03 -0.17336795483E+03 -0.60466051975E+03  0.11387336151E+04  0.90208738841E+03 0.  0.
         23    2    4    4    0    0 -0.60484851044E+03 -0.60676713237E+02 -0.45951589249E+03  0.76754935692E+03  0.91944416588E+02 0.  0.
         23    2    4    4    0    0  0.30941358023E+03 -0.11269124159E+03 -0.14514462726E+03  0.37118425821E+03  0.90965439387E+02 0.  0.
          4    1    3    3  502    0  0.14789025076E+03  0.46689725600E+02 -0.14473743014E+03  0.21213293104E+03  0.00000000000E+00 0. -1.
         -3    1    3    3    0  502  0.14754467946E+03  0.12667822923E+03 -0.12370781044E+03  0.23047869438E+03  0.00000000000E+00 0.  1.
         13    1    5    5    0    0 -0.20259285219E+03 -0.45547087758E+02 -0.20195464960E+03  0.28966201245E+03  0.00000000000E+00 0. -1.
        -13    1    5    5    0    0 -0.40225565826E+03 -0.15129625479E+02 -0.25756124289E+03  0.47788734447E+03  0.00000000000E+00 0.  1.
          4    1    6    6  503    0  0.67555919541E+02  0.59941037405E+01 -0.63323486336E+01  0.68116298959E+02  0.00000000000E+00 0. -1.
         -4    1    6    6    0  503  0.24185766069E+03 -0.11868534533E+03 -0.13881227863E+03  0.30306795925E+03  0.00000000000E+00 0.  1.
<mgrwt>
<rscale>  0 0.13184609E+04</rscale>
<asrwt>0</asrwt>
<pdfrwt beam="1">  1        4 0.18880393E+00 0.13184609E+04</pdfrwt>
<pdfrwt beam="2">  1       -3 0.54479959E-01 0.13184609E+04</pdfrwt>
<totfact> 0.11633793E+00</totfact>
</mgrwt>
</event>
<event>
12    7  0.1729738E-007  0.1929008E+04  0.7818608E-02  0.8640551E-01
         -1   -1    0    0    0  501 -0.00000000000E+00  0.00000000000E+00  0.14049049691E+04  0.14049049691E+04  0.00000000000E+00 0.  1.
          2   -1    0    0  501    0  0.00000000000E+00 -0.00000000000E+00 -0.66215708299E+03  0.66215708299E+03  0.00000000000E+00 0. -1.
         24    2    1    2    0    0 -0.29398913070E+03 -0.66096804560E+03  0.12171365085E+03  0.73791779611E+03  0.80000592082E+02 0.  0.
        254    2    1    2    0    0  0.29398913070E+03  0.66096804560E+03  0.62103423530E+03  0.13291442560E+04  0.92608453482E+03 0.  0.
         23    2    4    4    0    0  0.51036916561E+03  0.75721351887E+03  0.52667727491E+03  0.10579026921E+04  0.88995256341E+02 0.  0.
         23    2    4    4    0    0 -0.21638003490E+03 -0.96245473266E+02  0.94356960384E+02  0.27124156394E+03  0.92656566992E+02 0.  0.
          2    1    3    3  502    0 -0.14434659420E+03 -0.35806840034E+03  0.26833405732E+02  0.38699993571E+03  0.00000000000E+00 0. -1.
         -1    1    3    3    0  502 -0.14964253651E+03 -0.30289964526E+03  0.94880245119E+02  0.35091786040E+03  0.00000000000E+00 0.  1.
         13    1    5    5    0    0  0.34804359236E+03  0.43875321502E+03  0.32083708926E+03  0.64542634259E+03  0.00000000000E+00 0. -1.
        -13    1    5    5    0    0  0.16232557325E+03  0.31846030385E+03  0.20584018565E+03  0.41247634949E+03  0.00000000000E+00 0.  1.
          2    1    6    6  503    0 -0.20772582866E+03 -0.66207772589E+02  0.99340628710E+02  0.23958724832E+03  0.00000000000E+00 0. -1.
         -2    1    6    6    0  503 -0.86542062460E+01 -0.30037700678E+02 -0.49836683252E+01  0.31654315626E+02  0.00000000000E+00 0.  1.
<mgrwt>
<rscale>  0 0.19290078E+04</rscale>
<asrwt>0</asrwt>
<pdfrwt beam="1">  1        2 0.10187032E+00 0.19290078E+04</pdfrwt>
<pdfrwt beam="2">  1       -1 0.21613923E+00 0.19290078E+04</pdfrwt>
<totfact> 0.54758665E+00</totfact>
</mgrwt>
</event>
<event>
12    7  0.1729738E-007  0.1678092E+04  0.7818608E-02  0.8773959E-01
         -1   -1    0    0    0  501 -0.00000000000E+00  0.00000000000E+00  0.56422351676E+03  0.56422351676E+03  0.00000000000E+00 0.  1.
          2   -1    0    0  501    0  0.00000000000E+00 -0.00000000000E+00 -0.12477299800E+04  0.12477299800E+04  0.00000000000E+00 0. -1.
         24    2    1    2    0    0  0.29606046539E+03  0.84593034137E+02 -0.79723063809E+03  0.85819780884E+03  0.78224089570E+02 0.  0.
        254    2    1    2    0    0 -0.29606046539E+03 -0.84593034137E+02  0.11372417488E+03  0.95375568789E+03  0.89549368710E+03 0.  0.
         23    2    4    4    0    0 -0.52236709532E+03 -0.67353709879E+02 -0.18694428764E+03  0.56637279775E+03  0.91793653622E+02 0.  0.
         23    2    4    4    0    0  0.22630662993E+03 -0.17239324258E+02  0.30066846253E+03  0.38738289014E+03  0.90288948198E+02 0.  0.
          4    1    3    3  502    0  0.18131335059E+03  0.68222503270E+02 -0.40067430339E+03  0.44504914161E+03  0.00000000000E+00 0. -1.
         -3    1    3    3    0  502  0.11474711480E+03  0.16370530866E+02 -0.39655633471E+03  0.41314866723E+03  0.00000000000E+00 0.  1.
         13    1    5    5    0    0 -0.46311848323E+03 -0.88921044828E+02 -0.16522880824E+03  0.49968614229E+03  0.00000000000E+00 0.  1.
        -13    1    5    5    0    0 -0.59248612088E+02  0.21567334950E+02 -0.21715479409E+02  0.66686655466E+02  0.00000000000E+00 0. -1.
          1    1    6    6  503    0 -0.57104172698E+01 -0.10728478947E+02  0.15058151214E+02  0.19350892586E+02  0.00000000000E+00 0. -1.
         -1    1    6    6    0  503  0.23201704720E+03 -0.65108453114E+01  0.28561031131E+03  0.36803199756E+03  0.00000000000E+00 0.  1.
<mgrwt>
<rscale>  0 0.16780925E+04</rscale>
<asrwt>0</asrwt>
<pdfrwt beam="1">  1        2 0.19195845E+00 0.16780925E+04</pdfrwt>
<pdfrwt beam="2">  1       -1 0.86803620E-01 0.16780925E+04</pdfrwt>
<totfact> 0.25220288E+01</totfact>
</mgrwt>
</event>
<event>
12    7  0.1729738E-007  0.2134891E+04  0.7818608E-02  0.8546028E-01
         -1   -1    0    0    0  501 -0.00000000000E+00  0.00000000000E+00  0.10238766012E+04  0.10238766012E+04  0.00000000000E+00 0.  1.
          2   -1    0    0  501    0  0.00000000000E+00 -0.00000000000E+00 -0.11128679362E+04  0.11128679362E+04  0.00000000000E+00 0. -1.
         24    2    1    2    0    0  0.52269099302E+02  0.87138581051E+03  0.20909805673E+02  0.87691176521E+03  0.80571300616E+02 0.  0.
        254    2    1    2    0    0 -0.52269099302E+02 -0.87138581051E+03 -0.10990114070E+03  0.12598327722E+04  0.90169566022E+03 0.  0.
         23    2    4    4    0    0  0.15248410151E+03 -0.55057131001E+03  0.33406796683E+03  0.66799116962E+03  0.90722806444E+02 0.  0.
         23    2    4    4    0    0 -0.20475320081E+03 -0.32081450050E+03 -0.44396910753E+03  0.59184160257E+03  0.91225528884E+02 0.  0.
          2    1    3    3  502    0  0.15958370191E+02  0.56669270528E+02 -0.14448164779E+02  0.60620337073E+02  0.00000000000E+00 0. -1.
         -1    1    3    3    0  502  0.36310729111E+02  0.81471653998E+03  0.35357970452E+02  0.81629142813E+03  0.00000000000E+00 0.  1.
         13    1    5    5    0    0  0.31267688426E+01 -0.13248333205E+03  0.54199124262E+02  0.14317525982E+03  0.00000000000E+00 0.  1.
        -13    1    5    5    0    0  0.14935733267E+03 -0.41808797796E+03  0.27986884257E+03  0.52481590980E+03  0.00000000000E+00 0. -1.
          2    1    6    6  503    0 -0.20529189615E+03 -0.28392344641E+03 -0.37233104946E+03  0.51126088882E+03  0.00000000000E+00 0. -1.
         -2    1    6    6    0  503  0.53869533800E+00 -0.36891054087E+02 -0.71638058070E+02  0.80580713749E+02  0.00000000000E+00 0.  1.
<mgrwt>
<rscale>  0 0.21348906E+04</rscale>
<asrwt>0</asrwt>
<pdfrwt beam="1">  1        2 0.17121045E+00 0.21348906E+04</pdfrwt>
<pdfrwt beam="2">  1       -1 0.15751948E+00 0.21348906E+04</pdfrwt>
<totfact> 0.68420237E+00</totfact>
</mgrwt>
</event>
<event>
12    7  0.1729738E-007  0.2427109E+04  0.7818608E-02  0.8429424E-01
          4   -1    0    0  501    0  0.00000000000E+00  0.00000000000E+00  0.89057200344E+03  0.89057200344E+03  0.00000000000E+00 0. -1.
         -3   -1    0    0    0  501 -0.00000000000E+00 -0.00000000000E+00 -0.16536727235E+04  0.16536727235E+04  0.00000000000E+00 0.  1.
         24    2    1    2    0    0  0.67604079589E+03 -0.21376661848E+03 -0.11365039266E+04  0.13418937913E+04  0.79438322982E+02 0.  0.
        254    2    1    2    0    0 -0.67604079589E+03  0.21376661848E+03  0.37340320656E+03  0.12023509356E+04  0.89637631201E+03 0.  0.
         23    2    4    4    0    0 -0.53545183231E+03  0.23682278273E+03 -0.18284322070E+03  0.62050813505E+03  0.93834999701E+02 0.  0.
         23    2    4    4    0    0 -0.14058896359E+03 -0.23056164247E+02  0.55624642726E+03  0.58184280053E+03  0.93989963830E+02 0.  0.
          2    1    3    3  502    0  0.37854307449E+03 -0.10752723449E+03 -0.55874184857E+03  0.68341013948E+03  0.00000000000E+00 0. -1.
         -1    1    3    3    0  502  0.29749772140E+03 -0.10623938399E+03 -0.57776207802E+03  0.65848365184E+03  0.00000000000E+00 0.  1.
         13    1    5    5    0    0 -0.47220431652E+03  0.23987028656E+03 -0.16311288680E+03  0.55418452230E+03  0.00000000000E+00 0.  1.
        -13    1    5    5    0    0 -0.63247515788E+02 -0.30475038318E+01 -0.19730333896E+02  0.66323612753E+02  0.00000000000E+00 0. -1.
          4    1    6    6  503    0 -0.54385940431E+01  0.12308362686E+02  0.17992836763E+03  0.18043084984E+03  0.00000000000E+00 0. -1.
         -4    1    6    6    0  503 -0.13515036954E+03 -0.35364526933E+02  0.37631805963E+03  0.40141195069E+03  0.00000000000E+00 0.  1.
<mgrwt>
<rscale>  0 0.24271091E+04</rscale>
<asrwt>0</asrwt>
<pdfrwt beam="1">  1        4 0.13701108E+00 0.24271091E+04</pdfrwt>
<pdfrwt beam="2">  1       -3 0.25441119E+00 0.24271091E+04</pdfrwt>
<totfact> 0.53389824E-02</totfact>
</mgrwt>
</event>
<event>
12    7  0.1729738E-007  0.1257720E+04  0.7818608E-02  0.9063782E-01
         -1   -1    0    0    0  501 -0.00000000000E+00  0.00000000000E+00  0.15996205900E+03  0.15996205900E+03  0.00000000000E+00 0.  1.
          2   -1    0    0  501    0  0.00000000000E+00 -0.00000000000E+00 -0.24722417465E+04  0.24722417465E+04  0.00000000000E+00 0. -1.
         24    2    1    2    0    0 -0.17051672103E+03  0.24896278062E+03 -0.52390785558E+03  0.60936053978E+03  0.76042146361E+02 0.  0.
        254    2    1    2    0    0  0.17051672103E+03 -0.24896278062E+03 -0.17883718319E+04  0.20228432657E+04  0.89585861057E+03 0.  0.
         23    2    4    4    0    0  0.14617537006E+03 -0.28203750946E+03 -0.18668470680E+04  0.18956350976E+04  0.86035181817E+02 0.  0.
         23    2    4    4    0    0  0.24341350963E+02  0.33074728834E+02  0.78475236106E+02  0.12720816805E+03  0.91307810639E+02 0.  0.
          2    1    3    3  502    0 -0.16204304829E+03  0.22562224006E+03 -0.51039511732E+03  0.58109080227E+03  0.00000000000E+00 0. -1.
         -1    1    3    3    0  502 -0.84736727391E+01  0.23340540563E+02 -0.13512738262E+02  0.28269737509E+02  0.00000000000E+00 0.  1.
         13    1    5    5    0    0  0.10073649116E+03 -0.18757821801E+03 -0.14627395678E+04  0.14781544141E+04  0.00000000000E+00 0. -1.
        -13    1    5    5    0    0  0.45438878906E+02 -0.94459291442E+02 -0.40410750019E+03  0.41748068358E+03  0.00000000000E+00 0.  1.
          1    1    6    6  503    0  0.33914973055E+02 -0.87988689902E+01  0.76577050625E+02  0.84212173557E+02  0.00000000000E+00 0. -1.
         -1    1    6    6    0  503 -0.95736220922E+01  0.41873597824E+02  0.18981854814E+01  0.42995994497E+02  0.00000000000E+00 0.  1.
<mgrwt>
<rscale>  0 0.12577200E+04</rscale>
<asrwt>0</asrwt>
<pdfrwt beam="1">  1        2 0.38034483E+00 0.12577200E+04</pdfrwt>
<pdfrwt beam="2">  1       -1 0.24609551E-01 0.12577200E+04</pdfrwt>
<totfact> 0.58498524E+01</totfact>
</mgrwt>
</event>
<event>
12    7  0.1729738E-007  0.1180071E+04  0.7818608E-02  0.9130482E-01
          2   -1    0    0  501    0  0.00000000000E+00  0.00000000000E+00  0.37092283106E+04  0.37092283106E+04  0.00000000000E+00 0. -1.
         -1   -1    0    0    0  501 -0.00000000000E+00 -0.00000000000E+00 -0.93858251104E+02  0.93858251104E+02  0.00000000000E+00 0.  1.
         24    2    1    2    0    0 -0.30844395808E+02  0.25384080446E+02  0.14974301679E+04  0.15000503055E+04  0.79108046543E+02 0.  0.
        254    2    1    2    0    0  0.30844395808E+02 -0.25384080446E+02  0.21179398916E+04  0.23030362562E+04  0.90372057886E+03 0.  0.
         23    2    4    4    0    0  0.23530272801E+03  0.36619456835E+03  0.12223154028E+04  0.13007541279E+04  0.91872312740E+02 0.  0.
         23    2    4    4    0    0 -0.20445833220E+03 -0.39157864880E+03  0.89562448887E+03  0.10022821283E+04  0.85376763881E+02 0.  0.
          2    1    3    3  502    0  0.67619396621E+01  0.12102342501E+01  0.11142278729E+04  0.11142490482E+04  0.00000000000E+00 0. -1.
         -1    1    3    3    0  502 -0.37606335470E+02  0.24173846196E+02  0.38320229495E+03  0.38580125734E+03  0.00000000000E+00 0.  1.
         13    1    5    5    0    0  0.34223510393E+02  0.45252095164E+02  0.86384461598E+02  0.10335025876E+03  0.00000000000E+00 0.  1.
        -13    1    5    5    0    0  0.20107921761E+03  0.32094247319E+03  0.11359309412E+04  0.11974038692E+04  0.00000000000E+00 0. -1.
          3    1    6    6  503    0 -0.20991627207E+03 -0.37075800112E+03  0.87068095954E+03  0.96933568488E+03  0.00000000000E+00 0. -1.
         -3    1    6    6    0  503  0.54579398763E+01 -0.20820647675E+02  0.24943529323E+02  0.32946443395E+02  0.00000000000E+00 0.  1.
<mgrwt>
<rscale>  0 0.11800706E+04</rscale>
<asrwt>0</asrwt>
<pdfrwt beam="1">  1        2 0.57065040E+00 0.11800706E+04</pdfrwt>
<pdfrwt beam="2">  1       -1 0.14439734E-01 0.11800706E+04</pdfrwt>
<totfact> 0.23386129E+01</totfact>
</mgrwt>
</event>
<event>
12    7  0.1729738E-007  0.1447621E+04  0.7818608E-02  0.8920051E-01
         -1   -1    0    0    0  501 -0.00000000000E+00  0.00000000000E+00  0.26355128560E+03  0.26355128560E+03  0.00000000000E+00 0.  1.
          2   -1    0    0  501    0  0.00000000000E+00 -0.00000000000E+00 -0.19878550712E+04  0.19878550712E+04  0.00000000000E+00 0. -1.
         24    2    1    2    0    0 -0.81439525936E+02 -0.38668438009E+03 -0.27843827212E+03  0.49366979193E+03  0.10012385280E+03 0.  0.
        254    2    1    2    0    0  0.81439525936E+02  0.38668438009E+03 -0.14458655135E+04  0.17577365649E+04  0.91812501450E+03 0.  0.
         23    2    4    4    0    0  0.42542224152E+02 -0.58510354787E+01 -0.13333001527E+04  0.13374209500E+04  0.95715332334E+02 0.  0.
         23    2    4    4    0    0  0.38897301784E+02  0.39253541556E+03 -0.11256536077E+03  0.42031561487E+03  0.91636254287E+02 0.  0.
          2    1    3    3  502    0 -0.34115443117E+02 -0.92454978343E+02 -0.12283549140E+03  0.15748125103E+03  0.00000000000E+00 0. -1.
         -1    1    3    3    0  502 -0.47324082819E+02 -0.29422940174E+03 -0.15560278072E+03  0.33618854090E+03  0.00000000000E+00 0.  1.
         13    1    5    5    0    0  0.49808772951E+02 -0.13550770525E+02 -0.32569445592E+03  0.32975963347E+03  0.00000000000E+00 0. -1.
        -13    1    5    5    0    0 -0.72665487987E+01  0.76997350467E+01 -0.10076056968E+04  0.10076613166E+04  0.00000000000E+00 0.  1.
          1    1    6    6  503    0  0.46942103535E+01 -0.39906011829E+01 -0.52712695041E+01  0.81084394818E+01  0.00000000000E+00 0. -1.
         -1    1    6    6    0  503  0.34203091430E+02  0.39652601675E+03 -0.10729409127E+03  0.41220717539E+03  0.00000000000E+00 0.  1.
<mgrwt>
<rscale>  0 0.14476212E+04</rscale>
<asrwt>0</asrwt>
<pdfrwt beam="1">  1        2 0.30582386E+00 0.14476212E+04</pdfrwt>
<pdfrwt beam="2">  1       -1 0.40546352E-01 0.14476212E+04</pdfrwt>
<totfact> 0.44565268E+01</totfact>
</mgrwt>
</event>
<event>
12    7  0.1729738E-007  0.2638770E+04  0.7818608E-02  0.8355150E-01
         -1   -1    0    0    0  501 -0.00000000000E+00  0.00000000000E+00  0.33635139950E+03  0.33635139950E+03  0.00000000000E+00 0.  1.
          2   -1    0    0  501    0  0.00000000000E+00 -0.00000000000E+00 -0.51754689508E+04  0.51754689508E+04  0.00000000000E+00 0. -1.
         24    2    1    2    0    0  0.17863743592E+03 -0.95554909728E+03 -0.35174085162E+04  0.36501972186E+04  0.82411491476E+02 0.  0.
        254    2    1    2    0    0 -0.17863743592E+03  0.95554909728E+03 -0.13217090351E+04  0.18616231317E+04  0.87962520439E+03 0.  0.
         23    2    4    4    0    0 -0.15479023267E+03  0.11052506821E+04 -0.12236397746E+04  0.16586842128E+04  0.91651149629E+02 0.  0.
         23    2    4    4    0    0 -0.23847203257E+02 -0.14970158487E+03 -0.98069260456E+02  0.20293891889E+03  0.92668070758E+02 0.  0.
          4    1    3    3  502    0  0.14612942761E+03 -0.87845556161E+03 -0.31562747651E+04  0.32794981897E+04  0.00000000000E+00 0. -1.
         -3    1    3    3    0  502  0.32508008309E+02 -0.77093535670E+02 -0.36113375111E+03  0.37069902892E+03  0.00000000000E+00 0.  1.
         13    1    5    5    0    0 -0.16274496144E+03  0.91418517154E+03 -0.10128253453E+04  0.13740580885E+04  0.00000000000E+00 0. -1.
        -13    1    5    5    0    0  0.79547287737E+01  0.19106551061E+03 -0.21081442929E+03  0.28462612433E+03  0.00000000000E+00 0.  1.
          1    1    6    6  503    0  0.23271673654E+02 -0.88247830632E+02 -0.20926587439E+02  0.93633180378E+02  0.00000000000E+00 0. -1.
         -1    1    6    6    0  503 -0.47118876910E+02 -0.61453754235E+02 -0.77142673017E+02  0.10930573851E+03  0.00000000000E+00 0.  1.
<mgrwt>
<rscale>  0 0.26387696E+04</rscale>
<asrwt>0</asrwt>
<pdfrwt beam="1">  1        2 0.79622584E+00 0.26387696E+04</pdfrwt>
<pdfrwt beam="2">  1       -1 0.51746379E-01 0.26387696E+04</pdfrwt>
<totfact> 0.75923167E-02</totfact>
</mgrwt>
</event>
<event>
12    7  0.1729738E-007  0.3475357E+04  0.7818608E-02  0.8119655E-01
         -1   -1    0    0    0  501 -0.00000000000E+00  0.00000000000E+00  0.16610550915E+04  0.16610550915E+04  0.00000000000E+00 0.  1.
          2   -1    0    0  501    0  0.00000000000E+00 -0.00000000000E+00 -0.18178367307E+04  0.18178367307E+04  0.00000000000E+00 0. -1.
         24    2    1    2    0    0  0.14874817316E+04  0.64571811513E+03 -0.83488637813E+02  0.16257979851E+04  0.81822672897E+02 0.  0.
        254    2    1    2    0    0 -0.14874817316E+04 -0.64571811513E+03 -0.73293001441E+02  0.18530938370E+04  0.89388540583E+03 0.  0.
         23    2    4    4    0    0 -0.81699233648E+03 -0.49753937936E+03 -0.45321360007E+03  0.10623956459E+04  0.90884703692E+02 0.  0.
         23    2    4    4    0    0 -0.67048939511E+03 -0.14817873577E+03  0.37992059863E+03  0.79069819108E+03  0.96700576143E+02 0.  0.
          2    1    3    3  502    0  0.69402826435E+02  0.46966484241E+02 -0.13709554166E+02  0.84914985924E+02  0.00000000000E+00 0. -1.
         -1    1    3    3    0  502  0.14180789052E+04  0.59875163089E+03 -0.69779083647E+02  0.15408829992E+04  0.00000000000E+00 0.  1.
         13    1    5    5    0    0 -0.63098571778E+03 -0.36949899556E+03 -0.38570453397E+03  0.82670458526E+03  0.00000000000E+00 0. -1.
        -13    1    5    5    0    0 -0.18600661870E+03 -0.12804038380E+03 -0.67509066095E+02  0.23569106069E+03  0.00000000000E+00 0.  1.
          3    1    6    6  503    0 -0.50027214772E+03 -0.15011816666E+03  0.30368126470E+03  0.60417712326E+03  0.00000000000E+00 0. -1.
         -3    1    6    6    0  503 -0.17021724739E+03  0.19394308911E+01  0.76239333925E+02  0.18652106782E+03  0.00000000000E+00 0.  1.
<mgrwt>
<rscale>  0 0.34753572E+04</rscale>
<asrwt>0</asrwt>
<pdfrwt beam="1">  1        2 0.27966719E+00 0.34753572E+04</pdfrwt>
<pdfrwt beam="2">  1       -1 0.25554694E+00 0.34753572E+04</pdfrwt>
<totfact> 0.50685187E-01</totfact>
</mgrwt>
</event>
<event>
12    7  0.1729738E-007  0.1897549E+04  0.7818608E-02  0.8656077E-01
          2   -1    0    0  501    0  0.00000000000E+00  0.00000000000E+00  0.10589856826E+04  0.10589856826E+04  0.00000000000E+00 0. -1.
         -1   -1    0    0    0  501 -0.00000000000E+00 -0.00000000000E+00 -0.85003328535E+03  0.85003328535E+03  0.00000000000E+00 0.  1.
         24    2    1    2    0    0 -0.48513410614E+03  0.28706161063E+03  0.55369354160E+03  0.79382715464E+03  0.76325252649E+02 0.  0.
        254    2    1    2    0    0  0.48513410614E+03 -0.28706161063E+03 -0.34474114434E+03  0.11151918133E+04  0.89835786558E+03 0.  0.
         23    2    4    4    0    0  0.23962264980E+02 -0.35924718376E+03  0.17493073514E+03  0.41058652324E+03  0.91366305530E+02 0.  0.
         23    2    4    4    0    0  0.46117184116E+03  0.72185573137E+02 -0.51967187948E+03  0.70460529007E+03  0.92301291568E+02 0.  0.
          2    1    3    3  502    0 -0.37781303800E+03  0.21142083027E+03  0.46518125830E+03  0.63548018240E+03  0.00000000000E+00 0. -1.
         -1    1    3    3    0  502 -0.10732106814E+03  0.75640780359E+02  0.88512283297E+02  0.15834697223E+03  0.00000000000E+00 0.  1.
         13    1    5    5    0    0  0.19556800596E+02 -0.16229088364E+03  0.12915926351E+03  0.20833366197E+03  0.00000000000E+00 0.  1.
        -13    1    5    5    0    0  0.44054643840E+01 -0.19695630013E+03  0.45771471633E+02  0.20225286127E+03  0.00000000000E+00 0. -1.
          4    1    6    6  503    0  0.40937307872E+03  0.81455976123E+02 -0.42137252871E+03  0.59310724290E+03  0.00000000000E+00 0. -1.
         -4    1    6    6    0  503  0.51798762446E+02 -0.92704029857E+01 -0.98299350768E+02  0.11149804717E+03  0.00000000000E+00 0.  1.
<mgrwt>
<rscale>  0 0.18975490E+04</rscale>
<asrwt>0</asrwt>
<pdfrwt beam="1">  1        2 0.16292087E+00 0.18975490E+04</pdfrwt>
<pdfrwt beam="2">  1       -1 0.13077435E+00 0.18975490E+04</pdfrwt>
<totfact> 0.12334718E+01</totfact>
</mgrwt>
</event>
<event>
12    7  0.1729738E-007  0.1555218E+04  0.7818608E-02  0.8848541E-01
          2   -1    0    0  501    0  0.00000000000E+00  0.00000000000E+00  0.11828364397E+04  0.11828364397E+04  0.00000000000E+00 0. -1.
         -1   -1    0    0    0  501 -0.00000000000E+00 -0.00000000000E+00 -0.51120848169E+03  0.51120848169E+03  0.00000000000E+00 0.  1.
         24    2    1    2    0    0  0.65071512344E+02 -0.49374841378E+03  0.11058338010E+03  0.51639352266E+03  0.80073644003E+02 0.  0.
        254    2    1    2    0    0 -0.65071512344E+02  0.49374841378E+03  0.56104457795E+03  0.11776513988E+04  0.90778301413E+03 0.  0.
         23    2    4    4    0    0 -0.60443719141E+02 -0.24766678116E+03  0.60033972515E+02  0.27727982130E+03  0.91037046158E+02 0.  0.
         23    2    4    4    0    0 -0.46277932033E+01  0.74141519493E+03  0.50101060543E+03  0.90037157746E+03  0.99696755151E+02 0.  0.
          2    1    3    3  502    0  0.48089160526E+02 -0.46554911469E+03  0.87364063561E+02  0.47611030776E+03  0.00000000000E+00 0. -1.
         -1    1    3    3    0  502  0.16982351819E+02 -0.28199299082E+02  0.23219316541E+02  0.40283214899E+02  0.00000000000E+00 0.  1.
         13    1    5    5    0    0  0.19367779483E+02 -0.10875090271E+03  0.22473482744E+02  0.11272500676E+03  0.00000000000E+00 0.  1.
        -13    1    5    5    0    0 -0.79811498624E+02 -0.13891587845E+03  0.37560489770E+02  0.16455481454E+03  0.00000000000E+00 0. -1.
          1    1    6    6  503    0  0.45403711461E+02  0.24744822580E+03  0.17224425050E+03  0.30489375739E+03  0.00000000000E+00 0. -1.
         -1    1    6    6    0  503 -0.50031504664E+02  0.49396696914E+03  0.32876635493E+03  0.59547782007E+03  0.00000000000E+00 0.  1.
<mgrwt>
<rscale>  0 0.15552183E+04</rscale>
<asrwt>0</asrwt>
<pdfrwt beam="1">  1        2 0.18197484E+00 0.15552183E+04</pdfrwt>
<pdfrwt beam="2">  1       -1 0.78647459E-01 0.15552183E+04</pdfrwt>
<totfact> 0.34426478E+01</totfact>
</mgrwt>
</event>
