<event>
12    3  0.1176505E-007  0.1105346E+04  0.7818608E-02  0.9199997E-01
          1   -1    0    0  501    0  0.00000000000E+00  0.00000000000E+00  0.27691870425E+04  0.27691870425E+04  0.00000000000E+00 0. -1.
         -2   -1    0    0    0  501 -0.00000000000E+00 -0.00000000000E+00 -0.50146240909E+03  0.50146240909E+03  0.00000000000E+00 0.  1.
        -24    2    1    2    0    0 -0.10386841599E+03  0.10205946117E+04  0.50858579184E+03  0.11476867884E+04  0.78252458679E+02 0.  0.
    5000000    2    1    2    0    0  0.10386841599E+03 -0.10205946117E+04  0.17591388415E+04  0.21229626632E+04  0.59999916353E+03 0.  0.
        -24    2    4    4    0    0 -0.15722607921E+03 -0.60897630419E+02  0.22003287567E+03  0.28876486919E+03  0.80883384746E+02 0.  0.
         24    2    4    4    0    0  0.26109449521E+03 -0.95969698127E+03  0.15391059659E+04  0.18341977940E+04  0.79030007289E+02 0.  0.
         11    1    5    5    0    0 -0.15319553394E+03 -0.31241822421E+02  0.17472704230E+03  0.23446633532E+03  0.00000000000E+00 0. -1.
        -12    1    5    5    0    0 -0.40305452732E+01 -0.29655807998E+02  0.45305833373E+02  0.54298533874E+02  0.00000000000E+00 0.  1.
         15    1    3    3    0    0  0.45708652007E+01  0.18723319096E+03  0.11412570179E+03  0.21932850736E+03  0.17770000000E+01 0. -1.
        -16    1    3    3    0    0 -0.10843928119E+03  0.83336142073E+03  0.39446009005E+03  0.92835828100E+03  0.00000000000E+00 0.  1.
          4    1    6    6  502    0  0.26402566722E+03 -0.92597564091E+03  0.15002763203E+04  0.17826860289E+04  0.00000000000E+00 0. -1.
         -3    1    6    6    0  502 -0.29311720159E+01 -0.33721340356E+02  0.38829645580E+02  0.51511765070E+02  0.00000000000E+00 0.  1.
<mgrwt>
<rscale>  0 0.11053457E+04</rscale>
<asrwt>0</asrwt>
<pdfrwt beam="1">  1        1 0.42602877E+00 0.11053457E+04</pdfrwt>
<pdfrwt beam="2">  1       -2 0.77148065E-01 0.11053457E+04</pdfrwt>
<totfact> 0.11595007E+00</totfact>
</mgrwt>
</event>
<event>
12    3  0.1176505E-007  0.9197331E+03  0.7818608E-02  0.9401245E-01
          1   -1    0    0  501    0  0.00000000000E+00  0.00000000000E+00  0.11284732172E+04  0.11284732172E+04  0.00000000000E+00 0. -1.
         -2   -1    0    0    0  501 -0.00000000000E+00 -0.00000000000E+00 -0.14611775190E+04  0.14611775190E+04  0.00000000000E+00 0.  1.
        -24    2    1    2    0    0 -0.85803796304E+03  0.19484774827E+03 -0.99883683274E+03  0.13334629835E+04  0.79080458953E+02 0.  0.
    5000000    2    1    2    0    0  0.85803796304E+03 -0.19484774827E+03  0.66613253092E+03  0.12561877526E+04  0.60006693799E+03 0.  0.
        -24    2    4    4    0    0  0.66114104864E+01  0.28905778062E+02  0.27813850506E+03  0.29064893172E+03  0.78971632632E+02 0.  0.
         24    2    4    4    0    0  0.85142655255E+03 -0.22375352633E+03  0.38799402586E+03  0.96553882090E+03  0.82055076798E+02 0.  0.
         11    1    5    5    0    0 -0.58606843988E+01  0.50481480740E+02  0.11652334249E+03  0.12712362827E+03  0.00000000000E+00 0. -1.
        -12    1    5    5    0    0  0.12472094885E+02 -0.21575702678E+02  0.16161516257E+03  0.16352530346E+03  0.00000000000E+00 0.  1.
         15    1    3    3    0    0 -0.25656340750E+03  0.52546733834E+02 -0.24493233164E+03  0.35858185413E+03  0.17770000000E+01 0. -1.
        -16    1    3    3    0    0 -0.60147455554E+03  0.14230101444E+03 -0.75390450110E+03  0.97488112940E+03  0.00000000000E+00 0.  1.
          4    1    6    6  502    0  0.10589473817E+03 -0.19078941941E+01  0.37172618140E+02  0.11224588710E+03  0.00000000000E+00 0. -1.
         -3    1    6    6    0  502  0.74553181438E+03 -0.22184563214E+03  0.35082140772E+03  0.85329293380E+03  0.00000000000E+00 0.  1.
<mgrwt>
<rscale>  0 0.91973313E+03</rscale>
<asrwt>0</asrwt>
<pdfrwt beam="1">  1        1 0.17361126E+00 0.91973313E+03</pdfrwt>
<pdfrwt beam="2">  1       -2 0.22479654E+00 0.91973313E+03</pdfrwt>
<totfact> 0.98555497E-01</totfact>
</mgrwt>
</event>
<event>
12    3  0.1176505E-007  0.1202313E+04  0.7818608E-02  0.9110835E-01
          1   -1    0    0  501    0  0.00000000000E+00  0.00000000000E+00  0.17036627819E+04  0.17036627819E+04  0.00000000000E+00 0. -1.
         -2   -1    0    0    0  501 -0.00000000000E+00 -0.00000000000E+00 -0.88143417489E+03  0.88143417489E+03  0.00000000000E+00 0.  1.
        -24    2    1    2    0    0  0.66471409216E+03  0.93763945869E+03  0.43838378933E+03  0.12328303185E+04  0.81717003156E+02 0.  0.
    5000000    2    1    2    0    0 -0.66471409216E+03 -0.93763945869E+03  0.38384481764E+03  0.13522666383E+04  0.60022965449E+03 0.  0.
        -24    2    4    4    0    0 -0.72560651219E+03 -0.73462038326E+03  0.42969786249E+03  0.11211317654E+04  0.78257679341E+02 0.  0.
         24    2    4    4    0    0  0.60892420031E+02 -0.20301907542E+03 -0.45853044842E+02  0.23113487284E+03  0.79976220961E+02 0.  0.
         11    1    5    5    0    0 -0.66007167367E+03 -0.65362656785E+03  0.40861188861E+03  0.10148329814E+04  0.00000000000E+00 0. -1.
        -12    1    5    5    0    0 -0.65534838525E+02 -0.80993815409E+02  0.21085973877E+02  0.10629878404E+03  0.00000000000E+00 0.  1.
         15    1    3    3    0    0  0.16882756100E+03  0.20733000530E+03  0.70740662246E+02  0.27657887750E+03  0.17770000000E+01 0. -1.
        -16    1    3    3    0    0  0.49588653116E+03  0.73030945338E+03  0.36764312708E+03  0.95625144098E+03  0.00000000000E+00 0.  1.
          2    1    6    6  502    0  0.35922138127E+02 -0.30709860965E+02 -0.30725595167E+02  0.56369830286E+02  0.00000000000E+00 0. -1.
         -1    1    6    6    0  502  0.24970281903E+02 -0.17230921446E+03 -0.15127449675E+02  0.17476504256E+03  0.00000000000E+00 0.  1.
<mgrwt>
<rscale>  0 0.12023126E+04</rscale>
<asrwt>0</asrwt>
<pdfrwt beam="1">  1        1 0.26210197E+00 0.12023126E+04</pdfrwt>
<pdfrwt beam="2">  1       -2 0.13560526E+00 0.12023126E+04</pdfrwt>
<totfact> 0.15842225E+00</totfact>
</mgrwt>
</event>
<event>
12    3  0.1176505E-007  0.9496223E+03  0.7818608E-02  0.9365592E-01
         -2   -1    0    0    0  501 -0.00000000000E+00  0.00000000000E+00  0.73225559188E+03  0.73225559188E+03  0.00000000000E+00 0.  1.
          1   -1    0    0  501    0  0.00000000000E+00 -0.00000000000E+00 -0.12686990892E+04  0.12686990892E+04  0.00000000000E+00 0. -1.
        -24    2    1    2    0    0 -0.48532822632E+03 -0.70855158627E+03 -0.37708526783E+03  0.94117801151E+03  0.77678262553E+02 0.  0.
    5000000    2    1    2    0    0  0.48532822632E+03  0.70855158627E+03 -0.15935822953E+03  0.10597766696E+04  0.60011891027E+03 0.  0.
        -24    2    4    4    0    0  0.39863079428E+03  0.79753945780E+03 -0.10306634466E+03  0.90190407754E+03  0.88501959285E+02 0.  0.
         24    2    4    4    0    0  0.86697432041E+02 -0.88987871528E+02 -0.56291884871E+02  0.15787259207E+03  0.79496496916E+02 0.  0.
         13    1    5    5    0    0  0.32648903385E+03  0.58159895592E+03 -0.98333982280E+02  0.67418247295E+03  0.00000000000E+00 0. -1.
        -14    1    5    5    0    0  0.72141760428E+02  0.21594050187E+03 -0.47323623837E+01  0.22772160460E+03  0.00000000000E+00 0.  1.
         15    1    3    3    0    0 -0.35146627283E+03 -0.44811507363E+03 -0.24775003639E+03  0.62106271698E+03  0.17770000000E+01 0. -1.
        -16    1    3    3    0    0 -0.13386195349E+03 -0.26043651263E+03 -0.12933523144E+03  0.32011529454E+03  0.00000000000E+00 0.  1.
          4    1    6    6  502    0  0.96655971223E+02 -0.65508769977E+02 -0.61307725401E+02  0.13188029766E+03  0.00000000000E+00 0. -1.
         -3    1    6    6    0  502 -0.99585391827E+01 -0.23479101552E+02  0.50158405294E+01  0.25992294407E+02  0.00000000000E+00 0.  1.
<mgrwt>
<rscale>  0 0.94962228E+03</rscale>
<asrwt>0</asrwt>
<pdfrwt beam="1">  1        1 0.19518447E+00 0.94962228E+03</pdfrwt>
<pdfrwt beam="2">  1       -2 0.11265471E+00 0.94962228E+03</pdfrwt>
<totfact> 0.52007281E+00</totfact>
</mgrwt>
</event>
<event>
12    3  0.1176505E-007  0.4508366E+03  0.7818608E-02  0.1027473E+00
         -4   -1    0    0    0  501 -0.00000000000E+00  0.00000000000E+00  0.82759883767E+03  0.82759883767E+03  0.00000000000E+00 0.  1.
          3   -1    0    0  501    0  0.00000000000E+00 -0.00000000000E+00 -0.55575690303E+03  0.55575690303E+03  0.00000000000E+00 0. -1.
        -24    2    1    2    0    0 -0.42784494658E+03  0.98523206457E+01  0.44900137842E+03  0.62534967469E+03  0.79445649804E+02 0.  0.
    5000000    2    1    2    0    0  0.42784494658E+03 -0.98523206457E+01 -0.17715944378E+03  0.75800606601E+03  0.60003279998E+03 0.  0.
        -24    2    4    4    0    0  0.26135956530E+03 -0.69532376056E+02 -0.38295792433E+03  0.47555409644E+03  0.79695377124E+02 0.  0.
         24    2    4    4    0    0  0.16648538128E+03  0.59680055410E+02  0.20579848055E+03  0.28245196958E+03  0.78402865545E+02 0.  0.
         13    1    5    5    0    0  0.24098196599E+03 -0.77609662004E+02 -0.37452690037E+03  0.45206854201E+03  0.00000000000E+00 0. -1.
        -14    1    5    5    0    0  0.20377599307E+02  0.80772859484E+01 -0.84310239587E+01  0.23485554428E+02  0.00000000000E+00 0.  1.
         15    1    3    3    0    0 -0.78605490925E+02 -0.27166280255E+02  0.10227660518E+03  0.13183509276E+03  0.17770000000E+01 0. -1.
        -16    1    3    3    0    0 -0.34923945566E+03  0.37018600900E+02  0.34672477324E+03  0.49351458193E+03  0.00000000000E+00 0.  1.
          4    1    6    6  502    0  0.61347216433E+02  0.61746936384E+02  0.10933807373E+03  0.13975328076E+03  0.00000000000E+00 0. -1.
         -3    1    6    6    0  502  0.10513816485E+03 -0.20668809738E+01  0.96460406817E+02  0.14269868881E+03  0.00000000000E+00 0.  1.
<mgrwt>
<rscale>  0 0.45083656E+03</rscale>
<asrwt>0</asrwt>
<pdfrwt beam="1">  1        3 0.85501062E-01 0.45083656E+03</pdfrwt>
<pdfrwt beam="2">  1       -4 0.12732290E+00 0.45083656E+03</pdfrwt>
<totfact> 0.12949241E+00</totfact>
</mgrwt>
</event>
<event>
12    3  0.1176505E-007  0.9688437E+03  0.7818608E-02  0.9343392E-01
         -2   -1    0    0    0  501 -0.00000000000E+00  0.00000000000E+00  0.14339990307E+04  0.14339990307E+04  0.00000000000E+00 0.  1.
          1   -1    0    0  501    0  0.00000000000E+00 -0.00000000000E+00 -0.87936833405E+03  0.87936833405E+03  0.00000000000E+00 0. -1.
        -24    2    1    2    0    0 -0.87762353488E+03 -0.39281130746E+03 -0.15342416977E+03  0.97695683570E+03  0.79886736778E+02 0.  0.
    5000000    2    1    2    0    0  0.87762353488E+03  0.39281130746E+03  0.70805486640E+03  0.13364105290E+04  0.60010633727E+03 0.  0.
        -24    2    4    4    0    0  0.66177090346E+03  0.31619672986E+03  0.78965450036E+03  0.10805851015E+04  0.78669123664E+02 0.  0.
         24    2    4    4    0    0  0.21585263142E+03  0.76614577596E+02 -0.81599633955E+02  0.25582542753E+03  0.79536137177E+02 0.  0.
         13    1    5    5    0    0  0.50939081545E+03  0.26505626847E+03  0.65345826749E+03  0.86990892378E+03  0.00000000000E+00 0. -1.
        -14    1    5    5    0    0  0.15238008802E+03  0.51140461389E+02  0.13619623287E+03  0.21067617773E+03  0.00000000000E+00 0.  1.
         15    1    3    3    0    0 -0.53696654579E+03 -0.19740186792E+03 -0.89277849878E+02  0.57902872205E+03  0.17770000000E+01 0. -1.
        -16    1    3    3    0    0 -0.34065698909E+03 -0.19540943953E+03 -0.64146319897E+02  0.39792811365E+03  0.00000000000E+00 0.  1.
          4    1    6    6  502    0  0.38674782135E+02 -0.11050014227E+02 -0.33580733942E+02  0.52397588491E+02  0.00000000000E+00 0. -1.
         -3    1    6    6    0  502  0.17717784928E+03  0.87664591822E+02 -0.48018900013E+02  0.20342783903E+03  0.00000000000E+00 0.  1.
<mgrwt>
<rscale>  0 0.96884374E+03</rscale>
<asrwt>0</asrwt>
<pdfrwt beam="1">  1        1 0.13528744E+00 0.96884374E+03</pdfrwt>
<pdfrwt beam="2">  1       -2 0.22061524E+00 0.96884374E+03</pdfrwt>
<totfact> 0.16282735E+00</totfact>
</mgrwt>
</event>
<event>
12    3  0.1176505E-007  0.1190812E+04  0.7818608E-02  0.9120937E-01
          3   -1    0    0  501    0  0.00000000000E+00  0.00000000000E+00  0.31293097175E+04  0.31293097175E+04  0.00000000000E+00 0. -1.
         -4   -1    0    0    0  501 -0.00000000000E+00 -0.00000000000E+00 -0.46197426387E+03  0.46197426387E+03  0.00000000000E+00 0.  1.
        -24    2    1    2    0    0 -0.74227876553E+03 -0.83492276248E+03  0.10411406934E+04  0.15292295684E+04  0.80593698624E+02 0.  0.
    5000000    2    1    2    0    0  0.74227876553E+03  0.83492276248E+03  0.16261947602E+04  0.20620544130E+04  0.59957086232E+03 0.  0.
        -24    2    4    4    0    0  0.55383835957E+02  0.48151582484E+03  0.64662332765E+03  0.81192443814E+03  0.78579300916E+02 0.  0.
         24    2    4    4    0    0  0.68689492957E+03  0.35340693763E+03  0.97957143253E+03  0.12501299748E+04  0.80892859282E+02 0.  0.
         11    1    5    5    0    0 -0.17527409248E+02  0.16999250585E+03  0.21463991483E+03  0.27436281664E+03  0.00000000000E+00 0. -1.
        -12    1    5    5    0    0  0.72911245205E+02  0.31152331900E+03  0.43198341282E+03  0.53756162150E+03  0.00000000000E+00 0.  1.
         15    1    3    3    0    0 -0.48087110456E+03 -0.53216344896E+03  0.61549543541E+03  0.94513107258E+03  0.17770000000E+01 0. -1.
        -16    1    3    3    0    0 -0.26140766096E+03 -0.30275931351E+03  0.42564525801E+03  0.58409849580E+03  0.00000000000E+00 0.  1.
          4    1    6    6  502    0  0.19978069962E+03  0.82259991790E+02  0.22481384991E+03  0.31180170189E+03  0.00000000000E+00 0. -1.
         -3    1    6    6    0  502  0.48711422995E+03  0.27114694584E+03  0.75475758263E+03  0.93832827293E+03  0.00000000000E+00 0.  1.
<mgrwt>
<rscale>  0 0.11908120E+04</rscale>
<asrwt>0</asrwt>
<pdfrwt beam="1">  1        3 0.48143225E+00 0.11908120E+04</pdfrwt>
<pdfrwt beam="2">  1       -4 0.71072965E-01 0.11908120E+04</pdfrwt>
<totfact> 0.17077778E-02</totfact>
</mgrwt>
</event>
<event>
12    3  0.1176505E-007  0.1464713E+04  0.7818608E-02  0.8908263E-01
          1   -1    0    0  501    0  0.00000000000E+00  0.00000000000E+00  0.17656350415E+04  0.17656350415E+04  0.00000000000E+00 0. -1.
         -2   -1    0    0    0  501 -0.00000000000E+00 -0.00000000000E+00 -0.13633390834E+04  0.13633390834E+04  0.00000000000E+00 0.  1.
        -24    2    1    2    0    0 -0.62832276241E+03 -0.12911405298E+04 -0.21653780401E+03  0.14542223578E+04  0.77721836585E+02 0.  0.
    5000000    2    1    2    0    0  0.62832276241E+03  0.12911405298E+04  0.61883376211E+03  0.16747517670E+04  0.60000407864E+03 0.  0.
        -24    2    4    4    0    0  0.46047164544E+01  0.40730907032E+03  0.38347163470E+03  0.56485965171E+03  0.78064392197E+02 0.  0.
         24    2    4    4    0    0  0.62371804595E+03  0.88383145952E+03  0.23536212740E+03  0.11098921153E+04  0.79264915809E+02 0.  0.
         13    1    5    5    0    0  0.25086323003E+02  0.25751218365E+03  0.28236387777E+03  0.38297677188E+03  0.00000000000E+00 0. -1.
        -14    1    5    5    0    0 -0.20481606549E+02  0.14979688667E+03  0.10110775693E+03  0.18188287983E+03  0.00000000000E+00 0.  1.
         15    1    3    3    0    0 -0.13100835620E+03 -0.23037463933E+03 -0.65225231920E+02  0.27293433724E+03  0.17770000000E+01 0. -1.
        -16    1    3    3    0    0 -0.49731440621E+03 -0.10607658905E+04 -0.15131257209E+03  0.11812880206E+04  0.00000000000E+00 0.  1.
          4    1    6    6  502    0  0.43133567397E+03  0.65039426423E+03  0.14133757311E+03  0.79312008685E+03  0.00000000000E+00 0. -1.
         -3    1    6    6    0  502  0.19238237198E+03  0.23343719529E+03  0.94024554295E+02  0.31677202844E+03  0.00000000000E+00 0.  1.
<mgrwt>
<rscale>  0 0.14647130E+04</rscale>
<asrwt>0</asrwt>
<pdfrwt beam="1">  1        1 0.27163616E+00 0.14647130E+04</pdfrwt>
<pdfrwt beam="2">  1       -2 0.20974447E+00 0.14647130E+04</pdfrwt>
<totfact> 0.40970329E-01</totfact>
</mgrwt>
</event>
<event>
12    3  0.1176505E-007  0.7206958E+03  0.7818608E-02  0.9682480E-01
         -2   -1    0    0    0  501 -0.00000000000E+00  0.00000000000E+00  0.73520376690E+03  0.73520376690E+03  0.00000000000E+00 0.  1.
          1   -1    0    0  501    0  0.00000000000E+00 -0.00000000000E+00 -0.93624913250E+03  0.93624913250E+03  0.00000000000E+00 0. -1.
        -24    2    1    2    0    0  0.56877977184E+03  0.35599538715E+03  0.17147770535E+03  0.69719230221E+03  0.80183279525E+02 0.  0.
    5000000    2    1    2    0    0 -0.56877977184E+03 -0.35599538715E+03 -0.37252307094E+03  0.97426059718E+03  0.60013925744E+03 0.  0.
        -24    2    4    4    0    0 -0.24906676727E+02 -0.16615531607E+03 -0.34506908588E+03  0.39202854548E+03  0.79911043271E+02 0.  0.
         24    2    4    4    0    0 -0.54387309511E+03 -0.18984007107E+03 -0.27453985059E+02  0.58223205170E+03  0.80020275973E+02 0.  0.
         11    1    5    5    0    0  0.89850670411E+01  0.57316041739E+01 -0.15931515739E+02  0.19167574439E+02  0.00000000000E+00 0. -1.
        -12    1    5    5    0    0 -0.33891743768E+02 -0.17188692025E+03 -0.32913757014E+03  0.37286097104E+03  0.00000000000E+00 0.  1.
         15    1    3    3    0    0  0.59597104057E+02  0.11545897071E+02  0.21411138045E+02  0.64395008444E+02  0.17770000000E+01 0. -1.
        -16    1    3    3    0    0  0.50918266778E+03  0.34444949007E+03  0.15006656730E+03  0.63279729377E+03  0.00000000000E+00 0.  1.
          2    1    6    6  502    0 -0.27566864172E+03 -0.60188634523E+02  0.76950589665E+01  0.28226775530E+03  0.00000000000E+00 0. -1.
         -1    1    6    6    0  502 -0.26820445339E+03 -0.12965143655E+03 -0.35149044026E+02  0.29996429640E+03  0.00000000000E+00 0.  1.
<mgrwt>
<rscale>  0 0.72069581E+03</rscale>
<asrwt>0</asrwt>
<pdfrwt beam="1">  1        1 0.14403833E+00 0.72069581E+03</pdfrwt>
<pdfrwt beam="2">  1       -2 0.11310827E+00 0.72069581E+03</pdfrwt>
<totfact> 0.93972069E+00</totfact>
</mgrwt>
</event>
<event>
12    3  0.1176505E-007  0.9676071E+03  0.7818608E-02  0.9344804E-01
         -2   -1    0    0    0  501 -0.00000000000E+00  0.00000000000E+00  0.11412339222E+04  0.11412339222E+04  0.00000000000E+00 0.  1.
          1   -1    0    0  501    0  0.00000000000E+00 -0.00000000000E+00 -0.11448966618E+04  0.11448966618E+04  0.00000000000E+00 0. -1.
        -24    2    1    2    0    0 -0.83229057680E+03 -0.27957974342E+03 -0.60042839964E+03  0.10667582986E+04  0.81157670233E+02 0.  0.
    5000000    2    1    2    0    0  0.83229057680E+03  0.27957974342E+03  0.59676565999E+03  0.12193722854E+04  0.59988922327E+03 0.  0.
        -24    2    4    4    0    0  0.65310643789E+03 -0.64892675621E+02  0.30894872739E+03  0.72972799340E+03  0.79338197839E+02 0.  0.
         24    2    4    4    0    0  0.17918413892E+03  0.34447241904E+03  0.28781693261E+03  0.48964429197E+03  0.78388410113E+02 0.  0.
         11    1    5    5    0    0  0.34749911444E+03 -0.74277461704E+02  0.16628360622E+03  0.39233023533E+03  0.00000000000E+00 0. -1.
        -12    1    5    5    0    0  0.30560732345E+03  0.93847860829E+01  0.14266512116E+03  0.33739775807E+03  0.00000000000E+00 0.  1.
         15    1    3    3    0    0 -0.34006927287E+03 -0.11442207895E+03 -0.19759228211E+03  0.40961614980E+03  0.17770000000E+01 0. -1.
        -16    1    3    3    0    0 -0.49222130394E+03 -0.16515766446E+03 -0.40283611753E+03  0.65714214883E+03  0.00000000000E+00 0.  1.
          4    1    6    6  502    0  0.76894441449E+02  0.23042719709E+03  0.17783878420E+03  0.30105826919E+03  0.00000000000E+00 0. -1.
         -3    1    6    6    0  502  0.10228969747E+03  0.11404522195E+03  0.10997814841E+03  0.18858602277E+03  0.00000000000E+00 0.  1.
<mgrwt>
<rscale>  0 0.96760713E+03</rscale>
<asrwt>0</asrwt>
<pdfrwt beam="1">  1        1 0.17613795E+00 0.96760713E+03</pdfrwt>
<pdfrwt beam="2">  1       -2 0.17557445E+00 0.96760713E+03</pdfrwt>
<totfact> 0.20032115E+00</totfact>
</mgrwt>
</event>
<event>
12    3  0.1176505E-007  0.7972380E+03  0.7818608E-02  0.9564024E-01
         -2   -1    0    0    0  501 -0.00000000000E+00  0.00000000000E+00  0.55490298301E+03  0.55490298301E+03  0.00000000000E+00 0.  1.
          1   -1    0    0  501    0  0.00000000000E+00 -0.00000000000E+00 -0.12558632578E+04  0.12558632578E+04  0.00000000000E+00 0. -1.
        -24    2    1    2    0    0  0.56953619789E+03 -0.42638314187E+03 -0.15562554585E+03  0.73209324539E+03  0.74613303474E+02 0.  0.
    5000000    2    1    2    0    0 -0.56953619789E+03  0.42638314187E+03 -0.54533472897E+03  0.10786729955E+04  0.59997616630E+03 0.  0.
        -24    2    4    4    0    0 -0.38042042928E+03  0.53718405523E+03 -0.26615955066E+03  0.71490397124E+03  0.83428828805E+02 0.  0.
         24    2    4    4    0    0 -0.18911576860E+03 -0.11080091336E+03 -0.27917517831E+03  0.36376902422E+03  0.79671239846E+02 0.  0.
         11    1    5    5    0    0 -0.16612162557E+03  0.21299957439E+03 -0.67353901028E+02  0.27839138125E+03  0.00000000000E+00 0. -1.
        -12    1    5    5    0    0 -0.21429880372E+03  0.32418448084E+03 -0.19880564963E+03  0.43651258999E+03  0.00000000000E+00 0.  1.
         15    1    3    3    0    0  0.33996276727E+03 -0.27793621621E+03 -0.63992691663E+02  0.44375831905E+03  0.17770000000E+01 0. -1.
        -16    1    3    3    0    0  0.22957343062E+03 -0.14844692566E+03 -0.91632854184E+02  0.28833492634E+03  0.00000000000E+00 0.  1.
          2    1    6    6  502    0 -0.17143232752E+03 -0.83445603432E+02 -0.26885774132E+03  0.32960081420E+03  0.00000000000E+00 0. -1.
         -1    1    6    6    0  502 -0.17683441086E+02 -0.27355309926E+02 -0.10317436985E+02  0.34168210017E+02  0.00000000000E+00 0.  1.
<mgrwt>
<rscale>  0 0.79723795E+03</rscale>
<asrwt>0</asrwt>
<pdfrwt beam="1">  1        1 0.19320973E+00 0.79723795E+03</pdfrwt>
<pdfrwt beam="2">  1       -2 0.85369691E-01 0.79723795E+03</pdfrwt>
<totfact> 0.10408401E+01</totfact>
</mgrwt>
</event>
<event>
12    3  0.1176505E-007  0.7266507E+03  0.7818608E-02  0.9672711E-01
         -2   -1    0    0    0  501 -0.00000000000E+00  0.00000000000E+00  0.35211052636E+03  0.35211052636E+03  0.00000000000E+00 0.  1.
          1   -1    0    0  501    0  0.00000000000E+00 -0.00000000000E+00 -0.18493819142E+04  0.18493819142E+04  0.00000000000E+00 0. -1.
        -24    2    1    2    0    0  0.11372456056E+03 -0.59844750612E+03 -0.10968396307E+04  0.12573146001E+04  0.81915412227E+02 0.  0.
    5000000    2    1    2    0    0 -0.11372456056E+03  0.59844750612E+03 -0.40043175715E+03  0.94417784052E+03  0.60004458929E+03 0.  0.
        -24    2    4    4    0    0 -0.68526250460E+02  0.70306249095E+03 -0.38643017646E+03  0.80917166310E+03  0.80235814284E+02 0.  0.
         24    2    4    4    0    0 -0.45198310102E+02 -0.10461498483E+03 -0.14001580691E+02  0.13500617743E+03  0.71017190843E+02 0.  0.
         11    1    5    5    0    0 -0.73779521595E+02  0.37727742195E+03 -0.22682213180E+03  0.44635182356E+03  0.00000000000E+00 0. -1.
        -12    1    5    5    0    0  0.52532711342E+01  0.32578506900E+03 -0.15960804467E+03  0.36281983954E+03  0.00000000000E+00 0.  1.
         15    1    3    3    0    0  0.48205014765E+01 -0.19311388274E+03 -0.30281288062E+03  0.35918659126E+03  0.17770000000E+01 0. -1.
        -16    1    3    3    0    0  0.10890405909E+03 -0.40533362339E+03 -0.79402675009E+03  0.89812800880E+03  0.00000000000E+00 0.  1.
          2    1    6    6  502    0 -0.58519937002E+00 -0.78424070622E+02 -0.24609776714E+02  0.82196827318E+02  0.00000000000E+00 0. -1.
         -1    1    6    6    0  502 -0.44613110732E+02 -0.26190914204E+02  0.10608196023E+02  0.52809350109E+02  0.00000000000E+00 0.  1.
<mgrwt>
<rscale>  0 0.72665068E+03</rscale>
<asrwt>0</asrwt>
<pdfrwt beam="1">  1        1 0.28452028E+00 0.72665068E+03</pdfrwt>
<pdfrwt beam="2">  1       -2 0.54170852E-01 0.72665068E+03</pdfrwt>
<totfact> 0.11066767E+01</totfact>
</mgrwt>
</event>
<event>
12    3  0.1176505E-007  0.5145882E+03  0.7818608E-02  0.1010040E+00
          1   -1    0    0  501    0  0.00000000000E+00  0.00000000000E+00  0.49923391498E+03  0.49923391498E+03  0.00000000000E+00 0. -1.
         -2   -1    0    0    0  501 -0.00000000000E+00 -0.00000000000E+00 -0.70312307720E+03  0.70312307720E+03  0.00000000000E+00 0.  1.
        -24    2    1    2    0    0 -0.91870094756E+02  0.42613819760E+03 -0.66819877337E+02  0.44811112469E+03  0.79402810419E+02 0.  0.
    5000000    2    1    2    0    0  0.91870094756E+02 -0.42613819760E+03 -0.13706928488E+03  0.75424586748E+03  0.60005413256E+03 0.  0.
        -24    2    4    4    0    0  0.23224987656E+03 -0.20221396710E+03 -0.29704257165E+03  0.43527252262E+03  0.79983660315E+02 0.  0.
         24    2    4    4    0    0 -0.14037978180E+03 -0.22392423049E+03  0.15997328677E+03  0.31897334487E+03  0.79397721102E+02 0.  0.
         13    1    5    5    0    0  0.11734368652E+02 -0.37513558171E+02 -0.17666840539E+02  0.43093847693E+02  0.00000000000E+00 0. -1.
        -14    1    5    5    0    0  0.22051550790E+03 -0.16470040893E+03 -0.27937573112E+03  0.39217867492E+03  0.00000000000E+00 0.  1.
         15    1    3    3    0    0 -0.83806414994E+01  0.17711610665E+03 -0.53120660036E+02  0.18510892102E+03  0.17770000000E+01 0. -1.
        -16    1    3    3    0    0 -0.83489453257E+02  0.24902209094E+03 -0.13699217301E+02  0.26300220367E+03  0.00000000000E+00 0.  1.
          4    1    6    6  502    0 -0.56260069081E+02 -0.15823599725E+03  0.82634746679E+02  0.18716924843E+03  0.00000000000E+00 0. -1.
         -3    1    6    6    0  502 -0.84119712718E+02 -0.65688233240E+02  0.77338540093E+02  0.13180409644E+03  0.00000000000E+00 0.  1.
<mgrwt>
<rscale>  0 0.51458823E+03</rscale>
<asrwt>0</asrwt>
<pdfrwt beam="1">  1        1 0.76805218E-01 0.51458823E+03</pdfrwt>
<pdfrwt beam="2">  1       -2 0.10817278E+00 0.51458823E+03</pdfrwt>
<totfact> 0.27674985E+01</totfact>
</mgrwt>
</event>
<event>
12    3  0.1176505E-007  0.7927420E+03  0.7818608E-02  0.9570583E-01
         -2   -1    0    0    0  501 -0.00000000000E+00  0.00000000000E+00  0.12203442728E+04  0.12203442728E+04  0.00000000000E+00 0.  1.
          1   -1    0    0  501    0  0.00000000000E+00 -0.00000000000E+00 -0.65652864190E+03  0.65652864190E+03  0.00000000000E+00 0. -1.
        -24    2    1    2    0    0  0.27592065089E+03 -0.72833930519E+03  0.40287955647E+03  0.88062584651E+03  0.81114705515E+02 0.  0.
    5000000    2    1    2    0    0 -0.27592065089E+03  0.72833930519E+03  0.16093607439E+03  0.99624706813E+03  0.59999787637E+03 0.  0.
        -24    2    4    4    0    0 -0.24055986193E+03  0.41578791971E+03 -0.18647511608E+03  0.52143825226E+03  0.79851365988E+02 0.  0.
         24    2    4    4    0    0 -0.35360788953E+02  0.31255138549E+03  0.34741119047E+03  0.47480881588E+03  0.76224158940E+02 0.  0.
         11    1    5    5    0    0 -0.44569802938E+02  0.44377323305E+02 -0.48432213433E+02  0.79381946661E+02  0.00000000000E+00 0. -1.
        -12    1    5    5    0    0 -0.19599005900E+03  0.37141059640E+03 -0.13804290265E+03  0.44205630559E+03  0.00000000000E+00 0.  1.
         15    1    3    3    0    0  0.15198890148E+03 -0.47067802079E+03  0.28907323786E+03  0.57289171752E+03  0.17770000000E+01 0. -1.
        -16    1    3    3    0    0  0.12393174941E+03 -0.25766128440E+03  0.11380631861E+03  0.30773412899E+03  0.00000000000E+00 0.  1.
          2    1    6    6  502    0 -0.50858917282E+02  0.14159100817E+03  0.18545460573E+03  0.23880547282E+03  0.00000000000E+00 0. -1.
         -1    1    6    6    0  502  0.15498128329E+02  0.17096037732E+03  0.16195658474E+03  0.23600334306E+03  0.00000000000E+00 0.  1.
<mgrwt>
<rscale>  0 0.79274205E+03</rscale>
<asrwt>0</asrwt>
<pdfrwt beam="1">  1        1 0.10100441E+00 0.79274205E+03</pdfrwt>
<pdfrwt beam="2">  1       -2 0.18774527E+00 0.79274205E+03</pdfrwt>
<totfact> 0.43015853E+00</totfact>
</mgrwt>
</event>
<event>
12    3  0.1176505E-007  0.8294499E+03  0.7818608E-02  0.9518341E-01
          1   -1    0    0  501    0  0.00000000000E+00  0.00000000000E+00  0.15694452339E+04  0.15694452339E+04  0.00000000000E+00 0. -1.
         -2   -1    0    0    0  501 -0.00000000000E+00 -0.00000000000E+00 -0.55705468343E+03  0.55705468343E+03  0.00000000000E+00 0.  1.
        -24    2    1    2    0    0 -0.37083254128E+03 -0.67722902992E+03  0.88361810315E+02  0.78117734252E+03  0.79210468379E+02 0.  0.
    5000000    2    1    2    0    0  0.37083254128E+03  0.67722902992E+03  0.92402874011E+03  0.13453225748E+04  0.59992314925E+03 0.  0.
        -24    2    4    4    0    0  0.37455188199E+02  0.50425496811E+03  0.24880146466E+03  0.56864821816E+03  0.76043824280E+02 0.  0.
         24    2    4    4    0    0  0.33337735308E+03  0.17297406181E+03  0.67522727545E+03  0.77667435661E+03  0.78934764840E+02 0.  0.
         11    1    5    5    0    0  0.11124391376E+02  0.45633803632E+03  0.21743061977E+03  0.50561272718E+03  0.00000000000E+00 0. -1.
        -12    1    5    5    0    0  0.26330796823E+02  0.47916931796E+02  0.31370844890E+02  0.63035490981E+02  0.00000000000E+00 0.  1.
         15    1    3    3    0    0 -0.13230119102E+03 -0.23791423633E+03  0.69327739890E+02  0.28092041977E+03  0.17770000000E+01 0. -1.
        -16    1    3    3    0    0 -0.23853135026E+03 -0.43931479359E+03  0.19034070425E+02  0.50025692275E+03  0.00000000000E+00 0.  1.
          4    1    6    6  502    0  0.10739080996E+03  0.58790498199E+02  0.29991389110E+03  0.32394050506E+03  0.00000000000E+00 0. -1.
         -3    1    6    6    0  502  0.22598654312E+03  0.11418356361E+03  0.37531338435E+03  0.45273385155E+03  0.00000000000E+00 0.  1.
<mgrwt>
<rscale>  0 0.82944990E+03</rscale>
<asrwt>0</asrwt>
<pdfrwt beam="1">  1        1 0.24145311E+00 0.82944990E+03</pdfrwt>
<pdfrwt beam="2">  1       -2 0.85700721E-01 0.82944990E+03</pdfrwt>
<totfact> 0.62171763E+00</totfact>
</mgrwt>
</event>
<event>
12    3  0.1176505E-007  0.7832873E+03  0.7818608E-02  0.9584528E-01
         -2   -1    0    0    0  501 -0.00000000000E+00  0.00000000000E+00  0.34240477342E+03  0.34240477342E+03  0.00000000000E+00 0.  1.
          1   -1    0    0  501    0  0.00000000000E+00 -0.00000000000E+00 -0.23902558148E+04  0.23902558148E+04  0.00000000000E+00 0. -1.
        -24    2    1    2    0    0  0.23549423588E+03 -0.67081071806E+03 -0.14772940713E+04  0.16413894611E+04  0.79479780621E+02 0.  0.
    5000000    2    1    2    0    0 -0.23549423588E+03  0.67081071806E+03 -0.57055697016E+03  0.10912711271E+04  0.59991071177E+03 0.  0.
        -24    2    4    4    0    0 -0.96141079634E+02  0.69548636844E+03 -0.60561712176E+03  0.93047535912E+03  0.77896725776E+02 0.  0.
         24    2    4    4    0    0 -0.13935315625E+03 -0.24675650377E+02  0.35060151600E+02  0.16079576800E+03  0.67807631569E+02 0.  0.
         13    1    5    5    0    0 -0.93408759527E+02  0.39586189727E+03 -0.35348153195E+03  0.53887014344E+03  0.00000000000E+00 0. -1.
        -14    1    5    5    0    0 -0.27323201065E+01  0.29962447117E+03 -0.25213558980E+03  0.39160521568E+03  0.00000000000E+00 0.  1.
         15    1    3    3    0    0  0.97451571910E+02 -0.27861494902E+03 -0.70470304292E+03  0.76402397548E+03  0.17770000000E+01 0. -1.
        -16    1    3    3    0    0  0.13804266397E+03 -0.39219576904E+03 -0.77259102835E+03  0.87736548566E+03  0.00000000000E+00 0.  1.
          4    1    6    6  502    0 -0.31590216759E+02 -0.26862895707E+02  0.32991925309E+02  0.52990792561E+02  0.00000000000E+00 0. -1.
         -3    1    6    6    0  502 -0.10776293949E+03  0.21872453304E+01  0.20682262912E+01  0.10780497544E+03  0.00000000000E+00 0.  1.
<mgrwt>
<rscale>  0 0.78328733E+03</rscale>
<asrwt>0</asrwt>
<pdfrwt beam="1">  1        1 0.36773168E+00 0.78328733E+03</pdfrwt>
<pdfrwt beam="2">  1       -2 0.52677655E-01 0.78328733E+03</pdfrwt>
<totfact> 0.50391320E+00</totfact>
</mgrwt>
</event>
<event>
12    3  0.1176505E-007  0.1710121E+04  0.7818608E-02  0.8755613E-01
          1   -1    0    0  501    0  0.00000000000E+00  0.00000000000E+00  0.13961606575E+04  0.13961606575E+04  0.00000000000E+00 0. -1.
         -2   -1    0    0    0  501 -0.00000000000E+00 -0.00000000000E+00 -0.25103478346E+04  0.25103478346E+04  0.00000000000E+00 0.  1.
        -24    2    1    2    0    0 -0.15120719039E+04 -0.69245125322E+03 -0.13224209702E+04  0.21262453164E+04  0.79194334826E+02 0.  0.
    5000000    2    1    2    0    0  0.15120719039E+04  0.69245125322E+03  0.20823379305E+03  0.17802631757E+04  0.60010455898E+03 0.  0.
        -24    2    4    4    0    0  0.13189469523E+04  0.35582973871E+03  0.21055127175E+03  0.13844804136E+04  0.78856271462E+02 0.  0.
         24    2    4    4    0    0  0.19312495157E+03  0.33662151452E+03 -0.23174787004E+01  0.39578276217E+03  0.77635901293E+02 0.  0.
         11    1    5    5    0    0  0.93439396508E+03  0.22658242928E+03  0.12139036160E+03  0.96910644365E+03  0.00000000000E+00 0. -1.
        -12    1    5    5    0    0  0.38455298722E+03  0.12924730943E+03  0.89160910155E+02  0.41537396991E+03  0.00000000000E+00 0.  1.
         15    1    3    3    0    0 -0.39832956674E+03 -0.15959045095E+03 -0.30615589481E+03  0.52713389706E+03  0.17770000000E+01 0. -1.
        -16    1    3    3    0    0 -0.11137423371E+04 -0.53286080227E+03 -0.10162650754E+04  0.15991114194E+04  0.00000000000E+00 0.  1.
          2    1    6    6  502    0  0.11626176555E+03  0.23187795065E+03 -0.35191706611E+02  0.26176829132E+03  0.00000000000E+00 0. -1.
         -1    1    6    6    0  502  0.76863186020E+02  0.10474356386E+03  0.32874227910E+02  0.13401447085E+03  0.00000000000E+00 0.  1.
<mgrwt>
<rscale>  0 0.17101210E+04</rscale>
<asrwt>0</asrwt>
<pdfrwt beam="1">  1        1 0.21479395E+00 0.17101210E+04</pdfrwt>
<pdfrwt beam="2">  1       -2 0.38620736E+00 0.17101210E+04</pdfrwt>
<totfact> 0.57083448E-02</totfact>
</mgrwt>
</event>
<event>
12    3  0.1176505E-007  0.6676701E+03  0.7818608E-02  0.9774176E-01
          1   -1    0    0  501    0  0.00000000000E+00  0.00000000000E+00  0.12922039397E+04  0.12922039397E+04  0.00000000000E+00 0. -1.
         -2   -1    0    0    0  501 -0.00000000000E+00 -0.00000000000E+00 -0.44774636848E+03  0.44774636848E+03  0.00000000000E+00 0.  1.
        -24    2    1    2    0    0 -0.14687501832E+02  0.63898085670E+03  0.33582637740E+03  0.72651605097E+03  0.80832905557E+02 0.  0.
    5000000    2    1    2    0    0  0.14687501832E+02 -0.63898085670E+03  0.50863119382E+03  0.10134342572E+04  0.59985918717E+03 0.  0.
        -24    2    4    4    0    0  0.10463433818E+03 -0.49865522385E+03  0.61337442479E+03  0.80118604567E+03  0.77881434185E+02 0.  0.
         24    2    4    4    0    0 -0.89946836353E+02 -0.14032563285E+03 -0.10474323097E+03  0.21224821155E+03  0.79350124542E+02 0.  0.
         13    1    5    5    0    0  0.62032705602E+02 -0.43022532659E+03  0.52434219770E+03  0.68108489081E+03  0.00000000000E+00 0. -1.
        -14    1    5    5    0    0  0.42601632583E+02 -0.68429897255E+02  0.89032227098E+02  0.12010115486E+03  0.00000000000E+00 0.  1.
         15    1    3    3    0    0  0.32592919840E+02  0.28048382471E+03  0.13697937425E+03  0.31384706634E+03  0.17770000000E+01 0. -1.
        -16    1    3    3    0    0 -0.47280421672E+02  0.35849703199E+03  0.19884700315E+03  0.41266898463E+03  0.00000000000E+00 0.  1.
          4    1    6    6  502    0 -0.13980915972E+02 -0.73769299065E+02 -0.13801742740E+02  0.76340445365E+02  0.00000000000E+00 0. -1.
         -3    1    6    6    0  502 -0.75965920381E+02 -0.66556333790E+02 -0.90941488233E+02  0.13590776618E+03  0.00000000000E+00 0.  1.
<mgrwt>
<rscale>  0 0.66767015E+03</rscale>
<asrwt>0</asrwt>
<pdfrwt beam="1">  1        1 0.19880060E+00 0.66767015E+03</pdfrwt>
<pdfrwt beam="2">  1       -2 0.68884057E-01 0.66767015E+03</pdfrwt>
<totfact> 0.16075041E+01</totfact>
</mgrwt>
</event>
<event>
12    3  0.1176505E-007  0.8449353E+03  0.7818608E-02  0.9497160E-01
         -2   -1    0    0    0  501 -0.00000000000E+00  0.00000000000E+00  0.60521529876E+03  0.60521529876E+03  0.00000000000E+00 0.  1.
          1   -1    0    0  501    0  0.00000000000E+00 -0.00000000000E+00 -0.12380794897E+04  0.12380794897E+04  0.00000000000E+00 0. -1.
        -24    2    1    2    0    0  0.75415842914E+03  0.44729578388E+01 -0.37347571517E+03  0.84533319687E+03  0.79556019993E+02 0.  0.
    5000000    2    1    2    0    0 -0.75415842914E+03 -0.44729578388E+01 -0.25938847573E+03  0.99796159154E+03  0.59989166793E+03 0.  0.
        -24    2    4    4    0    0  0.73174972828E+02 -0.91849994717E+01 -0.10761324085E+03  0.15295971515E+03  0.79856896942E+02 0.  0.
         24    2    4    4    0    0 -0.82733340197E+03  0.47120416328E+01 -0.15177523488E+03  0.84500187639E+03  0.80558598730E+02 0.  0.
         13    1    5    5    0    0  0.29703882246E+02 -0.43684598397E+02 -0.46121931212E+02  0.70127721311E+02  0.00000000000E+00 0. -1.
        -14    1    5    5    0    0  0.43471090582E+02  0.34499598926E+02 -0.61491309639E+02  0.82831993840E+02  0.00000000000E+00 0.  1.
         15    1    3    3    0    0  0.42472954791E+03 -0.16416187893E+00 -0.25393643797E+03  0.49485562347E+03  0.17770000000E+01 0. -1.
        -16    1    3    3    0    0  0.32942888123E+03  0.46371197177E+01 -0.11953927720E+03  0.35047757341E+03  0.00000000000E+00 0.  1.
          4    1    6    6  502    0 -0.65767570488E+03  0.48826112356E+01 -0.87106759504E+02  0.66343708084E+03  0.00000000000E+00 0. -1.
         -3    1    6    6    0  502 -0.16965769709E+03 -0.17056960273E+00 -0.64668475379E+02  0.18156479555E+03  0.00000000000E+00 0.  1.
<mgrwt>
<rscale>  0 0.84493527E+03</rscale>
<asrwt>0</asrwt>
<pdfrwt beam="1">  1        1 0.19047377E+00 0.84493527E+03</pdfrwt>
<pdfrwt beam="2">  1       -2 0.93110046E-01 0.84493527E+03</pdfrwt>
<totfact> 0.87261832E+00</totfact>
</mgrwt>
</event>
<event>
12    3  0.1176505E-007  0.7147717E+03  0.7818608E-02  0.9692299E-01
         -2   -1    0    0    0  501 -0.00000000000E+00  0.00000000000E+00  0.37561615405E+03  0.37561615405E+03  0.00000000000E+00 0.  1.
          1   -1    0    0  501    0  0.00000000000E+00 -0.00000000000E+00 -0.23657886056E+04  0.23657886056E+04  0.00000000000E+00 0. -1.
        -24    2    1    2    0    0  0.49451410116E+03 -0.49640237677E+03 -0.20891748461E+03  0.73553471736E+03  0.80033050401E+02 0.  0.
    5000000    2    1    2    0    0 -0.49451410116E+03  0.49640237677E+03 -0.17812549669E+04  0.20058700423E+04  0.59973815400E+03 0.  0.
        -24    2    4    4    0    0 -0.68446953824E+02  0.10633917369E+03 -0.20538462011E+02  0.15112618490E+03  0.80151668690E+02 0.  0.
         24    2    4    4    0    0 -0.42606714734E+03  0.39006320309E+03 -0.17607165049E+04  0.18547438574E+04  0.79181117126E+02 0.  0.
         13    1    5    5    0    0 -0.78537194859E+02  0.10937768892E+03 -0.82039779667E+01  0.13490320627E+03  0.00000000000E+00 0. -1.
        -14    1    5    5    0    0  0.10090241035E+02 -0.30385152300E+01 -0.12334484044E+02  0.16222978629E+02  0.00000000000E+00 0.  1.
         15    1    3    3    0    0  0.33109188840E+03 -0.38224153257E+03 -0.14209078719E+03  0.52528409201E+03  0.17770000000E+01 0. -1.
        -16    1    3    3    0    0  0.16342221276E+03 -0.11416084420E+03 -0.66826697417E+02  0.21025062535E+03  0.00000000000E+00 0.  1.
          4    1    6    6  502    0 -0.31570832100E+03  0.26211635671E+03 -0.11468609056E+04  0.12180585640E+04  0.00000000000E+00 0. -1.
         -3    1    6    6    0  502 -0.11035882634E+03  0.12794684637E+03 -0.61385559931E+03  0.63668529342E+03  0.00000000000E+00 0.  1.
<mgrwt>
<rscale>  0 0.71477168E+03</rscale>
<asrwt>0</asrwt>
<pdfrwt beam="1">  1        1 0.36396747E+00 0.71477168E+03</pdfrwt>
<pdfrwt beam="2">  1       -2 0.57787101E-01 0.71477168E+03</pdfrwt>
<totfact> 0.43698875E+00</totfact>
</mgrwt>
</event>
<event>
12    3  0.1176505E-007  0.1095620E+04  0.7818608E-02  0.9209472E-01
         -2   -1    0    0    0  501 -0.00000000000E+00  0.00000000000E+00  0.75914783313E+03  0.75914783313E+03  0.00000000000E+00 0.  1.
          1   -1    0    0  501    0  0.00000000000E+00 -0.00000000000E+00 -0.17778240495E+04  0.17778240495E+04  0.00000000000E+00 0. -1.
        -24    2    1    2    0    0  0.80258511493E+03 -0.67592933812E+03 -0.18531164070E+03  0.10686269398E+04  0.81239124697E+02 0.  0.
    5000000    2    1    2    0    0 -0.80258511493E+03  0.67592933812E+03 -0.83336457569E+03  0.14683449429E+04  0.60043069412E+03 0.  0.
        -24    2    4    4    0    0 -0.16859328677E+03  0.42430102523E+03 -0.56641965170E+03  0.73151820173E+03  0.76371468936E+02 0.  0.
         24    2    4    4    0    0 -0.63399182816E+03  0.25162831288E+03 -0.26694492399E+03  0.73682674115E+03  0.79947532891E+02 0.  0.
         13    1    5    5    0    0 -0.11677669908E+03  0.29878294429E+03 -0.45008672604E+03  0.55270797552E+03  0.00000000000E+00 0. -1.
        -14    1    5    5    0    0 -0.51816587690E+02  0.12551808094E+03 -0.11633292567E+03  0.17881022621E+03  0.00000000000E+00 0.  1.
         15    1    3    3    0    0  0.46118954978E+02 -0.64131786660E+02 -0.22884206207E+02  0.82259885067E+02  0.17770000000E+01 0. -1.
        -16    1    3    3    0    0  0.75646615995E+03 -0.61179755146E+03 -0.16242743450E+03  0.98636705470E+03  0.00000000000E+00 0.  1.
          4    1    6    6  502    0 -0.16466165437E+02  0.11889509323E+02  0.47274629979E+01  0.20852912088E+02  0.00000000000E+00 0. -1.
         -3    1    6    6    0  502 -0.61752566273E+03  0.23973880356E+03 -0.27167238699E+03  0.71597382907E+03  0.00000000000E+00 0.  1.
<mgrwt>
<rscale>  0 0.10956197E+04</rscale>
<asrwt>0</asrwt>
<pdfrwt beam="1">  1        1 0.27351139E+00 0.10956197E+04</pdfrwt>
<pdfrwt beam="2">  1       -2 0.11679198E+00 0.10956197E+04</pdfrwt>
<totfact> 0.20819418E+00</totfact>
</mgrwt>
</event>
<event>
12    3  0.1176505E-007  0.8847705E+03  0.7818608E-02  0.9444822E-01
          1   -1    0    0  501    0  0.00000000000E+00  0.00000000000E+00  0.14637915522E+04  0.14637915522E+04  0.00000000000E+00 0. -1.
         -2   -1    0    0    0  501 -0.00000000000E+00 -0.00000000000E+00 -0.71848347324E+03  0.71848347324E+03  0.00000000000E+00 0.  1.
        -24    2    1    2    0    0 -0.64700004509E+03  0.46085867772E+03 -0.18526791786E+03  0.81953833095E+03  0.79492737568E+02 0.  0.
    5000000    2    1    2    0    0  0.64700004509E+03 -0.46085867772E+03  0.93057599682E+03  0.13627366945E+04  0.60006652423E+03 0.  0.
        -24    2    4    4    0    0  0.73281379551E+03 -0.46779398207E+03  0.77297483916E+03  0.11661699190E+04  0.81332093737E+02 0.  0.
         24    2    4    4    0    0 -0.85813750414E+02  0.69353043503E+01  0.15760115766E+03  0.19656677550E+03  0.79926679688E+02 0.  0.
         11    1    5    5    0    0  0.19799520701E+03 -0.16589530957E+03  0.25100118022E+03  0.36017349737E+03  0.00000000000E+00 0. -1.
        -12    1    5    5    0    0  0.53481858850E+03 -0.30189867250E+03  0.52197365894E+03  0.80599642163E+03  0.00000000000E+00 0.  1.
         15    1    3    3    0    0 -0.24131095068E+03  0.20128141559E+03 -0.41882346728E+02  0.31702124831E+03  0.17770000000E+01 0. -1.
        -16    1    3    3    0    0 -0.40568909441E+03  0.25957726213E+03 -0.14338557113E+03  0.50251708264E+03  0.00000000000E+00 0.  1.
          2    1    6    6  502    0 -0.23377367536E+02 -0.22272112386E+02  0.10501861031E+03  0.10987018165E+03  0.00000000000E+00 0. -1.
         -1    1    6    6    0  502 -0.62436382877E+02  0.29207416737E+02  0.52582547350E+02  0.86696593849E+02  0.00000000000E+00 0.  1.
<mgrwt>
<rscale>  0 0.88477049E+03</rscale>
<asrwt>0</asrwt>
<pdfrwt beam="1">  1        1 0.22519870E+00 0.88477049E+03</pdfrwt>
<pdfrwt beam="2">  1       -2 0.11053592E+00 0.88477049E+03</pdfrwt>
<totfact> 0.40026922E+00</totfact>
</mgrwt>
</event>
<event>
12    3  0.1176505E-007  0.5094388E+03  0.7818608E-02  0.1011344E+00
         -2   -1    0    0    0  501 -0.00000000000E+00  0.00000000000E+00  0.71702328532E+03  0.71702328532E+03  0.00000000000E+00 0.  1.
          1   -1    0    0  501    0  0.00000000000E+00 -0.00000000000E+00 -0.38469039885E+03  0.38469039885E+03  0.00000000000E+00 0. -1.
        -24    2    1    2    0    0  0.34723734611E+03  0.31385218543E+01  0.90906653086E+02  0.36761180332E+03  0.79314522709E+02 0.  0.
    5000000    2    1    2    0    0 -0.34723734611E+03 -0.31385218543E+01  0.24142623339E+03  0.73410188085E+03  0.60002943298E+03 0.  0.
        -24    2    4    4    0    0  0.14877537721E+03  0.16164550821E+02  0.13091747990E+03  0.21418026512E+03  0.79614030528E+02 0.  0.
         24    2    4    4    0    0 -0.49601272332E+03 -0.19303072675E+02  0.11050875349E+03  0.51992161572E+03  0.10818997914E+03 0.  0.
         13    1    5    5    0    0  0.33358640615E+02  0.26116551445E+02  0.43303844544E+01  0.42586680929E+02  0.00000000000E+00 0. -1.
        -14    1    5    5    0    0  0.11541673660E+03 -0.99520006241E+01  0.12658709544E+03  0.17159358419E+03  0.00000000000E+00 0.  1.
         15    1    3    3    0    0  0.15790433871E+03  0.37080778404E+02  0.59144211531E+02  0.17265561038E+03  0.17770000000E+01 0. -1.
        -16    1    3    3    0    0  0.18933300741E+03 -0.33942256549E+02  0.31762441555E+02  0.19495619294E+03  0.00000000000E+00 0.  1.
          2    1    6    6  502    0 -0.41306647888E+03  0.21583186131E+02  0.10761781017E+03  0.42740068198E+03  0.00000000000E+00 0. -1.
         -1    1    6    6    0  502 -0.82946244446E+02 -0.40886258806E+02  0.28909433202E+01  0.92520933740E+02  0.00000000000E+00 0.  1.
<mgrwt>
<rscale>  0 0.50943879E+03</rscale>
<asrwt>0</asrwt>
<pdfrwt beam="1">  1        1 0.59183138E-01 0.50943879E+03</pdfrwt>
<pdfrwt beam="2">  1       -2 0.11031127E+00 0.50943879E+03</pdfrwt>
<totfact> 0.37367449E+01</totfact>
</mgrwt>
</event>
<event>
12    3  0.1176505E-007  0.5616582E+03  0.7818608E-02  0.9988310E-01
         -2   -1    0    0    0  501 -0.00000000000E+00  0.00000000000E+00  0.40089758765E+03  0.40089758765E+03  0.00000000000E+00 0.  1.
          1   -1    0    0  501    0  0.00000000000E+00 -0.00000000000E+00 -0.11650134831E+04  0.11650134831E+04  0.00000000000E+00 0. -1.
        -24    2    1    2    0    0  0.40930828820E+03  0.20912760029E+03  0.32211272665E+02  0.46802513628E+03  0.82111717257E+02 0.  0.
    5000000    2    1    2    0    0 -0.40930828820E+03 -0.20912760029E+03 -0.79632716809E+03  0.10978859345E+04  0.59995744719E+03 0.  0.
        -24    2    4    4    0    0 -0.49251464576E+03 -0.21381507542E+03 -0.81679641733E+03  0.98072615002E+03  0.79873845555E+02 0.  0.
         24    2    4    4    0    0  0.83206357558E+02  0.46874751269E+01  0.20469249235E+02  0.11715978444E+03  0.79763115311E+02 0.  0.
         11    1    5    5    0    0 -0.11091068958E+03 -0.81267840746E+02 -0.17812839037E+03  0.22502303540E+03  0.00000000000E+00 0. -1.
        -12    1    5    5    0    0 -0.38160395617E+03 -0.13254723467E+03 -0.63866802696E+03  0.75570311462E+03  0.00000000000E+00 0.  1.
         15    1    3    3    0    0  0.19870032158E+03  0.55779996027E+02  0.15359756315E+02  0.20695967142E+03  0.17770000000E+01 0. -1.
        -16    1    3    3    0    0  0.21060796662E+03  0.15334760427E+03  0.16851516350E+02  0.26106546486E+03  0.00000000000E+00 0.  1.
          4    1    6    6  502    0  0.49054603943E+02 -0.36713081189E+02  0.15874492006E+02  0.63294581085E+02  0.00000000000E+00 0. -1.
         -3    1    6    6    0  502  0.34151753615E+02  0.41400556315E+02  0.45947572295E+01  0.53865203353E+02  0.00000000000E+00 0.  1.
<mgrwt>
<rscale>  0 0.56165821E+03</rscale>
<asrwt>0</asrwt>
<pdfrwt beam="1">  1        1 0.17923284E+00 0.56165821E+03</pdfrwt>
<pdfrwt beam="2">  1       -2 0.61676552E-01 0.56165821E+03</pdfrwt>
<totfact> 0.25487979E+01</totfact>
</mgrwt>
</event>
<event>
12    3  0.1176505E-007  0.5607116E+03  0.7818608E-02  0.9990446E-01
          1   -1    0    0  501    0  0.00000000000E+00  0.00000000000E+00  0.77855539068E+03  0.77855539068E+03  0.00000000000E+00 0. -1.
         -2   -1    0    0    0  501 -0.00000000000E+00 -0.00000000000E+00 -0.57727557926E+03  0.57727557926E+03  0.00000000000E+00 0.  1.
        -24    2    1    2    0    0 -0.20145744760E+03 -0.40591004780E+03 -0.20219491217E+03  0.50247836033E+03  0.79080022732E+02 0.  0.
    5000000    2    1    2    0    0  0.20145744760E+03  0.40591004780E+03  0.40347472359E+03  0.85335260961E+03  0.60005895848E+03 0.  0.
        -24    2    4    4    0    0  0.29693583972E+02  0.46782564039E+03  0.44281387187E+03  0.64995000929E+03  0.81291762930E+02 0.  0.
         24    2    4    4    0    0  0.17176386363E+03 -0.61915592594E+02 -0.39339148280E+02  0.20340260032E+03  0.80552366657E+02 0.  0.
         13    1    5    5    0    0 -0.19558791631E+02  0.10945826361E+03  0.13562210453E+03  0.17537677452E+03  0.00000000000E+00 0. -1.
        -14    1    5    5    0    0  0.49252375603E+02  0.35836737678E+03  0.30719176734E+03  0.47457323478E+03  0.00000000000E+00 0.  1.
         15    1    3    3    0    0 -0.79042085229E+02 -0.84353155234E+02 -0.59042816352E+02  0.12981647787E+03  0.17770000000E+01 0. -1.
        -16    1    3    3    0    0 -0.12241536237E+03 -0.32155689257E+03 -0.14315209582E+03  0.37266188246E+03  0.00000000000E+00 0.  1.
          2    1    6    6  502    0  0.10479374330E+03 -0.12399935345E+02 -0.54467009692E+02  0.11875244072E+03  0.00000000000E+00 0. -1.
         -1    1    6    6    0  502  0.66970120324E+02 -0.49515657249E+02  0.15127861412E+02  0.84650159597E+02  0.00000000000E+00 0.  1.
<mgrwt>
<rscale>  0 0.56071157E+03</rscale>
<asrwt>0</asrwt>
<pdfrwt beam="1">  1        1 0.11977775E+00 0.56071157E+03</pdfrwt>
<pdfrwt beam="2">  1       -2 0.88811628E-01 0.56071157E+03</pdfrwt>
<totfact> 0.22970819E+01</totfact>
</mgrwt>
</event>
<event>
12    3  0.1176505E-007  0.9948679E+03  0.7818608E-02  0.9314192E-01
         -2   -1    0    0    0  501 -0.00000000000E+00  0.00000000000E+00  0.29753041568E+04  0.29753041568E+04  0.00000000000E+00 0.  1.
          1   -1    0    0  501    0  0.00000000000E+00 -0.00000000000E+00 -0.41288943128E+03  0.41288943128E+03  0.00000000000E+00 0. -1.
        -24    2    1    2    0    0 -0.27269424756E+03  0.95104540307E+03  0.16012647340E+04  0.18840072472E+04  0.81148309129E+02 0.  0.
    5000000    2    1    2    0    0  0.27269424756E+03 -0.95104540307E+03  0.96114999155E+03  0.15041863408E+04  0.59993143806E+03 0.  0.
        -24    2    4    4    0    0  0.24718496879E+03 -0.68638054628E+03  0.31016721633E+03  0.79631186274E+03  0.75433530663E+02 0.  0.
         24    2    4    4    0    0  0.25509278765E+02 -0.26466485679E+03  0.65098277522E+03  0.70787447810E+03  0.81298790826E+02 0.  0.
         13    1    5    5    0    0  0.13449025944E+03 -0.47643819524E+03  0.21519186687E+03  0.53980415275E+03  0.00000000000E+00 0. -1.
        -14    1    5    5    0    0  0.11269470935E+03 -0.20994235104E+03  0.94975349459E+02  0.25650770998E+03  0.00000000000E+00 0.  1.
         15    1    3    3    0    0 -0.41270728400E+02  0.17976123562E+03  0.24444399428E+03  0.30622442575E+03  0.17770000000E+01 0. -1.
        -16    1    3    3    0    0 -0.23142351916E+03  0.77128416745E+03  0.13568207397E+04  0.15777828215E+04  0.00000000000E+00 0.  1.
          2    1    6    6  502    0  0.20139362751E+01 -0.12903020021E+03  0.21581334426E+03  0.25145227791E+03  0.00000000000E+00 0. -1.
         -1    1    6    6    0  502  0.23495342490E+02 -0.13563465658E+03  0.43516943096E+03  0.45642220019E+03  0.00000000000E+00 0.  1.
<mgrwt>
<rscale>  0 0.99486793E+03</rscale>
<asrwt>0</asrwt>
<pdfrwt beam="1">  1        1 0.63521453E-01 0.99486793E+03</pdfrwt>
<pdfrwt beam="2">  1       -2 0.45773909E+00 0.99486793E+03</pdfrwt>
<totfact> 0.15913380E-01</totfact>
</mgrwt>
</event>
<event>
12    3  0.1176505E-007  0.6912731E+03  0.7818608E-02  0.9732274E-01
         -2   -1    0    0    0  501 -0.00000000000E+00  0.00000000000E+00  0.10501010215E+04  0.10501010215E+04  0.00000000000E+00 0.  1.
          1   -1    0    0  501    0  0.00000000000E+00 -0.00000000000E+00 -0.48540170845E+03  0.48540170845E+03  0.00000000000E+00 0. -1.
        -24    2    1    2    0    0  0.40096814843E+03 -0.42294107721E+03  0.28713398959E+03  0.65421239464E+03  0.76767952179E+02 0.  0.
    5000000    2    1    2    0    0 -0.40096814843E+03  0.42294107721E+03  0.27756532351E+03  0.88129033535E+03  0.59997961258E+03 0.  0.
        -24    2    4    4    0    0 -0.31734936692E+03  0.54890116588E+03  0.30855245375E+03  0.70958582035E+03  0.79399679727E+02 0.  0.
         24    2    4    4    0    0 -0.83618781504E+02 -0.12596008867E+03 -0.30987130240E+02  0.17170451499E+03  0.75260837561E+02 0.  0.
         13    1    5    5    0    0 -0.19501292177E+03  0.26440954505E+03  0.14149525872E+03  0.35771966036E+03  0.00000000000E+00 0. -1.
        -14    1    5    5    0    0 -0.12233644516E+03  0.28449162083E+03  0.16705719503E+03  0.35186615999E+03  0.00000000000E+00 0.  1.
         15    1    3    3    0    0  0.26556921086E+03 -0.31286629098E+03  0.17090299507E+03  0.44454843746E+03  0.17770000000E+01 0. -1.
        -16    1    3    3    0    0  0.13539893757E+03 -0.11007478623E+03  0.11623099452E+03  0.20966395719E+03  0.00000000000E+00 0.  1.
          4    1    6    6  502    0 -0.94195607780E+01 -0.58191470894E+02  0.15545593403E+02  0.60964259072E+02  0.00000000000E+00 0. -1.
         -3    1    6    6    0  502 -0.74199220726E+02 -0.67768617775E+02 -0.46532723643E+02  0.11074025592E+03  0.00000000000E+00 0.  1.
<mgrwt>
<rscale>  0 0.69127306E+03</rscale>
<asrwt>0</asrwt>
<pdfrwt beam="1">  1        1 0.74677186E-01 0.69127306E+03</pdfrwt>
<pdfrwt beam="2">  1       -2 0.16155400E+00 0.69127306E+03</pdfrwt>
<totfact> 0.10174292E+01</totfact>
</mgrwt>
</event>
<event>
12    3  0.1176505E-007  0.7254732E+03  0.7818608E-02  0.9674635E-01
         -2   -1    0    0    0  501 -0.00000000000E+00  0.00000000000E+00  0.76136411402E+03  0.76136411402E+03  0.00000000000E+00 0.  1.
          1   -1    0    0  501    0  0.00000000000E+00 -0.00000000000E+00 -0.12576717219E+04  0.12576717219E+04  0.00000000000E+00 0. -1.
        -24    2    1    2    0    0 -0.63637439616E+03 -0.16134297476E+03  0.38663102106E+03  0.76614794773E+03  0.80592826993E+02 0.  0.
    5000000    2    1    2    0    0  0.63637439616E+03  0.16134297476E+03 -0.88293862896E+03  0.12528878882E+04  0.59928583357E+03 0.  0.
        -24    2    4    4    0    0  0.53556903891E+03  0.29161742459E+03 -0.87570286460E+03  0.10699382879E+04  0.77701447926E+02 0.  0.
         24    2    4    4    0    0  0.10080535725E+03 -0.13027444982E+03 -0.72357643541E+01  0.18294960034E+03  0.79278292430E+02 0.  0.
         11    1    5    5    0    0  0.79280494614E+02  0.76730923664E+02 -0.16287011046E+03  0.19672240430E+03  0.00000000000E+00 0. -1.
        -12    1    5    5    0    0  0.45628854430E+03  0.21488650092E+03 -0.71283275414E+03  0.87321588357E+03  0.00000000000E+00 0.  1.
         15    1    3    3    0    0 -0.18623261429E+03 -0.72514693417E+02  0.15008026482E+03  0.24993641393E+03  0.17770000000E+01 0. -1.
        -16    1    3    3    0    0 -0.45014178187E+03 -0.88828281347E+02  0.23655075623E+03  0.51621153380E+03  0.00000000000E+00 0.  1.
          4    1    6    6  502    0  0.42284443976E+00 -0.47403980966E+02  0.17344918408E+02  0.50479326495E+02  0.00000000000E+00 0. -1.
         -3    1    6    6    0  502  0.10038251281E+03 -0.82870468858E+02 -0.24580682762E+02  0.13247027384E+03  0.00000000000E+00 0.  1.
<mgrwt>
<rscale>  0 0.72547315E+03</rscale>
<asrwt>0</asrwt>
<pdfrwt beam="1">  1        1 0.19348796E+00 0.72547315E+03</pdfrwt>
<pdfrwt beam="2">  1       -2 0.11713294E+00 0.72547315E+03</pdfrwt>
<totfact> 0.49525575E+00</totfact>
</mgrwt>
</event>
<event>
12    3  0.1176505E-007  0.1603411E+04  0.7818608E-02  0.8818455E-01
          1   -1    0    0  501    0  0.00000000000E+00  0.00000000000E+00  0.15087875424E+04  0.15087875424E+04  0.00000000000E+00 0. -1.
         -2   -1    0    0    0  501 -0.00000000000E+00 -0.00000000000E+00 -0.17168368885E+04  0.17168368885E+04  0.00000000000E+00 0.  1.
        -24    2    1    2    0    0  0.12781830181E+04  0.87984440763E+03 -0.55623031615E+02  0.15547446396E+04  0.79113609669E+02 0.  0.
    5000000    2    1    2    0    0 -0.12781830181E+04 -0.87984440763E+03 -0.15242631454E+03  0.16708797913E+04  0.60060593257E+03 0.  0.
        -24    2    4    4    0    0 -0.48600121595E+03 -0.27191643788E+02  0.86009789958E+01  0.49318342243E+03  0.78862817145E+02 0.  0.
         24    2    4    4    0    0 -0.79218180214E+03 -0.85265276384E+03 -0.16102729354E+03  0.11776963689E+04  0.80437582285E+02 0.  0.
         11    1    5    5    0    0 -0.12963571743E+03 -0.12870122026E+02  0.36931642342E+02  0.13540681475E+03  0.00000000000E+00 0. -1.
        -12    1    5    5    0    0 -0.35636549852E+03 -0.14321521761E+02 -0.28330663346E+02  0.35777660769E+03  0.00000000000E+00 0.  1.
         15    1    3    3    0    0  0.35338322450E+03  0.28115630571E+03  0.15321664095E+01  0.45159060759E+03  0.17770000000E+01 0. -1.
        -16    1    3    3    0    0  0.92479979359E+03  0.59868810192E+03 -0.57155198025E+02  0.11031540320E+04  0.00000000000E+00 0.  1.
          2    1    6    6  502    0 -0.43371419563E+03 -0.40774548911E+03 -0.82095995273E+02  0.60091941209E+03  0.00000000000E+00 0. -1.
         -1    1    6    6    0  502 -0.35846760651E+03 -0.44490727473E+03 -0.78931298263E+02  0.57677695678E+03  0.00000000000E+00 0.  1.
<mgrwt>
<rscale>  0 0.16034112E+04</rscale>
<asrwt>0</asrwt>
<pdfrwt beam="1">  1        1 0.23212116E+00 0.16034112E+04</pdfrwt>
<pdfrwt beam="2">  1       -2 0.26412875E+00 0.16034112E+04</pdfrwt>
<totfact> 0.27760392E-01</totfact>
</mgrwt>
</event>
<event>
12    3  0.1176505E-007  0.1103376E+04  0.7818608E-02  0.9201907E-01
          1   -1    0    0  501    0  0.00000000000E+00  0.00000000000E+00  0.12012760182E+04  0.12012760182E+04  0.00000000000E+00 0. -1.
         -2   -1    0    0    0  501 -0.00000000000E+00 -0.00000000000E+00 -0.11194308216E+04  0.11194308216E+04  0.00000000000E+00 0.  1.
        -24    2    1    2    0    0 -0.10126572893E+04 -0.34283973938E+03 -0.11806284427E+03  0.10785764879E+04  0.79840669903E+02 0.  0.
    5000000    2    1    2    0    0  0.10126572893E+04  0.34283973938E+03  0.19990804082E+03  0.12421303519E+04  0.59992559019E+03 0.  0.
        -24    2    4    4    0    0  0.74291457551E+03  0.62311328982E+02 -0.83449113024E+02  0.75464036359E+03  0.81936290258E+02 0.  0.
         24    2    4    4    0    0  0.26974271383E+03  0.28052841040E+03  0.28335715385E+03  0.48748998832E+03  0.76797730199E+02 0.  0.
         11    1    5    5    0    0  0.29919749999E+03  0.49092985336E+02 -0.66486309434E+02  0.31040247189E+03  0.00000000000E+00 0. -1.
        -12    1    5    5    0    0  0.44371707552E+03  0.13218343646E+02 -0.16962803590E+02  0.44423789170E+03  0.00000000000E+00 0.  1.
         15    1    3    3    0    0 -0.12919265282E+03 -0.25435767591E+02 -0.34400964067E+02  0.13610401858E+03  0.17770000000E+01 0. -1.
        -16    1    3    3    0    0 -0.88346463652E+03 -0.31740397179E+03 -0.83661880207E+02  0.94247246936E+03  0.00000000000E+00 0.  1.
          2    1    6    6  502    0  0.18662050662E+03  0.19719554691E+03  0.15215805473E+03  0.31123202090E+03  0.00000000000E+00 0. -1.
         -3    1    6    6    0  502  0.83122207210E+02  0.83332863493E+02  0.13119909912E+03  0.17625796742E+03  0.00000000000E+00 0.  1.
<mgrwt>
<rscale>  0 0.11033762E+04</rscale>
<asrwt>0</asrwt>
<pdfrwt beam="1">  1        1 0.18481170E+00 0.11033762E+04</pdfrwt>
<pdfrwt beam="2">  1       -2 0.17222012E+00 0.11033762E+04</pdfrwt>
<totfact> 0.18925868E+00</totfact>
</mgrwt>
</event>
<event>
12    3  0.1176505E-007  0.8815291E+03  0.7818608E-02  0.9448970E-01
          1   -1    0    0  501    0  0.00000000000E+00  0.00000000000E+00  0.19732937114E+04  0.19732937114E+04  0.00000000000E+00 0. -1.
         -2   -1    0    0    0  501 -0.00000000000E+00 -0.00000000000E+00 -0.54185268616E+03  0.54185268616E+03  0.00000000000E+00 0.  1.
        -24    2    1    2    0    0  0.51079839749E+03 -0.64688743653E+03  0.12194358806E+04  0.14738106906E+04  0.75602423945E+02 0.  0.
    5000000    2    1    2    0    0 -0.51079839749E+03  0.64688743653E+03  0.21200514466E+03  0.10413357069E+04  0.60004626051E+03 0.  0.
        -24    2    4    4    0    0 -0.89639659136E+02  0.46137879771E+03  0.30455681963E+03  0.56555172737E+03  0.78665344858E+02 0.  0.
         24    2    4    4    0    0 -0.42115873835E+03  0.18550863882E+03 -0.92551674970E+02  0.47578397957E+03  0.77565744395E+02 0.  0.
         11    1    5    5    0    0 -0.45518776463E+02  0.93096454536E+02  0.88647304617E+02  0.13637174734E+03  0.00000000000E+00 0. -1.
        -12    1    5    5    0    0 -0.44120882673E+02  0.36828234317E+03  0.21590951501E+03  0.42917998003E+03  0.00000000000E+00 0.  1.
         15    1    3    3    0    0  0.44561266407E+02 -0.88932440963E+02  0.12318915776E+03  0.15834586145E+03  0.17770000000E+01 0. -1.
        -16    1    3    3    0    0  0.46623713108E+03 -0.55795499557E+03  0.10962467228E+04  0.13154648292E+04  0.00000000000E+00 0.  1.
          2    1    6    6  502    0 -0.10269382092E+03  0.27004290843E+02  0.69151980097E+01  0.10640992690E+03  0.00000000000E+00 0. -1.
         -1    1    6    6    0  502 -0.31846491743E+03  0.15850434798E+03 -0.99466872980E+02  0.36937405267E+03  0.00000000000E+00 0.  1.
<mgrwt>
<rscale>  0 0.88152914E+03</rscale>
<asrwt>0</asrwt>
<pdfrwt beam="1">  1        1 0.30358364E+00 0.88152914E+03</pdfrwt>
<pdfrwt beam="2">  1       -2 0.83361953E-01 0.88152914E+03</pdfrwt>
<totfact> 0.35125711E+00</totfact>
</mgrwt>
</event>
<event>
12    3  0.1176505E-007  0.5559346E+03  0.7818608E-02  0.1000130E+00
         -2   -1    0    0    0  501 -0.00000000000E+00  0.00000000000E+00  0.19362230596E+04  0.19362230596E+04  0.00000000000E+00 0.  1.
          1   -1    0    0  501    0  0.00000000000E+00 -0.00000000000E+00 -0.21891373152E+03  0.21891373152E+03  0.00000000000E+00 0. -1.
        -24    2    1    2    0    0  0.23647116402E+03  0.34279758920E+03  0.19481862254E+03  0.46649378534E+03  0.78951614938E+02 0.  0.
    5000000    2    1    2    0    0 -0.23647116402E+03 -0.34279758920E+03  0.15224907055E+04  0.16886430058E+04  0.60009037150E+03 0.  0.
        -24    2    4    4    0    0  0.13718285153E+03  0.36283998722E+02  0.18539657990E+03  0.24731158684E+03  0.81581038413E+02 0.  0.
         24    2    4    4    0    0 -0.37365401555E+03 -0.37908158792E+03  0.13370941256E+04  0.14413314189E+04  0.79343460921E+02 0.  0.
         13    1    5    5    0    0 -0.56332225728E+01  0.12971683826E+02  0.38923176655E+02  0.41412696830E+02  0.00000000000E+00 0. -1.
        -14    1    5    5    0    0  0.14281607411E+03  0.23312314896E+02  0.14647340324E+03  0.20589889001E+03  0.00000000000E+00 0.  1.
         15    1    3    3    0    0  0.11071740164E+03  0.14772467492E+03  0.44280765948E+02  0.18985485658E+03  0.17770000000E+01 0. -1.
        -16    1    3    3    0    0  0.12575376238E+03  0.19507291428E+03  0.15053785659E+03  0.27663892876E+03  0.00000000000E+00 0.  1.
          2    1    6    6  502    0 -0.14220789792E+03 -0.10054308305E+03  0.37986145049E+03  0.41788361938E+03  0.00000000000E+00 0. -1.
         -1    1    6    6    0  502 -0.23144611763E+03 -0.27853850487E+03  0.95723267514E+03  0.10234477996E+04  0.00000000000E+00 0.  1.
<mgrwt>
<rscale>  0 0.55593463E+03</rscale>
<asrwt>0</asrwt>
<pdfrwt beam="1">  1        1 0.33679037E-01 0.55593463E+03</pdfrwt>
<pdfrwt beam="2">  1       -2 0.29788046E+00 0.55593463E+03</pdfrwt>
<totfact> 0.40545557E+00</totfact>
</mgrwt>
</event>
<event>
12    3  0.1176505E-007  0.5000244E+03  0.7818608E-02  0.1013773E+00
          1   -1    0    0  501    0  0.00000000000E+00  0.00000000000E+00  0.32618301123E+03  0.32618301123E+03  0.00000000000E+00 0. -1.
         -2   -1    0    0    0  501 -0.00000000000E+00 -0.00000000000E+00 -0.11460972815E+04  0.11460972815E+04  0.00000000000E+00 0.  1.
        -24    2    1    2    0    0  0.44702191529E+03 -0.10276498336E+03 -0.28532323487E+03  0.54704181452E+03  0.86349081757E+02 0.  0.
    5000000    2    1    2    0    0 -0.44702191529E+03  0.10276498336E+03 -0.53459103537E+03  0.92523847818E+03  0.59990785280E+03 0.  0.
        -24    2    4    4    0    0 -0.22212919532E+03  0.18780073781E+03  0.33458390500E+02  0.30345800558E+03  0.79729547369E+02 0.  0.
         24    2    4    4    0    0 -0.22489271997E+03 -0.85035754453E+02 -0.56804942587E+03  0.62178047260E+03  0.78249542105E+02 0.  0.
         11    1    5    5    0    0 -0.16186112137E+03  0.12027959176E+03 -0.12317088650E+02  0.20203443637E+03  0.00000000000E+00 0. -1.
        -12    1    5    5    0    0 -0.60268073943E+02  0.67521146049E+02  0.45775479149E+02  0.10142356921E+03  0.00000000000E+00 0.  1.
         15    1    3    3    0    0  0.23313247022E+03 -0.19088061806E+02 -0.17564769507E+03  0.29252414137E+03  0.17770000000E+01 0. -1.
        -16    1    3    3    0    0  0.21388944507E+03 -0.83676921549E+02 -0.10967553981E+03  0.25451767315E+03  0.00000000000E+00 0.  1.
          4    1    6    6  502    0 -0.16374949012E+03 -0.40606504654E+02 -0.31054633949E+03  0.35341450551E+03  0.00000000000E+00 0. -1.
         -3    1    6    6    0  502 -0.61143229849E+02 -0.44429249799E+02 -0.25750308638E+03  0.26836596709E+03  0.00000000000E+00 0.  1.
<mgrwt>
<rscale>  0 0.50002439E+03</rscale>
<asrwt>0</asrwt>
<pdfrwt beam="1">  1        1 0.50182002E-01 0.50002439E+03</pdfrwt>
<pdfrwt beam="2">  1       -2 0.17632266E+00 0.50002439E+03</pdfrwt>
<totfact> 0.13836148E+01</totfact>
</mgrwt>
</event>
<event>
12    3  0.1176505E-007  0.8502964E+03  0.7818608E-02  0.9489939E-01
          1   -1    0    0  501    0  0.00000000000E+00  0.00000000000E+00  0.20113071616E+04  0.20113071616E+04  0.00000000000E+00 0. -1.
         -2   -1    0    0    0  501 -0.00000000000E+00 -0.00000000000E+00 -0.40172584181E+03  0.40172584181E+03  0.00000000000E+00 0.  1.
        -24    2    1    2    0    0  0.27067536016E+03 -0.74586642667E+03  0.81159359240E+03  0.11377184317E+04  0.78340242867E+02 0.  0.
    5000000    2    1    2    0    0 -0.27067536016E+03  0.74586642667E+03  0.79798772736E+03  0.12753145716E+04  0.60005080335E+03 0.  0.
        -24    2    4    4    0    0  0.92133874757E+02  0.34821024120E+03  0.58452111730E+03  0.69113325477E+03  0.79127847965E+02 0.  0.
         24    2    4    4    0    0 -0.36280923492E+03  0.39765618547E+03  0.21346661006E+03  0.58418131688E+03  0.77063834528E+02 0.  0.
         11    1    5    5    0    0  0.17164708647E+02  0.20927823167E+03  0.30914155547E+03  0.37371179643E+03  0.00000000000E+00 0. -1.
        -12    1    5    5    0    0  0.74969166110E+02  0.13893200953E+03  0.27537956183E+03  0.31742145834E+03  0.00000000000E+00 0.  1.
         15    1    3    3    0    0  0.26652065798E+03 -0.71903772336E+03  0.76132136730E+03  0.10805840508E+04  0.17770000000E+01 0. -1.
        -16    1    3    3    0    0  0.41547021856E+01 -0.26828703309E+02  0.50272225106E+02  0.57134380968E+02  0.00000000000E+00 0.  1.
          4    1    6    6  502    0 -0.14714232499E+03  0.17752606562E+03  0.13088848834E+03  0.26513800965E+03  0.00000000000E+00 0. -1.
         -3    1    6    6    0  502 -0.21566690993E+03  0.22013011985E+03  0.82578121722E+02  0.31904330723E+03  0.00000000000E+00 0.  1.
<mgrwt>
<rscale>  0 0.85029640E+03</rscale>
<asrwt>0</asrwt>
<pdfrwt beam="1">  1        1 0.30943187E+00 0.85029640E+03</pdfrwt>
<pdfrwt beam="2">  1       -2 0.61803977E-01 0.85029640E+03</pdfrwt>
<totfact> 0.64259709E+00</totfact>
</mgrwt>
</event>
<event>
12    3  0.1176505E-007  0.1524991E+04  0.7818608E-02  0.8868002E-01
         -2   -1    0    0    0  501 -0.00000000000E+00  0.00000000000E+00  0.64951337968E+03  0.64951337968E+03  0.00000000000E+00 0.  1.
          1   -1    0    0  501    0  0.00000000000E+00 -0.00000000000E+00 -0.39070701708E+04  0.39070701708E+04  0.00000000000E+00 0. -1.
        -24    2    1    2    0    0  0.40496327039E+03  0.14490999518E+04 -0.20096518645E+04  0.25117635722E+04  0.79810434540E+02 0.  0.
    5000000    2    1    2    0    0 -0.40496327039E+03 -0.14490999518E+04 -0.12479049267E+04  0.20448199783E+04  0.60011342025E+03 0.  0.
        -24    2    4    4    0    0 -0.30364167292E+03 -0.49851216757E+03 -0.19522248913E+03  0.62061042797E+03  0.79579119700E+02 0.  0.
         24    2    4    4    0    0 -0.10132159747E+03 -0.95058778421E+03 -0.10526824375E+04  0.14242095504E+04  0.79682667073E+02 0.  0.
         11    1    5    5    0    0 -0.25474060960E+01  0.11093050317E+01  0.33972351358E+01  0.43887403704E+01  0.00000000000E+00 0. -1.
        -12    1    5    5    0    0 -0.30109426683E+03 -0.49962147261E+03 -0.19861972426E+03  0.61622168760E+03  0.00000000000E+00 0.  1.
         15    1    3    3    0    0  0.13059170214E+03  0.37622749637E+03 -0.57428436571E+03  0.69886122523E+03  0.17770000000E+01 0. -1.
        -16    1    3    3    0    0  0.27437156825E+03  0.10728724554E+04 -0.14353674988E+04  0.18129023470E+04  0.00000000000E+00 0.  1.
          2    1    6    6  502    0  0.62145420669E+01 -0.18604254190E+03 -0.17858767901E+03  0.25796125101E+03  0.00000000000E+00 0. -1.
         -1    1    6    6    0  502 -0.10753613954E+03 -0.76454524231E+03 -0.87409475853E+03  0.11662482993E+04  0.00000000000E+00 0.  1.
<mgrwt>
<rscale>  0 0.15249911E+04</rscale>
<asrwt>0</asrwt>
<pdfrwt beam="1">  1        1 0.60108771E+00 0.15249911E+04</pdfrwt>
<pdfrwt beam="2">  1       -2 0.99925136E-01 0.15249911E+04</pdfrwt>
<totfact> 0.80856970E-02</totfact>
</mgrwt>
</event>
<event>
12    3  0.1176505E-007  0.4483287E+03  0.7818608E-02  0.1028222E+00
          1   -1    0    0  501    0  0.00000000000E+00  0.00000000000E+00  0.89342648302E+03  0.89342648302E+03  0.00000000000E+00 0. -1.
         -4   -1    0    0    0  501 -0.00000000000E+00 -0.00000000000E+00 -0.24777218599E+03  0.24777218599E+03  0.00000000000E+00 0.  1.
        -24    2    1    2    0    0 -0.24350006387E+03 -0.88091589993E+02  0.97812283037E+02  0.28844650254E+03  0.81127879180E+02 0.  0.
    5000000    2    1    2    0    0  0.24350006387E+03  0.88091589993E+02  0.54784201399E+03  0.85275216647E+03  0.60000247983E+03 0.  0.
        -24    2    4    4    0    0  0.44429656152E+02  0.31987007906E+03  0.33322985506E+03  0.47084370482E+03  0.79754600143E+02 0.  0.
         24    2    4    4    0    0  0.19907040772E+03 -0.23177848906E+03  0.21461215893E+03  0.38190846165E+03  0.80283242953E+02 0.  0.
         13    1    5    5    0    0  0.44734163876E+02  0.13475313853E+03  0.10293745516E+03  0.17537295526E+03  0.00000000000E+00 0. -1.
        -14    1    5    5    0    0 -0.30450772314E+00  0.18511694053E+03  0.23029239990E+03  0.29547074956E+03  0.00000000000E+00 0.  1.
         15    1    3    3    0    0 -0.22051081186E+03 -0.62884604871E+02  0.10710269579E+03  0.25308819975E+03  0.17770000000E+01 0. -1.
        -16    1    3    3    0    0 -0.22989252009E+02 -0.25206985122E+02 -0.92904127539E+01  0.35358302787E+02  0.00000000000E+00 0.  1.
          2    1    6    6  502    0  0.14599226277E+03 -0.15652292610E+03  0.10396986166E+03  0.23795566671E+03  0.00000000000E+00 0. -1.
         -1    1    6    6    0  502  0.53078144945E+02 -0.75255562961E+02  0.11064229726E+03  0.14395279494E+03  0.00000000000E+00 0.  1.
<mgrwt>
<rscale>  0 0.44832866E+03</rscale>
<asrwt>0</asrwt>
<pdfrwt beam="1">  1        1 0.13745023E+00 0.44832866E+03</pdfrwt>
<pdfrwt beam="2">  1       -4 0.38118798E-01 0.44832866E+03</pdfrwt>
<totfact> 0.61105857E+01</totfact>
</mgrwt>
</event>
<event>
12    3  0.1176505E-007  0.6274536E+03  0.7818608E-02  0.9850031E-01
         -2   -1    0    0    0  501 -0.00000000000E+00  0.00000000000E+00  0.41865536593E+03  0.41865536593E+03  0.00000000000E+00 0.  1.
          1   -1    0    0  501    0  0.00000000000E+00 -0.00000000000E+00 -0.99552437256E+03  0.99552437256E+03  0.00000000000E+00 0. -1.
        -24    2    1    2    0    0  0.98003471014E+02  0.48355523449E+03 -0.33031642364E+03  0.59921953827E+03  0.80776049563E+02 0.  0.
    5000000    2    1    2    0    0 -0.98003471014E+02 -0.48355523449E+03 -0.24655258299E+03  0.81496020022E+03  0.59995133688E+03 0.  0.
        -24    2    4    4    0    0  0.20924895426E+03 -0.35789773843E+03 -0.21164595413E+03  0.47202169687E+03  0.78323408945E+02 0.  0.
         24    2    4    4    0    0 -0.30725242527E+03 -0.12565749606E+03 -0.34906628858E+02  0.34293850334E+03  0.78705051854E+02 0.  0.
         13    1    5    5    0    0  0.21411138949E+03 -0.33094737065E+03 -0.19293979524E+03  0.43885716792E+03  0.00000000000E+00 0. -1.
        -14    1    5    5    0    0 -0.48624352387E+01 -0.26950367787E+02 -0.18706158890E+02  0.33164528954E+02  0.00000000000E+00 0.  1.
         15    1    3    3    0    0  0.73590613716E+02  0.43983458787E+03 -0.27201344601E+03  0.52236435144E+03  0.17770000000E+01 0. -1.
        -16    1    3    3    0    0  0.24412857298E+02  0.43720646621E+02 -0.58302977630E+02  0.76855186832E+02  0.00000000000E+00 0.  1.
          2    1    6    6  502    0 -0.29080116383E+03 -0.10131507170E+03 -0.46339954526E+02  0.31141202936E+03  0.00000000000E+00 0. -1.
         -1    1    6    6    0  502 -0.16451261434E+02 -0.24342424354E+02  0.11433325668E+02  0.31526473987E+02  0.00000000000E+00 0.  1.
<mgrwt>
<rscale>  0 0.62745362E+03</rscale>
<asrwt>0</asrwt>
<pdfrwt beam="1">  1        1 0.15315759E+00 0.62745362E+03</pdfrwt>
<pdfrwt beam="2">  1       -2 0.64408518E-01 0.62745362E+03</pdfrwt>
<totfact> 0.30848139E+01</totfact>
</mgrwt>
</event>
<event>
12    3  0.1176505E-007  0.1034907E+04  0.7818608E-02  0.9271067E-01
          1   -1    0    0  501    0  0.00000000000E+00  0.00000000000E+00  0.20946699107E+04  0.20946699107E+04  0.00000000000E+00 0. -1.
         -4   -1    0    0    0  501 -0.00000000000E+00 -0.00000000000E+00 -0.66079369077E+03  0.66079369077E+03  0.00000000000E+00 0.  1.
        -24    2    1    2    0    0  0.76159706719E+03  0.59828935587E+03  0.64139873140E+02  0.97388263936E+03  0.79707125295E+02 0.  0.
    5000000    2    1    2    0    0 -0.76159706719E+03 -0.59828935587E+03  0.13697363468E+04  0.17815809621E+04  0.59989400622E+03 0.  0.
        -24    2    4    4    0    0 -0.17081298980E+03 -0.45732910056E+03  0.40810405174E+03  0.64128289773E+03  0.79798835641E+02 0.  0.
         24    2    4    4    0    0 -0.59078407739E+03 -0.14096025531E+03  0.96163229503E+03  0.11402980644E+04  0.81531497329E+02 0.  0.
         13    1    5    5    0    0 -0.83784406309E+02 -0.18318996170E+03  0.12151359237E+03  0.23525293184E+03  0.00000000000E+00 0. -1.
        -14    1    5    5    0    0 -0.87028583492E+02 -0.27413913886E+03  0.28659045937E+03  0.40602996589E+03  0.00000000000E+00 0.  1.
         15    1    3    3    0    0  0.44120422627E+03  0.36488309952E+03  0.74387415452E+02  0.57735386973E+03  0.17770000000E+01 0. -1.
        -16    1    3    3    0    0  0.32039284092E+03  0.23340625635E+03 -0.10247542312E+02  0.39652876963E+03  0.00000000000E+00 0.  1.
          2    1    6    6  502    0 -0.71652931782E+02  0.70393845127E+01  0.13541728551E+03  0.15336732632E+03  0.00000000000E+00 0. -1.
         -1    1    6    6    0  502 -0.51913114561E+03 -0.14799963982E+03  0.82621500952E+03  0.98693073804E+03  0.00000000000E+00 0.  1.
<mgrwt>
<rscale>  0 0.10349071E+04</rscale>
<asrwt>0</asrwt>
<pdfrwt beam="1">  1        1 0.32225691E+00 0.10349071E+04</pdfrwt>
<pdfrwt beam="2">  1       -4 0.10166057E+00 0.10349071E+04</pdfrwt>
<totfact> 0.98182625E-01</totfact>
</mgrwt>
</event>
<event>
12    3  0.1176505E-007  0.1530406E+04  0.7818608E-02  0.8864481E-01
          1   -1    0    0  501    0  0.00000000000E+00  0.00000000000E+00  0.31172108182E+04  0.31172108182E+04  0.00000000000E+00 0. -1.
         -2   -1    0    0    0  501 -0.00000000000E+00 -0.00000000000E+00 -0.78694755358E+03  0.78694755358E+03  0.00000000000E+00 0.  1.
        -24    2    1    2    0    0 -0.14828137376E+04 -0.23883808674E+03  0.96034041355E+03  0.17846190308E+04  0.82650851324E+02 0.  0.
    5000000    2    1    2    0    0  0.14828137376E+04  0.23883808674E+03  0.13699228511E+04  0.21195393410E+04  0.59998182323E+03 0.  0.
        -24    2    4    4    0    0  0.60755650692E+03  0.30005823476E+03  0.87286731927E+03  0.11076741282E+04  0.76712214744E+02 0.  0.
         24    2    4    4    0    0  0.87525723064E+03 -0.61220148019E+02  0.49705553182E+03  0.10118652128E+04  0.83569616979E+02 0.  0.
         13    1    5    5    0    0  0.59214362794E+03  0.27753846689E+03  0.82723244015E+03  0.10545023408E+04  0.00000000000E+00 0. -1.
        -14    1    5    5    0    0  0.15412878974E+02  0.22519767862E+02  0.45634879115E+02  0.53171787394E+02  0.00000000000E+00 0.  1.
         15    1    3    3    0    0 -0.71544434495E+03 -0.12429474042E+03  0.41650876467E+03  0.83713350309E+03  0.17770000000E+01 0. -1.
        -16    1    3    3    0    0 -0.76736939261E+03 -0.11454334632E+03  0.54383164888E+03  0.94748552771E+03  0.00000000000E+00 0.  1.
          2    1    6    6  502    0  0.10821416506E+03 -0.12649248925E+02  0.94608746660E+02  0.14429526660E+03  0.00000000000E+00 0. -1.
         -1    1    6    6    0  502  0.76704306558E+03 -0.48570899094E+02  0.40244678516E+03  0.86756994622E+03  0.00000000000E+00 0.  1.
<mgrwt>
<rscale>  0 0.15304061E+04</rscale>
<asrwt>0</asrwt>
<pdfrwt beam="1">  1        1 0.47957089E+00 0.15304061E+04</pdfrwt>
<pdfrwt beam="2">  1       -2 0.12106886E+00 0.15304061E+04</pdfrwt>
<totfact> 0.21234403E-01</totfact>
</mgrwt>
</event>
<event>
12    3  0.1176505E-007  0.7543077E+03  0.7818608E-02  0.9628616E-01
         -2   -1    0    0    0  501 -0.00000000000E+00  0.00000000000E+00  0.52790247384E+03  0.52790247384E+03  0.00000000000E+00 0.  1.
          1   -1    0    0  501    0  0.00000000000E+00 -0.00000000000E+00 -0.13991397577E+04  0.13991397577E+04  0.00000000000E+00 0. -1.
        -24    2    1    2    0    0 -0.26288354088E+03  0.58432853002E+03  0.58723115314E+02  0.64829173660E+03  0.79285461508E+02 0.  0.
    5000000    2    1    2    0    0  0.26288354088E+03 -0.58432853002E+03 -0.92996039916E+03  0.12787504949E+04  0.59985739741E+03 0.  0.
        -24    2    4    4    0    0 -0.89561123218E+02 -0.48317470975E+03 -0.59585680973E+03  0.77622430681E+03  0.77458646038E+02 0.  0.
         24    2    4    4    0    0  0.35244466409E+03 -0.10115382027E+03 -0.33410358943E+03  0.50252618812E+03  0.80361835925E+02 0.  0.
         11    1    5    5    0    0 -0.68152832952E+02 -0.21566399321E+03 -0.23090048276E+03  0.32321942941E+03  0.00000000000E+00 0. -1.
        -12    1    5    5    0    0 -0.21408290266E+02 -0.26751071654E+03 -0.36495632697E+03  0.45300487740E+03  0.00000000000E+00 0.  1.
         15    1    3    3    0    0 -0.55806143751E+02  0.12753405189E+03  0.45885801626E+02  0.14658760040E+03  0.17770000000E+01 0. -1.
        -16    1    3    3    0    0 -0.20707739713E+03  0.45679447813E+03  0.12837313688E+02  0.50170413620E+03  0.00000000000E+00 0.  1.
          4    1    6    6  502    0  0.12269634810E+03 -0.10443899439E+01 -0.13517857735E+03  0.18256158512E+03  0.00000000000E+00 0. -1.
         -3    1    6    6    0  502  0.22974831599E+03 -0.10010943032E+03 -0.19892501208E+03  0.31996460300E+03  0.00000000000E+00 0.  1.
<mgrwt>
<rscale>  0 0.75430771E+03</rscale>
<asrwt>0</asrwt>
<pdfrwt beam="1">  1        1 0.21525227E+00 0.75430771E+03</pdfrwt>
<pdfrwt beam="2">  1       -2 0.81215767E-01 0.75430771E+03</pdfrwt>
<totfact> 0.92887554E+00</totfact>
</mgrwt>
</event>
<event>
12    3  0.1176505E-007  0.9129328E+03  0.7818608E-02  0.9409558E-01
         -2   -1    0    0    0  501 -0.00000000000E+00  0.00000000000E+00  0.75429131943E+03  0.75429131943E+03  0.00000000000E+00 0.  1.
          1   -1    0    0  501    0  0.00000000000E+00 -0.00000000000E+00 -0.13168563576E+04  0.13168563576E+04  0.00000000000E+00 0. -1.
        -24    2    1    2    0    0  0.69076199011E+02 -0.82136919551E+03  0.12936654231E+03  0.83912899855E+03  0.89347061173E+02 0.  0.
    5000000    2    1    2    0    0 -0.69076199011E+02  0.82136919551E+03 -0.69193158044E+03  0.12320186784E+04  0.59973480421E+03 0.  0.
        -24    2    4    4    0    0  0.22458489164E+03  0.53014691843E+03 -0.51092875285E+03  0.77388325279E+03  0.79705519112E+02 0.  0.
         24    2    4    4    0    0 -0.29366109065E+03  0.29122227708E+03 -0.18100282758E+03  0.45813542564E+03  0.77966619794E+02 0.  0.
         11    1    5    5    0    0  0.19405712809E+03  0.50719810930E+03 -0.47752835656E+03  0.72314688850E+03  0.00000000000E+00 0. -1.
        -12    1    5    5    0    0  0.30527763546E+02  0.22948809134E+02 -0.33400396298E+02  0.50736364282E+02  0.00000000000E+00 0.  1.
         15    1    3    3    0    0 -0.88037858501E+01 -0.17982395381E+03 -0.24484806340E-01  0.18004810285E+03  0.17770000000E+01 0. -1.
        -16    1    3    3    0    0  0.77879984861E+02 -0.64154524170E+03  0.12939102712E+03  0.65908089571E+03  0.00000000000E+00 0.  1.
          2    1    6    6  502    0 -0.21075711665E+03  0.24580211436E+03 -0.16060333609E+03  0.36142865576E+03  0.00000000000E+00 0. -1.
         -1    1    6    6    0  502 -0.82903974004E+02  0.45420162719E+02 -0.20399491493E+02  0.96706769878E+02  0.00000000000E+00 0.  1.
<mgrwt>
<rscale>  0 0.91293281E+03</rscale>
<asrwt>0</asrwt>
<pdfrwt beam="1">  1        1 0.20259329E+00 0.91293281E+03</pdfrwt>
<pdfrwt beam="2">  1       -2 0.11604482E+00 0.91293281E+03</pdfrwt>
<totfact> 0.44879078E+00</totfact>
</mgrwt>
</event>
<event>
12    3  0.1176505E-007  0.6062026E+03  0.7818608E-02  0.9892621E-01
         -2   -1    0    0    0  501 -0.00000000000E+00  0.00000000000E+00  0.41181706640E+03  0.41181706640E+03  0.00000000000E+00 0.  1.
          1   -1    0    0  501    0  0.00000000000E+00 -0.00000000000E+00 -0.93307003935E+03  0.93307003935E+03  0.00000000000E+00 0. -1.
        -24    2    1    2    0    0 -0.13340701469E+03  0.44264350853E+03 -0.29618809514E+03  0.55457426906E+03  0.78067438721E+02 0.  0.
    5000000    2    1    2    0    0  0.13340701469E+03 -0.44264350853E+03 -0.22506487781E+03  0.79031283670E+03  0.60017453579E+03 0.  0.
        -24    2    4    4    0    0  0.23269231531E+03 -0.53896352804E+03 -0.21433721559E+03  0.63008663375E+03  0.80257871171E+02 0.  0.
         24    2    4    4    0    0 -0.99285300618E+02  0.96320019511E+02 -0.10727662224E+02  0.16022620294E+03  0.80138856342E+02 0.  0.
         13    1    5    5    0    0  0.15514327454E+03 -0.29335564874E+03 -0.88621743980E+02  0.34348331224E+03  0.00000000000E+00 0. -1.
        -14    1    5    5    0    0  0.77549040769E+02 -0.24560787930E+03 -0.12571547161E+03  0.28660332151E+03  0.00000000000E+00 0.  1.
         15    1    3    3    0    0 -0.73473620210E+02  0.19548871317E+03 -0.17677078132E+03  0.27361519823E+03  0.17770000000E+01 0. -1.
        -16    1    3    3    0    0 -0.59933394481E+02  0.24715479535E+03 -0.11941731382E+03  0.28095907083E+03  0.00000000000E+00 0.  1.
          4    1    6    6  502    0 -0.51550492999E+02  0.99420580562E+02 -0.91700309522E+01  0.11236545125E+03  0.00000000000E+00 0. -1.
         -3    1    6    6    0  502 -0.47734807620E+02 -0.31005610508E+01 -0.15576312715E+01  0.47860751692E+02  0.00000000000E+00 0.  1.
<mgrwt>
<rscale>  0 0.60620260E+03</rscale>
<asrwt>0</asrwt>
<pdfrwt beam="1">  1        1 0.14354923E+00 0.60620260E+03</pdfrwt>
<pdfrwt beam="2">  1       -2 0.63356473E-01 0.60620260E+03</pdfrwt>
<totfact> 0.35849475E+01</totfact>
</mgrwt>
</event>
<event>
12    3  0.1176505E-007  0.6844849E+03  0.7818608E-02  0.9744139E-01
          1   -1    0    0  501    0  0.00000000000E+00  0.00000000000E+00  0.36543930427E+03  0.36543930427E+03  0.00000000000E+00 0. -1.
         -2   -1    0    0    0  501 -0.00000000000E+00 -0.00000000000E+00 -0.27747437154E+04  0.27747437154E+04  0.00000000000E+00 0.  1.
        -24    2    1    2    0    0  0.59239794307E+03  0.10091243847E+03 -0.22489538045E+02  0.60679930929E+03  0.81123234875E+02 0.  0.
    5000000    2    1    2    0    0 -0.59239794307E+03 -0.10091243847E+03 -0.23868148731E+04  0.25333837103E+04  0.60002428485E+03 0.  0.
        -24    2    4    4    0    0 -0.26986958970E+02  0.12581474217E+03 -0.15574633179E+03  0.21963283145E+03  0.86162726740E+02 0.  0.
         24    2    4    4    0    0 -0.56541098410E+03 -0.22672718064E+03 -0.22310685413E+04  0.23137508789E+04  0.68421476197E+02 0.  0.
         11    1    5    5    0    0  0.27053264594E+02  0.13756348112E+02 -0.33770526973E+02  0.45404457167E+02  0.00000000000E+00 0. -1.
        -12    1    5    5    0    0 -0.54040223564E+02  0.11205839406E+03 -0.12197580482E+03  0.17422837428E+03  0.00000000000E+00 0.  1.
         15    1    3    3    0    0  0.21180160638E+03  0.49898988338E+02  0.28358407940E+02  0.21944745733E+03  0.17770000000E+01 0. -1.
        -16    1    3    3    0    0  0.38059633670E+03  0.51013450131E+02 -0.50847945985E+02  0.38735185195E+03  0.00000000000E+00 0.  1.
          2    1    6    6  502    0 -0.23715144057E+03 -0.12971879887E+03 -0.10262152519E+04  0.10612188822E+04  0.00000000000E+00 0. -1.
         -1    1    6    6    0  502 -0.32825954353E+03 -0.97008381771E+02 -0.12048532893E+04  0.12525319967E+04  0.00000000000E+00 0.  1.
<mgrwt>
<rscale>  0 0.68448487E+03</rscale>
<asrwt>0</asrwt>
<pdfrwt beam="1">  1        1 0.56221434E-01 0.68448487E+03</pdfrwt>
<pdfrwt beam="2">  1       -2 0.42688363E+00 0.68448487E+03</pdfrwt>
<totfact> 0.31691030E-01</totfact>
</mgrwt>
</event>
<event>
12    3  0.1667663E-007  0.8636222E+03  0.7818608E-02  0.9472234E-01
          1   -1    0    0  501    0  0.00000000000E+00  0.00000000000E+00  0.22543862654E+04  0.22543862654E+04  0.00000000000E+00 0. -1.
         -2   -1    0    0    0  501 -0.00000000000E+00 -0.00000000000E+00 -0.39866386159E+03  0.39866386159E+03  0.00000000000E+00 0.  1.
        -24    2    1    2    0    0 -0.79351673602E+03  0.34466517001E+02  0.12640697959E+04  0.14951046623E+04  0.81294225651E+02 0.  0.
    5000000    2    1    2    0    0  0.79351673602E+03 -0.34466517001E+02  0.59165260789E+03  0.11579454647E+04  0.59994011336E+03 0.  0.
        -24    2    4    4    0    0  0.11108505261E+03  0.17673817891E+03 -0.44024367031E+01  0.22397808358E+03  0.81058791496E+02 0.  0.
         24    2    4    4    0    0  0.68243168341E+03 -0.21120469591E+03  0.59605504459E+03  0.93396738110E+03  0.81810920284E+02 0.  0.
         13    1    5    5    0    0  0.84380540548E+02  0.89161003985E+02  0.29656301859E+02  0.12629036580E+03  0.00000000000E+00 0. -1.
        -14    1    5    5    0    0  0.26704512057E+02  0.87577174924E+02 -0.34058738562E+02  0.97687717776E+02  0.00000000000E+00 0.  1.
         15    1    3    3    0    0 -0.44386014794E+03  0.27072479625E+02  0.78094823431E+03  0.89868128527E+03  0.17770000000E+01 0. -1.
        -16    1    3    3    0    0 -0.34965658808E+03  0.73940373760E+01  0.48312156157E+03  0.59642337699E+03  0.00000000000E+00 0.  1.
          4    1    6    6  502    0  0.41223711996E+03 -0.87902593203E+02  0.33189745392E+03  0.53649066058E+03  0.00000000000E+00 0. -1.
         -3    1    6    6    0  502  0.27019456345E+03 -0.12330210271E+03  0.26415759067E+03  0.39747672053E+03  0.00000000000E+00 0.  1.
<mgrwt>
<rscale>  0 0.86362220E+03</rscale>
<asrwt>0</asrwt>
<pdfrwt beam="1">  1        1 0.34682865E+00 0.86362220E+03</pdfrwt>
<pdfrwt beam="2">  1       -2 0.61332903E-01 0.86362220E+03</pdfrwt>
<totfact> 0.44744375E+00</totfact>
</mgrwt>
</event>
<event>
12    3  0.1176505E-007  0.1306727E+04  0.7818608E-02  0.9024248E-01
         -2   -1    0    0    0  501 -0.00000000000E+00  0.00000000000E+00  0.11964315768E+04  0.11964315768E+04  0.00000000000E+00 0.  1.
          1   -1    0    0  501    0  0.00000000000E+00 -0.00000000000E+00 -0.16255773899E+04  0.16255773899E+04  0.00000000000E+00 0. -1.
        -24    2    1    2    0    0  0.92513572014E+03 -0.91954777680E+03  0.51620085288E+02  0.13078560287E+04  0.79865787969E+02 0.  0.
    5000000    2    1    2    0    0 -0.92513572014E+03  0.91954777680E+03 -0.48076589846E+03  0.15141529380E+04  0.60006587640E+03 0.  0.
        -24    2    4    4    0    0 -0.37876519388E+03  0.34382146496E+03 -0.49498093742E+03  0.71624807071E+03  0.79554374667E+02 0.  0.
         24    2    4    4    0    0 -0.54637052626E+03  0.57572631184E+03  0.14215038961E+02  0.79790486728E+03  0.80427431804E+02 0.  0.
         13    1    5    5    0    0 -0.29474465699E+03  0.26067039444E+03 -0.42362633714E+03  0.57817189562E+03  0.00000000000E+00 0. -1.
        -14    1    5    5    0    0 -0.84020536887E+02  0.83151070524E+02 -0.71354600276E+02  0.13807617509E+03  0.00000000000E+00 0.  1.
         15    1    3    3    0    0  0.35343741395E+03 -0.33779818559E+03  0.56830369820E+02  0.49219759084E+03  0.17770000000E+01 0. -1.
        -16    1    3    3    0    0  0.57169830619E+03 -0.58174959121E+03 -0.52102845323E+01  0.81565843785E+03  0.00000000000E+00 0.  1.
          2    1    6    6  502    0 -0.14329247223E+03  0.10588330897E+03  0.15622452175E+02  0.17885208617E+03  0.00000000000E+00 0. -1.
         -1    1    6    6    0  502 -0.40307805403E+03  0.46984300287E+03 -0.14074132136E+01  0.61905278111E+03  0.00000000000E+00 0.  1.
<mgrwt>
<rscale>  0 0.13067265E+04</rscale>
<asrwt>0</asrwt>
<pdfrwt beam="1">  1        1 0.25008883E+00 0.13067265E+04</pdfrwt>
<pdfrwt beam="2">  1       -2 0.18406640E+00 0.13067265E+04</pdfrwt>
<totfact> 0.76937876E-01</totfact>
</mgrwt>
</event>
<event>
12    3  0.1176505E-007  0.9524831E+03  0.7818608E-02  0.9362253E-01
         -2   -1    0    0    0  501 -0.00000000000E+00  0.00000000000E+00  0.11977259036E+04  0.11977259036E+04  0.00000000000E+00 0.  1.
          1   -1    0    0  501    0  0.00000000000E+00 -0.00000000000E+00 -0.83223530896E+03  0.83223530896E+03  0.00000000000E+00 0. -1.
        -24    2    1    2    0    0  0.85883414080E+03 -0.26004275149E+02 -0.12654365400E+03  0.87220818644E+03  0.80383582782E+02 0.  0.
    5000000    2    1    2    0    0 -0.85883414080E+03  0.26004275149E+02  0.49203424865E+03  0.11577530261E+04  0.60001838634E+03 0.  0.
        -24    2    4    4    0    0 -0.17691880794E+03  0.25856453966E+03  0.15337737372E+03  0.35784066553E+03  0.79808754986E+02 0.  0.
         24    2    4    4    0    0 -0.68191533286E+03 -0.23256026451E+03  0.33865687494E+03  0.79991236060E+03  0.77964786182E+02 0.  0.
         13    1    5    5    0    0 -0.16489984132E+03  0.18117123827E+03  0.11690502376E+03  0.27144384286E+03  0.00000000000E+00 0. -1.
        -14    1    5    5    0    0 -0.12018966621E+02  0.77393301384E+02  0.36472349951E+02  0.86396822677E+02  0.00000000000E+00 0.  1.
         15    1    3    3    0    0  0.70163486074E+03 -0.11579953620E+02 -0.13296156461E+03  0.71421810991E+03  0.17770000000E+01 0. -1.
        -16    1    3    3    0    0  0.15719928006E+03 -0.14424321529E+02  0.64179106036E+01  0.15799007652E+03  0.00000000000E+00 0.  1.
          2    1    6    6  502    0 -0.43177991757E+03 -0.12269832348E+03  0.24315383890E+03  0.51050226755E+03  0.00000000000E+00 0. -1.
         -1    1    6    6    0  502 -0.25013541529E+03 -0.10986194102E+03  0.95503036038E+02  0.28941009305E+03  0.00000000000E+00 0.  1.
<mgrwt>
<rscale>  0 0.95248315E+03</rscale>
<asrwt>0</asrwt>
<pdfrwt beam="1">  1        1 0.12803620E+00 0.95248315E+03</pdfrwt>
<pdfrwt beam="2">  1       -2 0.18426553E+00 0.95248315E+03</pdfrwt>
<totfact> 0.30843353E+00</totfact>
</mgrwt>
</event>
<event>
12    3  0.1176505E-007  0.8417377E+03  0.7818608E-02  0.9501494E-01
          1   -1    0    0  501    0  0.00000000000E+00  0.00000000000E+00  0.89698521637E+03  0.89698521637E+03  0.00000000000E+00 0. -1.
         -2   -1    0    0    0  501 -0.00000000000E+00 -0.00000000000E+00 -0.83337026774E+03  0.83337026774E+03  0.00000000000E+00 0.  1.
        -24    2    1    2    0    0  0.72750881088E+03 -0.18947477687E+03  0.12573200580E+03  0.76651549502E+03  0.81041383546E+02 0.  0.
    5000000    2    1    2    0    0 -0.72750881088E+03  0.18947477687E+03 -0.62117057174E+02  0.96383998909E+03  0.59996602805E+03 0.  0.
        -24    2    4    4    0    0 -0.76148666969E+03  0.27605762660E+03 -0.12917030271E+03  0.82428857569E+03  0.81834757812E+02 0.  0.
         24    2    4    4    0    0  0.33977858817E+02 -0.86582849728E+02  0.67053245534E+02  0.13955141340E+03  0.79544795489E+02 0.  0.
         13    1    5    5    0    0 -0.72128884222E+03  0.27151954100E+03 -0.10681133537E+03  0.77806755260E+03  0.00000000000E+00 0. -1.
        -14    1    5    5    0    0 -0.40197827478E+02  0.45380856034E+01 -0.22358967339E+02  0.46221023089E+02  0.00000000000E+00 0.  1.
         15    1    3    3    0    0  0.37791712143E+03 -0.76489724711E+02  0.99324283384E+02  0.39817144505E+03  0.17770000000E+01 0. -1.
        -16    1    3    3    0    0  0.34959168945E+03 -0.11298505216E+03  0.26407722413E+02  0.36834404997E+03  0.00000000000E+00 0.  1.
          2    1    6    6  502    0  0.55730003150E+02 -0.42168824519E+02  0.54237339531E+02  0.88463167543E+02  0.00000000000E+00 0. -1.
         -1    1    6    6    0  502 -0.21752144333E+02 -0.44414025209E+02  0.12815906003E+02  0.51088245860E+02  0.00000000000E+00 0.  1.
<mgrwt>
<rscale>  0 0.84173772E+03</rscale>
<asrwt>0</asrwt>
<pdfrwt beam="1">  1        1 0.13799773E+00 0.84173772E+03</pdfrwt>
<pdfrwt beam="2">  1       -2 0.12821081E+00 0.84173772E+03</pdfrwt>
<totfact> 0.73052932E+00</totfact>
</mgrwt>
</event>
<event>
12    3  0.1176505E-007  0.9180937E+03  0.7818608E-02  0.9403242E-01
          1   -1    0    0  501    0  0.00000000000E+00  0.00000000000E+00  0.12244881218E+04  0.12244881218E+04  0.00000000000E+00 0. -1.
         -2   -1    0    0    0  501 -0.00000000000E+00 -0.00000000000E+00 -0.70434711121E+03  0.70434711121E+03  0.00000000000E+00 0.  1.
        -24    2    1    2    0    0 -0.29272753871E+03 -0.77091195863E+03  0.32875666502E+03  0.89126109163E+03  0.79187933302E+02 0.  0.
    5000000    2    1    2    0    0  0.29272753871E+03  0.77091195863E+03  0.19138434553E+03  0.10375741413E+04  0.59994789039E+03 0.  0.
        -24    2    4    4    0    0  0.46089066288E+03  0.53824443819E+03  0.71068038294E+02  0.71640157493E+03  0.77802777033E+02 0.  0.
         24    2    4    4    0    0 -0.16816312417E+03  0.23266752045E+03  0.12031630723E+03  0.32117256642E+03  0.79137805327E+02 0.  0.
         13    1    5    5    0    0  0.14765597451E+03  0.22764820908E+03  0.15311511668E+02  0.27177276592E+03  0.00000000000E+00 0. -1.
        -14    1    5    5    0    0  0.31323468837E+03  0.31059622911E+03  0.55756526626E+02  0.44462880900E+03  0.00000000000E+00 0.  1.
         15    1    3    3    0    0 -0.77064817749E+02 -0.29587810118E+03  0.14228275239E+03  0.33723934564E+03  0.17770000000E+01 0. -1.
        -16    1    3    3    0    0 -0.21566272096E+03 -0.47503385745E+03  0.18647391264E+03  0.55402174599E+03  0.00000000000E+00 0.  1.
          4    1    6    6  502    0 -0.13454091219E+03  0.22441579686E+03  0.11623956320E+03  0.28631336502E+03  0.00000000000E+00 0. -1.
         -3    1    6    6    0  502 -0.33622211980E+02  0.82517235849E+01  0.40767440356E+01  0.34859201403E+02  0.00000000000E+00 0.  1.
<mgrwt>
<rscale>  0 0.91809372E+03</rscale>
<asrwt>0</asrwt>
<pdfrwt beam="1">  1        1 0.18838279E+00 0.91809372E+03</pdfrwt>
<pdfrwt beam="2">  1       -2 0.10836109E+00 0.91809372E+03</pdfrwt>
<totfact> 0.61721005E+00</totfact>
</mgrwt>
</event>
<event>
12    3  0.1176505E-007  0.8662500E+03  0.7818608E-02  0.9468783E-01
         -2   -1    0    0    0  501 -0.00000000000E+00  0.00000000000E+00  0.47007674915E+03  0.47007674915E+03  0.00000000000E+00 0.  1.
          1   -1    0    0  501    0  0.00000000000E+00 -0.00000000000E+00 -0.20604699413E+04  0.20604699413E+04  0.00000000000E+00 0. -1.
        -24    2    1    2    0    0 -0.80137878403E+02  0.82082272141E+03 -0.28986933250E+03  0.87779445403E+03  0.79541524184E+02 0.  0.
    5000000    2    1    2    0    0  0.80137878403E+02 -0.82082272141E+03 -0.13005238596E+04  0.16527522364E+04  0.60004635315E+03 0.  0.
        -24    2    4    4    0    0  0.20520628174E+03 -0.31564740941E+03 -0.93569698054E+03  0.10117646867E+04  0.79975225849E+02 0.  0.
         24    2    4    4    0    0 -0.12506840333E+03 -0.50517531200E+03 -0.36482687907E+03  0.64098754968E+03  0.83199674173E+02 0.  0.
         11    1    5    5    0    0  0.40873868924E+02 -0.13285575203E+03 -0.34835937801E+03  0.37506743428E+03  0.00000000000E+00 0. -1.
        -12    1    5    5    0    0  0.16433241281E+03 -0.18279165738E+03 -0.58733760253E+03  0.63669725243E+03  0.00000000000E+00 0.  1.
         15    1    3    3    0    0 -0.53431041647E+01  0.25451095938E+03 -0.56713820159E+02  0.26081409535E+03  0.17770000000E+01 0. -1.
        -16    1    3    3    0    0 -0.74794774239E+02  0.56631176202E+03 -0.23315551234E+03  0.61698035868E+03  0.00000000000E+00 0.  1.
          2    1    6    6  502    0 -0.93915383098E+02 -0.29965800071E+03 -0.26253685086E+03  0.40931725426E+03  0.00000000000E+00 0. -1.
         -1    1    6    6    0  502 -0.31153020236E+02 -0.20551731129E+03 -0.10229002821E+03  0.23167029542E+03  0.00000000000E+00 0.  1.
<mgrwt>
<rscale>  0 0.86624997E+03</rscale>
<asrwt>0</asrwt>
<pdfrwt beam="1">  1        1 0.31699538E+00 0.86624997E+03</pdfrwt>
<pdfrwt beam="2">  1       -2 0.72319500E-01 0.86624997E+03</pdfrwt>
<totfact> 0.42286190E+00</totfact>
</mgrwt>
</event>
<event>
12    3  0.1176505E-007  0.1033534E+04  0.7818608E-02  0.9272511E-01
          1   -1    0    0  501    0  0.00000000000E+00  0.00000000000E+00  0.18066484037E+04  0.18066484037E+04  0.00000000000E+00 0. -1.
         -2   -1    0    0    0  501 -0.00000000000E+00 -0.00000000000E+00 -0.59819318227E+03  0.59819318227E+03  0.00000000000E+00 0.  1.
        -24    2    1    2    0    0 -0.90210063938E+03 -0.28882021445E+03  0.45265768444E+03  0.10529017462E+04  0.80625231684E+02 0.  0.
    5000000    2    1    2    0    0  0.90210063938E+03  0.28882021445E+03  0.75579753703E+03  0.13519398398E+04  0.59942366793E+03 0.  0.
        -24    2    4    4    0    0 -0.46237427413E+02  0.12519338214E+03  0.11868108831E+03  0.19579598767E+03  0.80247027600E+02 0.  0.
         24    2    4    4    0    0  0.94833806679E+03  0.16362683230E+03  0.63711644873E+03  0.11561438522E+04  0.68061798832E+02 0.  0.
         11    1    5    5    0    0 -0.67455406019E+02  0.98672544583E+02  0.77662481455E+02  0.14254109541E+03  0.00000000000E+00 0. -1.
        -12    1    5    5    0    0  0.21217978606E+02  0.26520837562E+02  0.41018606850E+02  0.53254892254E+02  0.00000000000E+00 0.  1.
         15    1    3    3    0    0 -0.42649275416E+03 -0.95463757854E+02  0.19812958271E+03  0.47986236327E+03  0.17770000000E+01 0. -1.
        -16    1    3    3    0    0 -0.47560788522E+03 -0.19335645659E+03  0.25452810173E+03  0.57303938291E+03  0.00000000000E+00 0.  1.
          2    1    6    6  502    0  0.63717804214E+03  0.91571858716E+02  0.45716206814E+03  0.78954317123E+03  0.00000000000E+00 0. -1.
         -1    1    6    6    0  502  0.31116002465E+03  0.72054973588E+02  0.17995438059E+03  0.36660068092E+03  0.00000000000E+00 0.  1.
<mgrwt>
<rscale>  0 0.10335341E+04</rscale>
<asrwt>0</asrwt>
<pdfrwt beam="1">  1        1 0.27794591E+00 0.10335341E+04</pdfrwt>
<pdfrwt beam="2">  1       -2 0.92029721E-01 0.10335341E+04</pdfrwt>
<totfact> 0.35524866E+00</totfact>
</mgrwt>
</event>
<event>
12    3  0.1176505E-007  0.1313153E+04  0.7818608E-02  0.9019199E-01
          1   -1    0    0  501    0  0.00000000000E+00  0.00000000000E+00  0.11261076358E+04  0.11261076358E+04  0.00000000000E+00 0. -1.
         -2   -1    0    0    0  501 -0.00000000000E+00 -0.00000000000E+00 -0.21046414201E+04  0.21046414201E+04  0.00000000000E+00 0.  1.
        -24    2    1    2    0    0  0.30771559001E+03  0.12094035243E+04  0.36358351873E+03  0.13023067184E+04  0.80399282877E+02 0.  0.
    5000000    2    1    2    0    0 -0.30771559001E+03 -0.12094035243E+04 -0.13421173030E+04  0.19284423376E+04  0.60022098048E+03 0.  0.
        -24    2    4    4    0    0 -0.29169253119E+03 -0.18827902765E+03 -0.27544822231E+03  0.45041562298E+03  0.80430002146E+02 0.  0.
         24    2    4    4    0    0 -0.16023058817E+02 -0.10211244966E+04 -0.10666690807E+04  0.14780267146E+04  0.61871360703E+02 0.  0.
         11    1    5    5    0    0 -0.89470098216E+02 -0.16446607500E+02 -0.67513357252E+02  0.11328478618E+03  0.00000000000E+00 0. -1.
        -12    1    5    5    0    0 -0.20222243298E+03 -0.17183242015E+03 -0.20793486506E+03  0.33713083679E+03  0.00000000000E+00 0.  1.
         15    1    3    3    0    0  0.18815024751E+03  0.68063964896E+03  0.24423288662E+03  0.74721061824E+03  0.17770000000E+01 0. -1.
        -16    1    3    3    0    0  0.11956534250E+03  0.52876387534E+03  0.11935063212E+03  0.55509610012E+03  0.00000000000E+00 0.  1.
          2    1    6    6  502    0  0.49240754784E+01 -0.61740731757E+03 -0.60602341835E+03  0.86514763243E+03  0.00000000000E+00 0. -1.
         -1    1    6    6    0  502 -0.20947134296E+02 -0.40371717907E+03 -0.46064566236E+03  0.61287908217E+03  0.00000000000E+00 0.  1.
<mgrwt>
<rscale>  0 0.13131533E+04</rscale>
<asrwt>0</asrwt>
<pdfrwt beam="1">  1        1 0.17324733E+00 0.13131533E+04</pdfrwt>
<pdfrwt beam="2">  1       -2 0.32379099E+00 0.13131533E+04</pdfrwt>
<totfact> 0.23337510E-01</totfact>
</mgrwt>
</event>
<event>
12    3  0.1176505E-007  0.1454165E+04  0.7818608E-02  0.8915518E-01
          1   -1    0    0  501    0  0.00000000000E+00  0.00000000000E+00  0.27295224116E+04  0.27295224116E+04  0.00000000000E+00 0. -1.
         -2   -1    0    0    0  501 -0.00000000000E+00 -0.00000000000E+00 -0.97216098005E+03  0.97216098005E+03  0.00000000000E+00 0.  1.
        -24    2    1    2    0    0  0.13869331624E+04  0.39938663851E+03  0.15590228516E+04  0.21260151100E+04  0.79339222431E+02 0.  0.
    5000000    2    1    2    0    0 -0.13869331624E+04 -0.39938663851E+03  0.19833857996E+03  0.15756682817E+04  0.60024916291E+03 0.  0.
        -24    2    4    4    0    0 -0.10281112462E+04 -0.21028164648E+03  0.38775227299E+03  0.11214164801E+04  0.77407952283E+02 0.  0.
         24    2    4    4    0    0 -0.35882191617E+03 -0.18910499203E+03 -0.18941369303E+03  0.45425180161E+03  0.77157544169E+02 0.  0.
         13    1    5    5    0    0 -0.36079637643E+03 -0.11164489512E+03  0.13733958672E+03  0.40187158388E+03  0.00000000000E+00 0. -1.
        -14    1    5    5    0    0 -0.66731486979E+03 -0.98636751362E+02  0.25041268627E+03  0.71954489618E+03  0.00000000000E+00 0.  1.
         15    1    3    3    0    0  0.31913471889E+03  0.12016581126E+03  0.33921319945E+03  0.48099432783E+03  0.17770000000E+01 0. -1.
        -16    1    3    3    0    0  0.10677984435E+04  0.27922082725E+03  0.12198096522E+04  0.16450207822E+04  0.00000000000E+00 0.  1.
          4    1    6    6  502    0 -0.35071160576E+03 -0.16821553342E+03 -0.16957762705E+03  0.42432495531E+03  0.00000000000E+00 0. -1.
         -3    1    6    6    0  502 -0.81103104077E+01 -0.20889458609E+02 -0.19836065984E+02  0.29926846303E+02  0.00000000000E+00 0.  1.
<mgrwt>
<rscale>  0 0.14541654E+04</rscale>
<asrwt>0</asrwt>
<pdfrwt beam="1">  1        1 0.41992652E+00 0.14541654E+04</pdfrwt>
<pdfrwt beam="2">  1       -2 0.14956323E+00 0.14541654E+04</pdfrwt>
<totfact> 0.23598133E-01</totfact>
</mgrwt>
</event>
<event>
12    3  0.1176505E-007  0.5291373E+03  0.7818608E-02  0.1006442E+00
         -2   -1    0    0    0  501 -0.00000000000E+00  0.00000000000E+00  0.24590502194E+03  0.24590502194E+03  0.00000000000E+00 0.  1.
          1   -1    0    0  501    0  0.00000000000E+00 -0.00000000000E+00 -0.30247056221E+04  0.30247056221E+04  0.00000000000E+00 0. -1.
        -24    2    1    2    0    0 -0.31649522490E+03 -0.17951794566E+03 -0.24806704401E+04  0.25082300816E+04  0.71389003621E+02 0.  0.
    5000000    2    1    2    0    0  0.31649522490E+03  0.17951794566E+03 -0.29813016007E+03  0.76238056240E+03  0.59995550618E+03 0.  0.
        -24    2    4    4    0    0  0.12322228301E+03 -0.21175439836E+03 -0.11384862727E+03  0.28238325748E+03  0.82189646039E+02 0.  0.
         24    2    4    4    0    0  0.19327294189E+03  0.39127234402E+03 -0.18428153279E+03  0.47999730492E+03  0.77390258721E+02 0.  0.
         13    1    5    5    0    0  0.71424631449E+02 -0.17675747288E+03 -0.59959481214E+02  0.19984949734E+03  0.00000000000E+00 0. -1.
        -14    1    5    5    0    0  0.51797651562E+02 -0.34996925478E+02 -0.53889146060E+02  0.82533760143E+02  0.00000000000E+00 0.  1.
         15    1    3    3    0    0 -0.19033355774E+03 -0.10699959527E+03 -0.12428667546E+04  0.12619020184E+04  0.17770000000E+01 0. -1.
        -16    1    3    3    0    0 -0.12616166716E+03 -0.72518350390E+02 -0.12378036855E+04  0.12463280633E+04  0.00000000000E+00 0.  1.
          2    1    6    6  502    0  0.14350958275E+03  0.34345703547E+03 -0.13842450695E+03  0.39713861520E+03  0.00000000000E+00 0. -1.
         -1    1    6    6    0  502  0.49763359137E+02  0.47815308549E+02 -0.45857025841E+02  0.82858689727E+02  0.00000000000E+00 0.  1.
<mgrwt>
<rscale>  0 0.52913725E+03</rscale>
<asrwt>0</asrwt>
<pdfrwt beam="1">  1        1 0.46533934E+00 0.52913725E+03</pdfrwt>
<pdfrwt beam="2">  1       -2 0.37831541E-01 0.52913725E+03</pdfrwt>
<totfact> 0.37234578E+00</totfact>
</mgrwt>
</event>
<event>
12    3  0.1176505E-007  0.4567902E+03  0.7818608E-02  0.1025716E+00
         -2   -1    0    0    0  501 -0.00000000000E+00  0.00000000000E+00  0.83355362637E+03  0.83355362637E+03  0.00000000000E+00 0.  1.
          1   -1    0    0  501    0  0.00000000000E+00 -0.00000000000E+00 -0.43729509843E+03  0.43729509843E+03  0.00000000000E+00 0. -1.
        -24    2    1    2    0    0 -0.50674608971E+02 -0.33033741790E+03  0.46773390473E+03  0.58039736152E+03  0.79971032054E+02 0.  0.
    5000000    2    1    2    0    0  0.50674608971E+02  0.33033741790E+03 -0.71475376787E+02  0.69045136328E+03  0.59993635488E+03 0.  0.
        -24    2    4    4    0    0 -0.12588573680E+03  0.36795678782E+03  0.12057032935E+03  0.41504082690E+03  0.80512528475E+02 0.  0.
         24    2    4    4    0    0  0.17656034577E+03 -0.37619369922E+02 -0.19204570614E+03  0.27541053638E+03  0.79878893383E+02 0.  0.
         11    1    5    5    0    0 -0.12894805954E+03  0.31327199132E+03  0.83521623262E+02  0.34891661490E+03  0.00000000000E+00 0. -1.
        -12    1    5    5    0    0  0.30623227417E+01  0.54684796504E+02  0.37048706093E+02  0.66124211999E+02  0.00000000000E+00 0.  1.
         15    1    3    3    0    0 -0.57592691111E+02 -0.17958164488E+03  0.21465767135E+03  0.28574036965E+03  0.17770000000E+01 0. -1.
        -16    1    3    3    0    0  0.69180821399E+01 -0.15075577302E+03  0.25307623337E+03  0.29465699187E+03  0.00000000000E+00 0.  1.
          4    1    6    6  502    0  0.43213388115E+02 -0.92768583680E+01 -0.57615837245E+01  0.44571884193E+02  0.00000000000E+00 0. -1.
         -3    1    6    6    0  502  0.13334695766E+03 -0.28342511554E+02 -0.18628412242E+03  0.23083865218E+03  0.00000000000E+00 0.  1.
<mgrwt>
<rscale>  0 0.45679022E+03</rscale>
<asrwt>0</asrwt>
<pdfrwt beam="1">  1        1 0.67276169E-01 0.45679022E+03</pdfrwt>
<pdfrwt beam="2">  1       -2 0.12823902E+00 0.45679022E+03</pdfrwt>
<totfact> 0.21953682E+01</totfact>
</mgrwt>
</event>
<event>
12    3  0.1176505E-007  0.5129460E+03  0.7818608E-02  0.1010454E+00
          1   -1    0    0  501    0  0.00000000000E+00  0.00000000000E+00  0.18321744025E+04  0.18321744025E+04  0.00000000000E+00 0. -1.
         -2   -1    0    0    0  501 -0.00000000000E+00 -0.00000000000E+00 -0.15390827716E+03  0.15390827716E+03  0.00000000000E+00 0.  1.
        -24    2    1    2    0    0 -0.24697138956E+03  0.23291606374E+03  0.77297833861E+03  0.84823295363E+03  0.82212357032E+02 0.  0.
    5000000    2    1    2    0    0  0.24697138956E+03 -0.23291606374E+03  0.90528778677E+03  0.11378497261E+04  0.59992604732E+03 0.  0.
        -24    2    4    4    0    0 -0.13636597617E+03 -0.25105345893E+03  0.37216623096E+03  0.47621516907E+03  0.81545478635E+02 0.  0.
         24    2    4    4    0    0  0.38333736573E+03  0.18137395185E+02  0.53312155581E+03  0.66163455701E+03  0.79152970212E+02 0.  0.
         11    1    5    5    0    0 -0.12695493860E+02 -0.10457176283E+03  0.13666416712E+03  0.17255006149E+03  0.00000000000E+00 0. -1.
        -12    1    5    5    0    0 -0.12367048231E+03 -0.14648169610E+03  0.23550206384E+03  0.30366510758E+03  0.00000000000E+00 0.  1.
         15    1    3    3    0    0 -0.72698011115E+02  0.98868222685E+02  0.20169366608E+03  0.23610044249E+03  0.17770000000E+01 0. -1.
        -16    1    3    3    0    0 -0.17427337845E+03  0.13404784106E+03  0.57128467253E+03  0.61213251114E+03  0.00000000000E+00 0.  1.
          2    1    6    6  502    0  0.32674312221E+03 -0.25381070615E+00  0.48649250343E+03  0.58603420397E+03  0.00000000000E+00 0. -1.
         -1    1    6    6    0  502  0.56594243527E+02  0.18391205892E+02  0.46629052384E+02  0.75600353047E+02  0.00000000000E+00 0.  1.
<mgrwt>
<rscale>  0 0.51294599E+03</rscale>
<asrwt>0</asrwt>
<pdfrwt beam="1">  1        1 0.28187297E+00 0.51294599E+03</pdfrwt>
<pdfrwt beam="2">  1       -2 0.23678198E-01 0.51294599E+03</pdfrwt>
<totfact> 0.57118851E+01</totfact>
</mgrwt>
</event>
<event>
12    3  0.1176505E-007  0.4798247E+03  0.7818608E-02  0.1019183E+00
          1   -1    0    0  501    0  0.00000000000E+00  0.00000000000E+00  0.77544820416E+03  0.77544820416E+03  0.00000000000E+00 0. -1.
         -2   -1    0    0    0  501 -0.00000000000E+00 -0.00000000000E+00 -0.38732355936E+03  0.38732355936E+03  0.00000000000E+00 0.  1.
        -24    2    1    2    0    0 -0.24935641670E+03 -0.28199704907E+03  0.19904770285E+03  0.42982288598E+03  0.58538594701E+02 0.  0.
    5000000    2    1    2    0    0  0.24935641670E+03  0.28199704907E+03  0.18907694195E+03  0.73294887755E+03  0.59980247489E+03 0.  0.
        -24    2    4    4    0    0  0.27280790993E+03 -0.17931341177E+02 -0.10718632623E+03  0.30421020027E+03  0.79430779302E+02 0.  0.
         24    2    4    4    0    0 -0.23451493237E+02  0.29992839024E+03  0.29626326818E+03  0.42873867727E+03  0.74417185567E+02 0.  0.
         13    1    5    5    0    0  0.21540767375E+03 -0.18746142370E+02 -0.11719202862E+03  0.24593872273E+03  0.00000000000E+00 0. -1.
        -14    1    5    5    0    0  0.57400236181E+02  0.81480119285E+00  0.10005702394E+02  0.58271477542E+02  0.00000000000E+00 0.  1.
         15    1    3    3    0    0 -0.14296419239E+03 -0.16423230294E+03  0.82223157584E+02  0.23275483884E+03  0.17770000000E+01 0. -1.
        -16    1    3    3    0    0 -0.10639222431E+03 -0.11776474613E+03  0.11682454526E+03  0.19706804713E+03  0.00000000000E+00 0.  1.
          2    1    6    6  502    0 -0.49926708239E+02  0.20745210243E+03  0.21343316201E+03  0.30179921412E+03  0.00000000000E+00 0. -1.
         -1    1    6    6    0  502  0.26475215003E+02  0.92476287815E+02  0.82830106173E+02  0.12693946315E+03  0.00000000000E+00 0.  1.
<mgrwt>
<rscale>  0 0.47982472E+03</rscale>
<asrwt>0</asrwt>
<pdfrwt beam="1">  1        1 0.11929972E+00 0.47982472E+03</pdfrwt>
<pdfrwt beam="2">  1       -2 0.59588240E-01 0.47982472E+03</pdfrwt>
<totfact> 0.55961513E+01</totfact>
</mgrwt>
</event>
<event>
12    3  0.1176505E-007  0.5206706E+03  0.7818608E-02  0.1008520E+00
         -2   -1    0    0    0  501 -0.00000000000E+00  0.00000000000E+00  0.10320707399E+04  0.10320707399E+04  0.00000000000E+00 0.  1.
          1   -1    0    0  501    0  0.00000000000E+00 -0.00000000000E+00 -0.33557639003E+03  0.33557639003E+03  0.00000000000E+00 0. -1.
        -24    2    1    2    0    0  0.39925770361E+03 -0.12308762782E+03  0.37998807291E+03  0.57055367095E+03  0.81137401150E+02 0.  0.
    5000000    2    1    2    0    0 -0.39925770361E+03  0.12308762782E+03  0.31650627697E+03  0.79709345899E+03  0.60052017534E+03 0.  0.
        -24    2    4    4    0    0  0.68535119273E+02  0.11322130576E+03  0.28057051110E+03  0.32090899785E+03  0.82137972611E+02 0.  0.
         24    2    4    4    0    0 -0.46779282288E+03  0.98663220549E+01  0.35935765861E+02  0.47618446115E+03  0.80825690955E+02 0.  0.
         13    1    5    5    0    0  0.51133976738E+02  0.14018898761E+02  0.73324878605E+02  0.90486191886E+02  0.00000000000E+00 0. -1.
        -14    1    5    5    0    0  0.17401142535E+02  0.99202407002E+02  0.20724563250E+03  0.23042280596E+03  0.00000000000E+00 0.  1.
         15    1    3    3    0    0  0.31435592649E+03 -0.79463480021E+02  0.25078585612E+03  0.40991559684E+03  0.17770000000E+01 0. -1.
        -16    1    3    3    0    0  0.84901777121E+02 -0.43624147797E+02  0.12920221679E+03  0.16063807411E+03  0.00000000000E+00 0.  1.
          2    1    6    6  502    0 -0.27564493088E+03  0.48510412044E+01 -0.18804983850E+02  0.27632822502E+03  0.00000000000E+00 0. -1.
         -1    1    6    6    0  502 -0.19214789200E+03  0.50152808505E+01  0.54740749711E+02  0.19985623613E+03  0.00000000000E+00 0.  1.
<mgrwt>
<rscale>  0 0.52067056E+03</rscale>
<asrwt>0</asrwt>
<pdfrwt beam="1">  1        1 0.51627137E-01 0.52067056E+03</pdfrwt>
<pdfrwt beam="2">  1       -2 0.15878011E+00 0.52067056E+03</pdfrwt>
<totfact> 0.17718197E+01</totfact>
</mgrwt>
</event>
<event>
12    3  0.1176505E-007  0.6044274E+03  0.7818608E-02  0.9896263E-01
         -2   -1    0    0    0  501 -0.00000000000E+00  0.00000000000E+00  0.90000602952E+03  0.90000602952E+03  0.00000000000E+00 0.  1.
          1   -1    0    0  501    0  0.00000000000E+00 -0.00000000000E+00 -0.66389703034E+03  0.66389703034E+03  0.00000000000E+00 0. -1.
        -24    2    1    2    0    0  0.39320645218E+03  0.23468333915E+03  0.57263449184E+03  0.73749640217E+03  0.79392054134E+02 0.  0.
    5000000    2    1    2    0    0 -0.39320645218E+03 -0.23468333915E+03 -0.33652549265E+03  0.82640665770E+03  0.60000914407E+03 0.  0.
        -24    2    4    4    0    0  0.10807540513E+03 -0.20509371401E+03 -0.68615910712E+02  0.25147488219E+03  0.69193557834E+02 0.  0.
         24    2    4    4    0    0 -0.50128185731E+03 -0.29589625135E+02 -0.26790958194E+03  0.57493177551E+03  0.81313934913E+02 0.  0.
         13    1    5    5    0    0  0.91864031154E+02 -0.20458288568E+03 -0.70653952224E+02  0.23512791901E+03  0.00000000000E+00 0. -1.
        -14    1    5    5    0    0  0.16211373980E+02 -0.51082833233E+00  0.20380415121E+01  0.16346963177E+02  0.00000000000E+00 0.  1.
         15    1    3    3    0    0  0.22921534214E+03  0.94631711040E+02  0.28084825545E+03  0.37466482905E+03  0.17770000000E+01 0. -1.
        -16    1    3    3    0    0  0.16399111003E+03  0.14005162811E+03  0.29178623639E+03  0.36283157312E+03  0.00000000000E+00 0.  1.
          4    1    6    6  502    0 -0.37270409318E+03 -0.44239409671E+02 -0.22956475486E+03  0.43996072906E+03  0.00000000000E+00 0. -1.
         -1    1    6    6    0  502 -0.12857776413E+03  0.14649784536E+02 -0.38344827078E+02  0.13497104645E+03  0.00000000000E+00 0.  1.
<mgrwt>
<rscale>  0 0.60442744E+03</rscale>
<asrwt>0</asrwt>
<pdfrwt beam="1">  1        1 0.10213800E+00 0.60442744E+03</pdfrwt>
<pdfrwt beam="2">  1       -2 0.13846247E+00 0.60442744E+03</pdfrwt>
<totfact> 0.99221255E+00</totfact>
</mgrwt>
</event>
<event>
12    3  0.1182811E-007  0.1031341E+04  0.7818608E-02  0.9274823E-01
         -2   -1    0    0    0  501 -0.00000000000E+00  0.00000000000E+00  0.14173633328E+04  0.14173633328E+04  0.00000000000E+00 0.  1.
          1   -1    0    0  501    0  0.00000000000E+00 -0.00000000000E+00 -0.84190707294E+03  0.84190707294E+03  0.00000000000E+00 0. -1.
        -24    2    1    2    0    0 -0.94962744178E+03 -0.15566336886E+03 -0.44692137207E+02  0.96669554970E+03  0.80495565659E+02 0.  0.
    5000000    2    1    2    0    0  0.94962744178E+03  0.15566336886E+03  0.62014839710E+03  0.12925748561E+04  0.60011862290E+03 0.  0.
        -24    2    4    4    0    0  0.95398579745E+03  0.38857912567E+02  0.41835216242E+03  0.10454756742E+04  0.80012589700E+02 0.  0.
         24    2    4    4    0    0 -0.43583556629E+01  0.11680545630E+03  0.20179623469E+03  0.24709918185E+03  0.81693178744E+02 0.  0.
         11    1    5    5    0    0  0.66902535452E+03 -0.37077520378E+01  0.27071975665E+03  0.72173253983E+03  0.00000000000E+00 0. -1.
        -12    1    5    5    0    0  0.28496044293E+03  0.42565664605E+02  0.14763240577E+03  0.32374313440E+03  0.00000000000E+00 0.  1.
         15    1    3    3    0    0 -0.34508228567E+03 -0.32781799558E+02  0.14582657793E+02  0.34694703040E+03  0.17770000000E+01 0. -1.
        -16    1    3    3    0    0 -0.60454515611E+03 -0.12288156931E+03 -0.59274795000E+02  0.61974851930E+03  0.00000000000E+00 0.  1.
          4    1    6    6  502    0 -0.42419549876E+02  0.66861355939E+02  0.12395751797E+03  0.14708951489E+03  0.00000000000E+00 0. -1.
         -3    1    6    6    0  502  0.38061194213E+02  0.49944100356E+02  0.77838716717E+02  0.10000966696E+03  0.00000000000E+00 0.  1.
<mgrwt>
<rscale>  0 0.10313409E+04</rscale>
<asrwt>0</asrwt>
<pdfrwt beam="1">  1        1 0.12952417E+00 0.10313409E+04</pdfrwt>
<pdfrwt beam="2">  1       -2 0.21805590E+00 0.10313409E+04</pdfrwt>
<totfact> 0.18034150E+00</totfact>
</mgrwt>
</event>
<event>
12    3  0.1176505E-007  0.1310172E+04  0.7818608E-02  0.9021538E-01
         -2   -1    0    0    0  501 -0.00000000000E+00  0.00000000000E+00  0.21725084276E+04  0.21725084276E+04  0.00000000000E+00 0.  1.
          1   -1    0    0  501    0  0.00000000000E+00 -0.00000000000E+00 -0.14200101648E+04  0.14200101648E+04  0.00000000000E+00 0. -1.
        -24    2    1    2    0    0  0.12749520867E+04  0.21862816009E+03 -0.76793728651E+03  0.15080521534E+04  0.10579473380E+03 0.  0.
    5000000    2    1    2    0    0 -0.12749520867E+04 -0.21862816009E+03  0.15204355494E+04  0.20844664390E+04  0.59997914963E+03 0.  0.
        -24    2    4    4    0    0 -0.70949239019E+02 -0.17810612549E+02 -0.27382820978E+02  0.11165590294E+03  0.79788528868E+02 0.  0.
         24    2    4    4    0    0 -0.12040028476E+04 -0.20081754754E+03  0.15478183703E+04  0.19728105361E+04  0.79304219389E+02 0.  0.
         11    1    5    5    0    0 -0.82660321197E+02 -0.27329147863E+02 -0.84876906838E+01  0.87473721290E+02  0.00000000000E+00 0. -1.
        -12    1    5    5    0    0  0.11711082178E+02  0.95185353140E+01 -0.18895130294E+02  0.24182181645E+02  0.00000000000E+00 0.  1.
         15    1    3    3    0    0  0.29755627190E+03  0.86326546478E+02 -0.21741716482E+03  0.37850414642E+03  0.17770000000E+01 0. -1.
        -16    1    3    3    0    0  0.97739581475E+03  0.13230161361E+03 -0.55052012169E+03  0.11295480070E+04  0.00000000000E+00 0.  1.
          4    1    6    6  502    0 -0.35852707589E+03 -0.87157714516E+02  0.42849324132E+03  0.56545962650E+03  0.00000000000E+00 0. -1.
         -3    1    6    6    0  502 -0.84547577174E+03 -0.11365983302E+03  0.11193251290E+04  0.14073509096E+04  0.00000000000E+00 0.  1.
<mgrwt>
<rscale>  0 0.13101716E+04</rscale>
<asrwt>0</asrwt>
<pdfrwt beam="1">  1        1 0.21846310E+00 0.13101716E+04</pdfrwt>
<pdfrwt beam="2">  1       -2 0.33423207E+00 0.13101716E+04</pdfrwt>
<totfact> 0.12327416E-01</totfact>
</mgrwt>
</event>
<event>
12    3  0.1176505E-007  0.7423491E+03  0.7818608E-02  0.9647430E-01
          3   -1    0    0  501    0  0.00000000000E+00  0.00000000000E+00  0.12358168251E+04  0.12358168251E+04  0.00000000000E+00 0. -1.
         -4   -1    0    0    0  501 -0.00000000000E+00 -0.00000000000E+00 -0.55979093599E+03  0.55979093599E+03  0.00000000000E+00 0.  1.
        -24    2    1    2    0    0 -0.66553862574E+03 -0.27698119958E+03  0.30568134456E+03  0.78724631410E+03  0.81580802712E+02 0.  0.
    5000000    2    1    2    0    0  0.66553862574E+03  0.27698119958E+03  0.37034454460E+03  0.10083614470E+04  0.59998123212E+03 0.  0.
        -24    2    4    4    0    0  0.49347453452E+03  0.28503028183E+03  0.51223615618E+03  0.77064848374E+03  0.82181676847E+02 0.  0.
         24    2    4    4    0    0  0.17206409122E+03 -0.80490822475E+01 -0.14189161158E+03  0.23771296331E+03  0.81874197864E+02 0.  0.
         11    1    5    5    0    0  0.16656441767E+03  0.12782743663E+03  0.15022163475E+03  0.25816680332E+03  0.00000000000E+00 0. -1.
        -12    1    5    5    0    0  0.32691011686E+03  0.15720284519E+03  0.36201452142E+03  0.51248168042E+03  0.00000000000E+00 0.  1.
         15    1    3    3    0    0 -0.17746890916E+03 -0.10954367866E+03  0.70182320808E+02  0.22005396414E+03  0.17770000000E+01 0. -1.
        -16    1    3    3    0    0 -0.48806971658E+03 -0.16743752092E+03  0.23549902375E+03  0.56719234995E+03  0.00000000000E+00 0.  1.
          4    1    6    6  502    0  0.38400419165E+01  0.16940088833E+02 -0.28270956224E+02  0.33180709718E+02  0.00000000000E+00 0. -1.
         -3    1    6    6    0  502  0.16822404930E+03 -0.24989171081E+02 -0.11362065536E+03  0.20453225359E+03  0.00000000000E+00 0.  1.
<mgrwt>
<rscale>  0 0.74234908E+03</rscale>
<asrwt>0</asrwt>
<pdfrwt beam="1">  1        3 0.19012566E+00 0.74234908E+03</pdfrwt>
<pdfrwt beam="2">  1       -4 0.86121683E-01 0.74234908E+03</pdfrwt>
<totfact> 0.45093827E-01</totfact>
</mgrwt>
</event>
<event>
12    3  0.1176505E-007  0.6614464E+03  0.7818608E-02  0.9785535E-01
         -2   -1    0    0    0  501 -0.00000000000E+00  0.00000000000E+00  0.29932570419E+03  0.29932570419E+03  0.00000000000E+00 0.  1.
          1   -1    0    0  501    0  0.00000000000E+00 -0.00000000000E+00 -0.22718367598E+04  0.22718367598E+04  0.00000000000E+00 0. -1.
        -24    2    1    2    0    0  0.56163510788E+03 -0.30600699825E+03 -0.36676057530E+03  0.74154507084E+03  0.79381957154E+02 0.  0.
    5000000    2    1    2    0    0 -0.56163510788E+03  0.30600699825E+03 -0.16057504803E+04  0.18296173931E+04  0.59999243573E+03 0.  0.
        -24    2    4    4    0    0 -0.50242602347E+03  0.23617126542E+03 -0.61864924627E+03  0.83505396482E+03  0.79871512926E+02 0.  0.
         24    2    4    4    0    0 -0.59209084409E+02  0.69835732828E+02 -0.98710123401E+03  0.99456342831E+03  0.80030128646E+02 0.  0.
         11    1    5    5    0    0 -0.34957614867E+03  0.12523970179E+03 -0.42935748068E+03  0.56765862350E+03  0.00000000000E+00 0. -1.
        -12    1    5    5    0    0 -0.15284987480E+03  0.11093156363E+03 -0.18929176559E+03  0.26739534132E+03  0.00000000000E+00 0.  1.
         15    1    3    3    0    0  0.60845768690E+02 -0.58363282771E+02 -0.65792222899E+02  0.10695912615E+03  0.17770000000E+01 0. -1.
        -16    1    3    3    0    0  0.50078933919E+03 -0.24764371548E+03 -0.30096835240E+03  0.63458594470E+03  0.00000000000E+00 0.  1.
          2    1    6    6  502    0  0.21847964907E+01 -0.14896454885E+02 -0.19509133801E+03  0.19567142835E+03  0.00000000000E+00 0. -1.
         -1    1    6    6    0  502 -0.61393880900E+02  0.84732187713E+02 -0.79200989600E+03  0.79889199996E+03  0.00000000000E+00 0.  1.
<mgrwt>
<rscale>  0 0.66144638E+03</rscale>
<asrwt>0</asrwt>
<pdfrwt beam="1">  1        1 0.34951336E+00 0.66144638E+03</pdfrwt>
<pdfrwt beam="2">  1       -2 0.46050107E-01 0.66144638E+03</pdfrwt>
<totfact> 0.81225901E+00</totfact>
</mgrwt>
</event>
<event>
12    3  0.1176505E-007  0.2082193E+04  0.7818608E-02  0.8569128E-01
         -2   -1    0    0    0  501 -0.00000000000E+00  0.00000000000E+00  0.17367797553E+04  0.17367797553E+04  0.00000000000E+00 0.  1.
          1   -1    0    0  501    0  0.00000000000E+00 -0.00000000000E+00 -0.25624538476E+04  0.25624538476E+04  0.00000000000E+00 0. -1.
        -24    2    1    2    0    0 -0.84211621280E+03 -0.18802230898E+04 -0.24515344393E+03  0.20763056027E+04  0.80908350561E+02 0.  0.
    5000000    2    1    2    0    0  0.84211621280E+03  0.18802230898E+04 -0.58052064845E+03  0.22229280002E+04  0.60000507295E+03 0.  0.
        -24    2    4    4    0    0  0.64980937796E+03  0.17290528448E+04 -0.35379326805E+03  0.18824658104E+04  0.81436374150E+02 0.  0.
         24    2    4    4    0    0  0.19230683484E+03  0.15117024507E+03 -0.22672738039E+03  0.34046218987E+03  0.68372772265E+02 0.  0.
         11    1    5    5    0    0  0.31667558680E+03  0.94843810433E+03 -0.20781795712E+03  0.10212769303E+04  0.00000000000E+00 0. -1.
        -12    1    5    5    0    0  0.33313379116E+03  0.78061474044E+03 -0.14597531093E+03  0.86118888010E+03  0.00000000000E+00 0.  1.
         15    1    3    3    0    0 -0.12299317739E+03 -0.35054024978E+03 -0.44480019280E+02  0.37414892522E+03  0.17770000000E+01 0. -1.
        -16    1    3    3    0    0 -0.71912303541E+03 -0.15296828401E+04 -0.20067342465E+03  0.17021566775E+04  0.00000000000E+00 0.  1.
          4    1    6    6  502    0  0.14640850911E+03  0.14765418746E+03 -0.18405099862E+03  0.27769044043E+03  0.00000000000E+00 0. -1.
         -3    1    6    6    0  502  0.45898325726E+02  0.35160576134E+01 -0.42676381779E+02  0.62771749437E+02  0.00000000000E+00 0.  1.
<mgrwt>
<rscale>  0 0.20821931E+04</rscale>
<asrwt>0</asrwt>
<pdfrwt beam="1">  1        1 0.39422366E+00 0.20821931E+04</pdfrwt>
<pdfrwt beam="2">  1       -2 0.26719689E+00 0.20821931E+04</pdfrwt>
<totfact> 0.47771151E-02</totfact>
</mgrwt>
</event>
<event>
12    3  0.1176505E-007  0.4552113E+03  0.7818608E-02  0.1026179E+00
          1   -1    0    0  501    0  0.00000000000E+00  0.00000000000E+00  0.19717455876E+04  0.19717455876E+04  0.00000000000E+00 0. -1.
         -2   -1    0    0    0  501 -0.00000000000E+00 -0.00000000000E+00 -0.24017198051E+03  0.24017198051E+03  0.00000000000E+00 0.  1.
        -24    2    1    2    0    0  0.18490143026E+03 -0.39524925244E+03  0.12525122246E+04  0.13287823781E+04  0.80406623467E+02 0.  0.
    5000000    2    1    2    0    0 -0.18490143026E+03  0.39524925244E+03  0.47906138251E+03  0.88313519003E+03  0.60001453747E+03 0.  0.
        -24    2    4    4    0    0 -0.16318911211E+03  0.34495142185E+03 -0.46125920246E+01  0.38998538097E+03  0.80281701609E+02 0.  0.
         24    2    4    4    0    0 -0.21712318156E+02  0.50297830590E+02  0.48367397454E+03  0.49314980906E+03  0.79088077549E+02 0.  0.
         13    1    5    5    0    0 -0.53646484220E+02  0.16989984593E+03 -0.34062470695E+02  0.18139502426E+03  0.00000000000E+00 0. -1.
        -14    1    5    5    0    0 -0.10954262789E+03  0.17505157593E+03  0.29449878670E+02  0.20859035671E+03  0.00000000000E+00 0.  1.
         15    1    3    3    0    0  0.11512797363E+03 -0.28062902462E+03  0.75943858110E+03  0.81777577365E+03  0.17770000000E+01 0. -1.
        -16    1    3    3    0    0  0.69773456635E+02 -0.11462022783E+03  0.49307364353E+03  0.51100660448E+03  0.00000000000E+00 0.  1.
          2    1    6    6  502    0 -0.36997667003E+02  0.14226810137E+01  0.30635549754E+03  0.30858474081E+03  0.00000000000E+00 0. -1.
         -1    1    6    6    0  502  0.15285348848E+02  0.48875149576E+02  0.17731847699E+03  0.18456506825E+03  0.00000000000E+00 0.  1.
<mgrwt>
<rscale>  0 0.45521130E+03</rscale>
<asrwt>0</asrwt>
<pdfrwt beam="1">  1        1 0.30334546E+00 0.45521130E+03</pdfrwt>
<pdfrwt beam="2">  1       -2 0.36949537E-01 0.45521130E+03</pdfrwt>
<totfact> 0.20594592E+01</totfact>
</mgrwt>
</event>
<event>
12    3  0.1176505E-007  0.9195672E+03  0.7818608E-02  0.9401447E-01
          1   -1    0    0  501    0  0.00000000000E+00  0.00000000000E+00  0.53892121987E+03  0.53892121987E+03  0.00000000000E+00 0. -1.
         -2   -1    0    0    0  501 -0.00000000000E+00 -0.00000000000E+00 -0.17643322382E+04  0.17643322382E+04  0.00000000000E+00 0.  1.
        -24    2    1    2    0    0 -0.25530264567E+03  0.82235802604E+03 -0.77447508024E+03  0.11609740884E+04  0.81222041659E+02 0.  0.
    5000000    2    1    2    0    0  0.25530264567E+03 -0.82235802604E+03 -0.45093593807E+03  0.11422793697E+04  0.60000564522E+03 0.  0.
        -24    2    4    4    0    0 -0.80563045448E+02 -0.47270058817E+03 -0.17060454229E+02  0.48678745438E+03  0.82065317220E+02 0.  0.
         24    2    4    4    0    0  0.33586569112E+03 -0.34965743786E+03 -0.43387548385E+03  0.65549191531E+03  0.79722200380E+02 0.  0.
         11    1    5    5    0    0 -0.40107841458E+01 -0.22384391690E+03 -0.31176406209E+02  0.22604015977E+03  0.00000000000E+00 0. -1.
        -12    1    5    5    0    0 -0.76552261302E+02 -0.24885667127E+03  0.14115951980E+02  0.26074729461E+03  0.00000000000E+00 0.  1.
         15    1    3    3    0    0 -0.23385970169E+03  0.64480174439E+03 -0.60549045042E+03  0.91492157747E+03  0.17770000000E+01 0. -1.
        -16    1    3    3    0    0 -0.21442943988E+02  0.17755628165E+03 -0.16898462982E+03  0.24605251089E+03  0.00000000000E+00 0.  1.
          2    1    6    6  502    0  0.29799157900E+03 -0.33780143179E+03 -0.41044801278E+03  0.60940656352E+03  0.00000000000E+00 0. -1.
         -1    1    6    6    0  502  0.37874112120E+02 -0.11856006077E+02 -0.23427471071E+02  0.46085351791E+02  0.00000000000E+00 0.  1.
<mgrwt>
<rscale>  0 0.91956725E+03</rscale>
<asrwt>0</asrwt>
<pdfrwt beam="1">  1        1 0.82910957E-01 0.91956725E+03</pdfrwt>
<pdfrwt beam="2">  1       -2 0.27143573E+00 0.91956725E+03</pdfrwt>
<totfact> 0.16862435E+00</totfact>
</mgrwt>
</event>
<event>
12    3  0.1176505E-007  0.1318499E+04  0.7818608E-02  0.9015022E-01
          1   -1    0    0  501    0  0.00000000000E+00  0.00000000000E+00  0.29362232509E+04  0.29362232509E+04  0.00000000000E+00 0. -1.
         -2   -1    0    0    0  501 -0.00000000000E+00 -0.00000000000E+00 -0.97682889728E+03  0.97682889728E+03  0.00000000000E+00 0.  1.
        -24    2    1    2    0    0  0.12836436681E+04  0.28199246441E+03 -0.18249354955E+03  0.13294607894E+04  0.83073931929E+02 0.  0.
    5000000    2    1    2    0    0 -0.12836436681E+04 -0.28199246441E+03  0.21418879032E+04  0.25835913589E+04  0.59999975247E+03 0.  0.
        -24    2    4    4    0    0 -0.61909294647E+03 -0.16337696190E+03  0.53361145724E+03  0.83761040490E+03  0.82957188025E+02 0.  0.
         24    2    4    4    0    0 -0.66455072164E+03 -0.11861550251E+03  0.16082764460E+04  0.17459809540E+04  0.78734146618E+02 0.  0.
         13    1    5    5    0    0 -0.27998277918E+03 -0.10400131823E+03  0.20990967881E+03  0.36505986371E+03  0.00000000000E+00 0. -1.
        -14    1    5    5    0    0 -0.33911016729E+03 -0.59375643667E+02  0.32370177843E+03  0.47255054119E+03  0.00000000000E+00 0.  1.
         15    1    3    3    0    0  0.89164412546E+03  0.23405985009E+03 -0.12018073389E+03  0.92965575694E+03  0.17770000000E+01 0. -1.
        -16    1    3    3    0    0  0.39199954265E+03  0.47932614324E+02 -0.62312815667E+02  0.39980503242E+03  0.00000000000E+00 0.  1.
          2    1    6    6  502    0 -0.50885940019E+03 -0.66973091457E+02  0.12781166819E+04  0.13773182408E+04  0.00000000000E+00 0. -1.
         -1    1    6    6    0  502 -0.15569132144E+03 -0.51642411054E+02  0.33015976413E+03  0.36866271312E+03  0.00000000000E+00 0.  1.
<mgrwt>
<rscale>  0 0.13184992E+04</rscale>
<asrwt>0</asrwt>
<pdfrwt beam="1">  1        1 0.45172665E+00 0.13184992E+04</pdfrwt>
<pdfrwt beam="2">  1       -2 0.15028137E+00 0.13184992E+04</pdfrwt>
<totfact> 0.16876469E-01</totfact>
</mgrwt>
</event>
<event>
12    3  0.1176505E-007  0.1346722E+04  0.7818608E-02  0.8993313E-01
          1   -1    0    0  501    0  0.00000000000E+00  0.00000000000E+00  0.66369140655E+03  0.66369140655E+03  0.00000000000E+00 0. -1.
         -2   -1    0    0    0  501 -0.00000000000E+00 -0.00000000000E+00 -0.29011615372E+04  0.29011615372E+04  0.00000000000E+00 0.  1.
        -24    2    1    2    0    0 -0.48455000203E+03  0.12291308726E+04 -0.10796372963E+04  0.17082528203E+04  0.83424216438E+02 0.  0.
    5000000    2    1    2    0    0  0.48455000203E+03 -0.12291308726E+04 -0.11578328343E+04  0.18566001234E+04  0.60069604608E+03 0.  0.
        -24    2    4    4    0    0  0.16786606434E+02 -0.50632816095E+03 -0.72656655737E+03  0.88958888361E+03  0.82579796794E+02 0.  0.
         24    2    4    4    0    0  0.46776339559E+03 -0.72280271166E+03 -0.43126627692E+03  0.96701123984E+03  0.88734334538E+02 0.  0.
         11    1    5    5    0    0  0.11374088188E+02 -0.13858813939E+03 -0.14046983472E+03  0.19765580367E+03  0.00000000000E+00 0. -1.
        -12    1    5    5    0    0  0.54125182464E+01 -0.36774002156E+03 -0.58609672265E+03  0.69193307994E+03  0.00000000000E+00 0.  1.
         15    1    3    3    0    0 -0.83919749473E+02  0.29905919258E+03 -0.23334619671E+03  0.38850036070E+03  0.17770000000E+01 0. -1.
        -16    1    3    3    0    0 -0.40063025255E+03  0.93007168003E+03 -0.84629109962E+03  0.13197524596E+04  0.00000000000E+00 0.  1.
          2    1    6    6  502    0  0.14524865803E+03 -0.28086390123E+03 -0.12496021401E+03  0.33999523343E+03  0.00000000000E+00 0. -1.
         -1    1    6    6    0  502  0.32251473756E+03 -0.44193881043E+03 -0.30630606291E+03  0.62701600640E+03  0.00000000000E+00 0.  1.
<mgrwt>
<rscale>  0 0.13467218E+04</rscale>
<asrwt>0</asrwt>
<pdfrwt beam="1">  1        1 0.10210637E+00 0.13467218E+04</pdfrwt>
<pdfrwt beam="2">  1       -2 0.44633253E+00 0.13467218E+04</pdfrwt>
<totfact> 0.92426169E-02</totfact>
</mgrwt>
</event>
<event>
12    3  0.1176505E-007  0.1989108E+04  0.7818608E-02  0.8611730E-01
          1   -1    0    0  501    0  0.00000000000E+00  0.00000000000E+00  0.23656616714E+04  0.23656616714E+04  0.00000000000E+00 0. -1.
         -2   -1    0    0    0  501 -0.00000000000E+00 -0.00000000000E+00 -0.16892652872E+04  0.16892652872E+04  0.00000000000E+00 0.  1.
        -24    2    1    2    0    0 -0.19978458457E+02  0.19445999240E+04  0.14595404707E+03  0.19518716615E+04  0.81439523228E+02 0.  0.
    5000000    2    1    2    0    0  0.19978458457E+02 -0.19445999240E+04  0.53044233711E+03  0.21030552970E+04  0.59967033131E+03 0.  0.
        -24    2    4    4    0    0 -0.27643940272E+03 -0.88391121009E+03  0.22266912458E+03  0.95590790072E+03  0.80377888283E+02 0.  0.
         24    2    4    4    0    0  0.29641786118E+03 -0.10606887139E+04  0.30777321253E+03  0.11471473963E+04  0.91097213567E+02 0.  0.
         13    1    5    5    0    0 -0.19841011284E+03 -0.53611320922E+03  0.16362938890E+03  0.59460787321E+03  0.00000000000E+00 0. -1.
        -14    1    5    5    0    0 -0.78029289882E+02 -0.34779800087E+03  0.59039735682E+02  0.36130002751E+03  0.00000000000E+00 0.  1.
         15    1    3    3    0    0 -0.36967143856E+02  0.10094569057E+04  0.44924271214E+02  0.10111336025E+04  0.17770000000E+01 0. -1.
        -16    1    3    3    0    0  0.16988685399E+02  0.93514301829E+03  0.10102977586E+03  0.94073805903E+03  0.00000000000E+00 0.  1.
          2    1    6    6  502    0  0.88808723147E+02 -0.19209776078E+03  0.46898987406E+02  0.21676728080E+03  0.00000000000E+00 0. -1.
         -1    1    6    6    0  502  0.20760913803E+03 -0.86859095312E+03  0.26087422512E+03  0.93038011553E+03  0.00000000000E+00 0.  1.
<mgrwt>
<rscale>  0 0.19891084E+04</rscale>
<asrwt>0</asrwt>
<pdfrwt beam="1">  1        1 0.36394795E+00 0.19891084E+04</pdfrwt>
<pdfrwt beam="2">  1       -2 0.25988697E+00 0.19891084E+04</pdfrwt>
<totfact> 0.73272425E-02</totfact>
</mgrwt>
</event>
<event>
12    3  0.1176505E-007  0.8390068E+03  0.7818608E-02  0.9505212E-01
          1   -1    0    0  501    0  0.00000000000E+00  0.00000000000E+00  0.12487319331E+04  0.12487319331E+04  0.00000000000E+00 0. -1.
         -2   -1    0    0    0  501 -0.00000000000E+00 -0.00000000000E+00 -0.13965413953E+04  0.13965413953E+04  0.00000000000E+00 0.  1.
        -24    2    1    2    0    0  0.67386909158E+03  0.45326402002E+03 -0.10231414192E+04  0.13089492869E+04  0.83558647245E+02 0.  0.
    5000000    2    1    2    0    0 -0.67386909158E+03 -0.45326402002E+03  0.87533195702E+03  0.13363240415E+04  0.60000673711E+03 0.  0.
        -24    2    4    4    0    0 -0.49348956643E+03 -0.46265731506E+03  0.33184213188E+03  0.75778585221E+03  0.80848339335E+02 0.  0.
         24    2    4    4    0    0 -0.18037952516E+03  0.93932950361E+01  0.54348982515E+03  0.57853818933E+03  0.81854990025E+02 0.  0.
         13    1    5    5    0    0 -0.18823199310E+03 -0.21840900518E+03  0.11241029502E+03  0.30946704380E+03  0.00000000000E+00 0. -1.
        -14    1    5    5    0    0 -0.30525757332E+03 -0.24424830988E+03  0.21943183686E+03  0.44831880841E+03  0.00000000000E+00 0.  1.
         15    1    3    3    0    0  0.31050706388E+03  0.19495751419E+03 -0.39817970837E+03  0.54127008688E+03  0.17770000000E+01 0. -1.
        -16    1    3    3    0    0  0.36336202770E+03  0.25830650583E+03 -0.62496171085E+03  0.76767920003E+03  0.00000000000E+00 0.  1.
          2    1    6    6  502    0 -0.81292744399E+02  0.26957068150E+02  0.35138548679E+03  0.36167244039E+03  0.00000000000E+00 0. -1.
         -1    1    6    6    0  502 -0.99086780759E+02 -0.17563773113E+02  0.19210433836E+03  0.21686574894E+03  0.00000000000E+00 0.  1.
<mgrwt>
<rscale>  0 0.83900683E+03</rscale>
<asrwt>0</asrwt>
<pdfrwt beam="1">  1        1 0.19211261E+00 0.83900683E+03</pdfrwt>
<pdfrwt beam="2">  1       -2 0.21485252E+00 0.83900683E+03</pdfrwt>
<totfact> 0.94147652E-01</totfact>
</mgrwt>
</event>
<event>
12    3  0.1190543E-007  0.1546157E+04  0.7818608E-02  0.8854326E-01
          1   -1    0    0  501    0  0.00000000000E+00  0.00000000000E+00  0.25694494397E+04  0.25694494397E+04  0.00000000000E+00 0. -1.
         -2   -1    0    0    0  501 -0.00000000000E+00 -0.00000000000E+00 -0.10057097011E+04  0.10057097011E+04  0.00000000000E+00 0.  1.
        -24    2    1    2    0    0 -0.14046789413E+04  0.50249934758E+03  0.28520866405E+03  0.15208344169E+04  0.77232240920E+02 0.  0.
    5000000    2    1    2    0    0  0.14046789413E+04 -0.50249934758E+03  0.12785310746E+04  0.20543247239E+04  0.59998319991E+03 0.  0.
        -24    2    4    4    0    0  0.47248168811E+03  0.10240281228E+03  0.46124765138E+03  0.67269047966E+03  0.77703307280E+02 0.  0.
         24    2    4    4    0    0  0.93219725321E+03 -0.60490215986E+03  0.81728342318E+03  0.13816342443E+04  0.77863015635E+02 0.  0.
         11    1    5    5    0    0  0.28586606745E+03  0.38740580503E+02  0.23111807996E+03  0.36964281134E+03  0.00000000000E+00 0. -1.
        -12    1    5    5    0    0  0.18661562067E+03  0.63662231775E+02  0.23012957142E+03  0.30304766832E+03  0.00000000000E+00 0.  1.
         15    1    3    3    0    0 -0.42461312267E+03  0.12651749158E+03  0.11112005341E+03  0.45678638729E+03  0.17770000000E+01 0. -1.
        -16    1    3    3    0    0 -0.98006581865E+03  0.37598185600E+03  0.17408861064E+03  0.10640480296E+04  0.00000000000E+00 0.  1.
          4    1    6    6  502    0  0.70744649953E+03 -0.41903919465E+03  0.59512537110E+03  0.10150116274E+04  0.00000000000E+00 0. -1.
         -3    1    6    6    0  502  0.22475075368E+03 -0.18586296521E+03  0.22215805208E+03  0.36662261690E+03  0.00000000000E+00 0.  1.
<mgrwt>
<rscale>  0 0.15461570E+04</rscale>
<asrwt>0</asrwt>
<pdfrwt beam="1">  1        1 0.39529991E+00 0.15461570E+04</pdfrwt>
<pdfrwt beam="2">  1       -2 0.15472457E+00 0.15461570E+04</pdfrwt>
<totfact> 0.27614457E-01</totfact>
</mgrwt>
</event>
<event>
12    3  0.1947036E-007  0.9261010E+03  0.7818608E-02  0.9393529E-01
         -2   -1    0    0    0  501 -0.00000000000E+00  0.00000000000E+00  0.12373979556E+04  0.12373979556E+04  0.00000000000E+00 0.  1.
          1   -1    0    0  501    0  0.00000000000E+00 -0.00000000000E+00 -0.84513783898E+03  0.84513783898E+03  0.00000000000E+00 0. -1.
        -24    2    1    2    0    0 -0.72962292553E+03  0.54801231177E+03  0.37793957637E+03  0.99034410774E+03  0.72636224069E+02 0.  0.
    5000000    2    1    2    0    0  0.72962292553E+03 -0.54801231177E+03  0.14320540212E+02  0.10921916868E+04  0.60000874622E+03 0.  0.
        -24    2    4    4    0    0  0.52932543978E+03 -0.50445157376E+03  0.24190704250E+03  0.77415423730E+03  0.78351480164E+02 0.  0.
         24    2    4    4    0    0  0.20029748575E+03 -0.43560738010E+02 -0.22758650229E+03  0.31803744951E+03  0.85648015562E+02 0.  0.
         11    1    5    5    0    0  0.20404889159E+03 -0.17382360148E+03  0.52403427766E+02  0.27312398985E+03  0.00000000000E+00 0. -1.
        -12    1    5    5    0    0  0.32527654819E+03 -0.33062797228E+03  0.18950361474E+03  0.50103024744E+03  0.00000000000E+00 0.  1.
         15    1    3    3    0    0 -0.44778732667E+03  0.36762470832E+03  0.26585185868E+03  0.63744943688E+03  0.17770000000E+01 0. -1.
        -16    1    3    3    0    0 -0.28183559886E+03  0.18038760345E+03  0.11208771769E+03  0.35289467086E+03  0.00000000000E+00 0.  1.
          4    1    6    6  502    0  0.11359702820E+03 -0.36728003025E+02 -0.70954498921E+02  0.13888042317E+03  0.00000000000E+00 0. -1.
         -3    1    6    6    0  502  0.86700457550E+02 -0.68327349856E+01 -0.15663200337E+03  0.17915702634E+03  0.00000000000E+00 0.  1.
<mgrwt>
<rscale>  0 0.92610105E+03</rscale>
<asrwt>0</asrwt>
<pdfrwt beam="1">  1        1 0.13002121E+00 0.92610105E+03</pdfrwt>
<pdfrwt beam="2">  1       -2 0.19036892E+00 0.92610105E+03</pdfrwt>
<totfact> 0.27438006E+00</totfact>
</mgrwt>
</event>
<event>
12    3  0.1176505E-007  0.5506960E+03  0.7818608E-02  0.1001333E+00
         -2   -1    0    0    0  501 -0.00000000000E+00  0.00000000000E+00  0.54812689071E+03  0.54812689071E+03  0.00000000000E+00 0.  1.
          1   -1    0    0  501    0  0.00000000000E+00 -0.00000000000E+00 -0.90833369961E+03  0.90833369961E+03  0.00000000000E+00 0. -1.
        -24    2    1    2    0    0  0.45370474208E+03  0.19318207584E+03  0.15680900577E+03  0.52348929343E+03  0.79275901938E+02 0.  0.
    5000000    2    1    2    0    0 -0.45370474208E+03 -0.19318207584E+03 -0.51701581467E+03  0.93297129690E+03  0.59996898320E+03 0.  0.
        -24    2    4    4    0    0 -0.50062406778E+03 -0.13464730135E+03 -0.14343711723E+03  0.54370595888E+03  0.79294452045E+02 0.  0.
         24    2    4    4    0    0  0.46919325702E+02 -0.58534774498E+02 -0.37357869744E+03  0.38926533801E+03  0.79616061494E+02 0.  0.
         11    1    5    5    0    0 -0.11097592811E+03 -0.50743807027E+02 -0.62070302785E+02  0.13690621994E+03  0.00000000000E+00 0. -1.
        -12    1    5    5    0    0 -0.38964813968E+03 -0.83903494319E+02 -0.81366814444E+02  0.40679973894E+03  0.00000000000E+00 0.  1.
         15    1    3    3    0    0  0.28424515873E+01  0.12664443069E+02  0.87881701318E+01  0.15775211965E+02  0.17770000000E+01 0. -1.
        -16    1    3    3    0    0  0.45086229049E+03  0.18051763277E+03  0.14802083564E+03  0.50771408146E+03  0.00000000000E+00 0.  1.
          4    1    6    6  502    0  0.36126397922E+02 -0.18548188468E+02 -0.31452155553E+03  0.31713240266E+03  0.00000000000E+00 0. -1.
         -3    1    6    6    0  502  0.10792927780E+02 -0.39986586030E+02 -0.59057141907E+02  0.72132935353E+02  0.00000000000E+00 0.  1.
<mgrwt>
<rscale>  0 0.55069597E+03</rscale>
<asrwt>0</asrwt>
<pdfrwt beam="1">  1        1 0.13974364E+00 0.55069597E+03</pdfrwt>
<pdfrwt beam="2">  1       -2 0.84327215E-01 0.55069597E+03</pdfrwt>
<totfact> 0.20164872E+01</totfact>
</mgrwt>
</event>
<event>
12    3  0.1176505E-007  0.3917771E+03  0.7818608E-02  0.1046665E+00
          1   -1    0    0  501    0  0.00000000000E+00  0.00000000000E+00  0.37094266507E+03  0.37094266507E+03  0.00000000000E+00 0. -1.
         -2   -1    0    0    0  501 -0.00000000000E+00 -0.00000000000E+00 -0.84358142774E+03  0.84358142774E+03  0.00000000000E+00 0.  1.
        -24    2    1    2    0    0  0.29821357001E+03 -0.28619398785E+02 -0.44817865797E+03  0.54342908784E+03  0.68561364656E+02 0.  0.
    5000000    2    1    2    0    0 -0.29821357001E+03  0.28619398785E+02 -0.24460104694E+02  0.67109500497E+03  0.60001650448E+03 0.  0.
        -24    2    4    4    0    0 -0.70924770965E+02  0.17079906487E+03  0.22104075218E+03  0.29911417579E+03  0.80047687887E+02 0.  0.
         24    2    4    4    0    0 -0.22728879905E+03 -0.14217966609E+03 -0.24550085687E+03  0.37198082918E+03  0.78891133437E+02 0.  0.
         13    1    5    5    0    0 -0.88069876293E+02  0.15440037939E+03  0.19696778383E+03  0.26531507332E+03  0.00000000000E+00 0. -1.
        -14    1    5    5    0    0  0.17145105329E+02  0.16398685483E+02  0.24072968355E+02  0.33799102469E+02  0.00000000000E+00 0.  1.
         15    1    3    3    0    0  0.23238753476E+03 -0.42807901495E+01 -0.30032004148E+03  0.37975989325E+03  0.17770000000E+01 0. -1.
        -16    1    3    3    0    0  0.65826035248E+02 -0.24338608635E+02 -0.14785861650E+03  0.16366919459E+03  0.00000000000E+00 0.  1.
          2    1    6    6  502    0 -0.11832534353E+03 -0.27919373874E+02 -0.10692714243E+03  0.16190673904E+03  0.00000000000E+00 0. -1.
         -1    1    6    6    0  502 -0.10896345552E+03 -0.11426029221E+03 -0.13857371445E+03  0.21007409014E+03  0.00000000000E+00 0.  1.
<mgrwt>
<rscale>  0 0.39177708E+03</rscale>
<asrwt>0</asrwt>
<pdfrwt beam="1">  1        1 0.57068102E-01 0.39177708E+03</pdfrwt>
<pdfrwt beam="2">  1       -2 0.12978176E+00 0.39177708E+03</pdfrwt>
<totfact> 0.26658991E+01</totfact>
</mgrwt>
</event>
<event>
12    3  0.1176505E-007  0.8908968E+03  0.7818608E-02  0.9437033E-01
          1   -1    0    0  501    0  0.00000000000E+00  0.00000000000E+00  0.72202448335E+03  0.72202448335E+03  0.00000000000E+00 0. -1.
         -2   -1    0    0    0  501 -0.00000000000E+00 -0.00000000000E+00 -0.11267437953E+04  0.11267437953E+04  0.00000000000E+00 0.  1.
        -24    2    1    2    0    0  0.43423576646E+03  0.66242603760E+03 -0.29538397962E+03  0.84914061768E+03  0.80119517090E+02 0.  0.
    5000000    2    1    2    0    0 -0.43423576646E+03 -0.66242603760E+03 -0.10933533232E+03  0.99962766097E+03  0.59994357194E+03 0.  0.
        -24    2    4    4    0    0 -0.26261979870E+03  0.29249394516E+02 -0.52552064533E+02  0.28079333861E+03  0.79110642604E+02 0.  0.
         24    2    4    4    0    0 -0.17161596777E+03 -0.69167543212E+03 -0.56783267786E+02  0.71883432236E+03  0.75043318931E+02 0.  0.
         11    1    5    5    0    0 -0.17999522128E+03 -0.13887353187E+02 -0.50911380813E+02  0.18757160489E+03  0.00000000000E+00 0. -1.
        -12    1    5    5    0    0 -0.82624577413E+02  0.43136747703E+02 -0.16406837205E+01  0.93221733722E+02  0.00000000000E+00 0.  1.
         15    1    3    3    0    0  0.34069221540E+03  0.54403345737E+03 -0.20795636682E+03  0.67475373033E+03  0.17770000000E+01 0. -1.
        -16    1    3    3    0    0  0.93543551064E+02  0.11839258023E+03 -0.87427612803E+02  0.17438688735E+03  0.00000000000E+00 0.  1.
          2    1    6    6  502    0 -0.12770730541E+03 -0.38927405074E+03 -0.54152701567E+02  0.41325047794E+03  0.00000000000E+00 0. -1.
         -1    1    6    6    0  502 -0.43908662352E+02 -0.30240138138E+03 -0.26305662192E+01  0.30558384442E+03  0.00000000000E+00 0.  1.
<mgrwt>
<rscale>  0 0.89089684E+03</rscale>
<asrwt>0</asrwt>
<pdfrwt beam="1">  1        1 0.11108069E+00 0.89089684E+03</pdfrwt>
<pdfrwt beam="2">  1       -2 0.17334520E+00 0.89089684E+03</pdfrwt>
<totfact> 0.46276610E+00</totfact>
</mgrwt>
</event>
<event>
12    3  0.1176505E-007  0.9850517E+03  0.7818608E-02  0.9325093E-01
         -2   -1    0    0    0  501 -0.00000000000E+00  0.00000000000E+00  0.69688807380E+03  0.69688807380E+03  0.00000000000E+00 0.  1.
          1   -1    0    0  501    0  0.00000000000E+00 -0.00000000000E+00 -0.22924206154E+04  0.22924206154E+04  0.00000000000E+00 0. -1.
        -24    2    1    2    0    0  0.70549397700E+03 -0.63390032420E+03  0.98824239181E+02  0.95697391271E+03  0.80507557148E+02 0.  0.
    5000000    2    1    2    0    0 -0.70549397700E+03  0.63390032420E+03 -0.16943567808E+04  0.20323347765E+04  0.59999030869E+03 0.  0.
        -24    2    4    4    0    0 -0.27555090918E+03  0.48129776690E+02 -0.15836225403E+03  0.33133799836E+03  0.80383373256E+02 0.  0.
         24    2    4    4    0    0 -0.42994306782E+03  0.58577054751E+03 -0.15359945268E+04  0.17009967781E+04  0.78311411057E+02 0.  0.
         11    1    5    5    0    0 -0.10366307990E+03 -0.18318804719E+02 -0.41683512776E+02  0.11322158795E+03  0.00000000000E+00 0. -1.
        -12    1    5    5    0    0 -0.17188782929E+03  0.66448581409E+02 -0.11667874126E+03  0.21811641041E+03  0.00000000000E+00 0.  1.
         15    1    3    3    0    0  0.20129415456E+03 -0.21139557374E+03  0.59984088562E+02  0.29800784196E+03  0.17770000000E+01 0. -1.
        -16    1    3    3    0    0  0.50419982244E+03 -0.42250475046E+03  0.38840150619E+02  0.65896607075E+03  0.00000000000E+00 0.  1.
          2    1    6    6  502    0 -0.30005072818E+03  0.46533993276E+03 -0.11671666173E+04  0.12918396205E+04  0.00000000000E+00 0. -1.
         -1    1    6    6    0  502 -0.12989233964E+03  0.12043061475E+03 -0.36882790949E+03  0.40915715768E+03  0.00000000000E+00 0.  1.
<mgrwt>
<rscale>  0 0.98505174E+03</rscale>
<asrwt>0</asrwt>
<pdfrwt beam="1">  1        1 0.35268010E+00 0.98505174E+03</pdfrwt>
<pdfrwt beam="2">  1       -2 0.10721355E+00 0.98505174E+03</pdfrwt>
<totfact> 0.11692734E+00</totfact>
</mgrwt>
</event>
<event>
12    3  0.1176505E-007  0.6878810E+03  0.7818608E-02  0.9738185E-01
          1   -1    0    0  501    0  0.00000000000E+00  0.00000000000E+00  0.19736971840E+04  0.19736971840E+04  0.00000000000E+00 0. -1.
         -2   -1    0    0    0  501 -0.00000000000E+00 -0.00000000000E+00 -0.42483835238E+03  0.42483835238E+03  0.00000000000E+00 0.  1.
        -24    2    1    2    0    0  0.11560463516E+03  0.67220269744E+03  0.12770892150E+04  0.14502344430E+04  0.83679019360E+02 0.  0.
    5000000    2    1    2    0    0 -0.11560463516E+03 -0.67220269744E+03  0.27176961654E+03  0.94830109337E+03  0.60016276217E+03 0.  0.
        -24    2    4    4    0    0 -0.35673589255E+02 -0.19418424816E+03 -0.18190226548E+03  0.27970557742E+03  0.78528011870E+02 0.  0.
         24    2    4    4    0    0 -0.79931045910E+02 -0.47801844928E+03  0.45367188202E+03  0.66859551595E+03  0.79442919568E+02 0.  0.
         11    1    5    5    0    0 -0.45878146636E+02 -0.15952402321E+03 -0.17796520697E+03  0.24336050052E+03  0.00000000000E+00 0. -1.
        -12    1    5    5    0    0  0.10204557381E+02 -0.34660224952E+02 -0.39370585027E+01  0.36345076897E+02  0.00000000000E+00 0.  1.
         15    1    3    3    0    0  0.54360720452E+02  0.42550879552E+03  0.87586007903E+03  0.97526758316E+03  0.17770000000E+01 0. -1.
        -16    1    3    3    0    0  0.61243914712E+02  0.24669390192E+03  0.40122913601E+03  0.47496685981E+03  0.00000000000E+00 0.  1.
          4    1    6    6  502    0 -0.93041377576E+02 -0.36340531826E+03  0.33222959082E+03  0.50109542434E+03  0.00000000000E+00 0. -1.
         -3    1    6    6    0  502  0.13110331666E+02 -0.11461313102E+03  0.12144229121E+03  0.16750009162E+03  0.00000000000E+00 0.  1.
<mgrwt>
<rscale>  0 0.68788095E+03</rscale>
<asrwt>0</asrwt>
<pdfrwt beam="1">  1        1 0.30364572E+00 0.68788095E+03</pdfrwt>
<pdfrwt beam="2">  1       -2 0.65359748E-01 0.68788095E+03</pdfrwt>
<totfact> 0.61929879E+00</totfact>
</mgrwt>
</event>
<event>
12    3  0.1557380E-007  0.8164180E+03  0.7818608E-02  0.9536552E-01
          1   -1    0    0  501    0  0.00000000000E+00  0.00000000000E+00  0.10552645305E+04  0.10552645305E+04  0.00000000000E+00 0. -1.
         -2   -1    0    0    0  501 -0.00000000000E+00 -0.00000000000E+00 -0.76075724109E+03  0.76075724109E+03  0.00000000000E+00 0.  1.
        -24    2    1    2    0    0  0.75622787750E+02 -0.76495169420E+03  0.32983672278E+03  0.84023136591E+03  0.79539827031E+02 0.  0.
    5000000    2    1    2    0    0 -0.75622787750E+02  0.76495169420E+03 -0.35329433341E+02  0.97579040572E+03  0.60004070408E+03 0.  0.
        -24    2    4    4    0    0 -0.20138577221E+03  0.66342324358E+03  0.15446777393E+03  0.71415924747E+03  0.74003433670E+02 0.  0.
         24    2    4    4    0    0  0.12576298446E+03  0.10152845061E+03 -0.18979720727E+03  0.26163115824E+03  0.79394763862E+02 0.  0.
         13    1    5    5    0    0 -0.97865370561E+02  0.22183629805E+03  0.74105528680E+02  0.25353619716E+03  0.00000000000E+00 0. -1.
        -14    1    5    5    0    0 -0.10352040165E+03  0.44158694553E+03  0.80362245253E+02  0.46062305032E+03  0.00000000000E+00 0.  1.
         15    1    3    3    0    0  0.81031044105E+02 -0.42866547174E+03  0.17689008333E+03  0.47075829900E+03  0.17770000000E+01 0. -1.
        -16    1    3    3    0    0 -0.54082563550E+01 -0.33628622246E+03  0.15294663945E+03  0.36947306691E+03  0.00000000000E+00 0.  1.
          2    1    6    6  502    0  0.24165824469E+02  0.35886091808E+02 -0.10597953303E+03  0.11447034585E+03  0.00000000000E+00 0. -1.
         -1    1    6    6    0  502  0.10159715999E+03  0.65642358805E+02 -0.83817674245E+02  0.14716081239E+03  0.00000000000E+00 0.  1.
<mgrwt>
<rscale>  0 0.81641795E+03</rscale>
<asrwt>0</asrwt>
<pdfrwt beam="1">  1        1 0.16234839E+00 0.81641795E+03</pdfrwt>
<pdfrwt beam="2">  1       -2 0.11703958E+00 0.81641795E+03</pdfrwt>
<totfact> 0.69054343E+00</totfact>
</mgrwt>
</event>
<event>
12    3  0.1176505E-007  0.8740197E+03  0.7818608E-02  0.9458654E-01
          1   -1    0    0  501    0  0.00000000000E+00  0.00000000000E+00  0.22485687441E+04  0.22485687441E+04  0.00000000000E+00 0. -1.
         -2   -1    0    0    0  501 -0.00000000000E+00 -0.00000000000E+00 -0.34997668178E+03  0.34997668178E+03  0.00000000000E+00 0.  1.
        -24    2    1    2    0    0  0.59977075695E+03 -0.49573438348E+03  0.70907815238E+03  0.10556917242E+04  0.78839396911E+02 0.  0.
    5000000    2    1    2    0    0 -0.59977075695E+03  0.49573438348E+03  0.11895139099E+04  0.15428537016E+04  0.59998055216E+03 0.  0.
        -24    2    4    4    0    0 -0.25225903382E+03  0.55200963134E+03  0.85024942762E+03  0.10477559904E+04  0.80742014890E+02 0.  0.
         24    2    4    4    0    0 -0.34751172313E+03 -0.56275247867E+02  0.33926448229E+03  0.49509771127E+03  0.78038794997E+02 0.  0.
         13    1    5    5    0    0 -0.10546032451E+03  0.15447998085E+03  0.22789988959E+03  0.29482927976E+03  0.00000000000E+00 0. -1.
        -14    1    5    5    0    0 -0.14679870931E+03  0.39752965049E+03  0.62234953803E+03  0.75292671061E+03  0.00000000000E+00 0.  1.
         15    1    3    3    0    0  0.25232169990E+03 -0.20684078778E+03  0.24543955268E+03  0.40828064303E+03  0.17770000000E+01 0. -1.
        -16    1    3    3    0    0  0.34744905706E+03 -0.28889359570E+03  0.46363859970E+03  0.64741108116E+03  0.00000000000E+00 0.  1.
          4    1    6    6  502    0 -0.67609009224E+02  0.17086974710E+02  0.48894791548E+02  0.85168324355E+02  0.00000000000E+00 0. -1.
         -3    1    6    6    0  502 -0.27990271391E+03 -0.73362222577E+02  0.29036969074E+03  0.40992938692E+03  0.00000000000E+00 0.  1.
<mgrwt>
<rscale>  0 0.87401974E+03</rscale>
<asrwt>0</asrwt>
<pdfrwt beam="1">  1        1 0.34593364E+00 0.87401974E+03</pdfrwt>
<pdfrwt beam="2">  1       -2 0.53842568E-01 0.87401974E+03</pdfrwt>
<totfact> 0.59253321E+00</totfact>
</mgrwt>
</event>
<event>
12    3  0.1176505E-007  0.6221219E+03  0.7818608E-02  0.9860544E-01
         -2   -1    0    0    0  501 -0.00000000000E+00  0.00000000000E+00  0.56446809498E+03  0.56446809498E+03  0.00000000000E+00 0.  1.
          1   -1    0    0  501    0  0.00000000000E+00 -0.00000000000E+00 -0.10731566372E+04  0.10731566372E+04  0.00000000000E+00 0. -1.
        -24    2    1    2    0    0  0.58205246033E+03 -0.31572355388E+02 -0.54268529724E+03  0.80042496206E+03  0.79943153826E+02 0.  0.
    5000000    2    1    2    0    0 -0.58205246033E+03  0.31572355388E+02  0.33996754985E+02  0.83719977016E+03  0.59997149567E+03 0.  0.
        -24    2    4    4    0    0 -0.33908156242E+03 -0.12816845196E+03  0.26638813664E+03  0.45650284443E+03  0.77645022891E+02 0.  0.
         24    2    4    4    0    0 -0.24297089791E+03  0.15974080735E+03 -0.23239138165E+03  0.38069692573E+03  0.79827390236E+02 0.  0.
         13    1    5    5    0    0 -0.27233491936E+03 -0.13104001413E+03  0.23420003780E+03  0.38234467607E+03  0.00000000000E+00 0. -1.
        -14    1    5    5    0    0 -0.66746643054E+02  0.28715621709E+01  0.32188098835E+02  0.74158168363E+02  0.00000000000E+00 0.  1.
         15    1    3    3    0    0  0.16594148135E+03  0.49711169404E+01 -0.11090604532E+03  0.19966120268E+03  0.17770000000E+01 0. -1.
        -16    1    3    3    0    0  0.41611097898E+03 -0.36543472328E+02 -0.43177925192E+03  0.60076375938E+03  0.00000000000E+00 0.  1.
          2    1    6    6  502    0 -0.22920753580E+03  0.14456793166E+03 -0.23664660883E+03  0.35977437207E+03  0.00000000000E+00 0. -1.
         -1    1    6    6    0  502 -0.13763362108E+02  0.15172875695E+02  0.42552271730E+01  0.20922553660E+02  0.00000000000E+00 0.  1.
<mgrwt>
<rscale>  0 0.62212190E+03</rscale>
<asrwt>0</asrwt>
<pdfrwt beam="1">  1        1 0.16510102E+00 0.62212190E+03</pdfrwt>
<pdfrwt beam="2">  1       -2 0.86841247E-01 0.62212190E+03</pdfrwt>
<totfact> 0.13922376E+01</totfact>
</mgrwt>
</event>
<event>
12    3  0.1176505E-007  0.7200105E+03  0.7818608E-02  0.9683611E-01
         -2   -1    0    0    0  501 -0.00000000000E+00  0.00000000000E+00  0.15365320129E+04  0.15365320129E+04  0.00000000000E+00 0.  1.
          1   -1    0    0  501    0  0.00000000000E+00 -0.00000000000E+00 -0.20718534925E+04  0.20718534925E+04  0.00000000000E+00 0. -1.
        -24    2    1    2    0    0 -0.55961221089E+03 -0.42248896030E+03 -0.18625890694E+04  0.19918058155E+04  0.79935080121E+02 0.  0.
    5000000    2    1    2    0    0  0.55961221089E+03  0.42248896030E+03  0.13272675898E+04  0.16165796900E+04  0.60002324193E+03 0.  0.
        -24    2    4    4    0    0  0.40489160916E+03  0.20447203291E+03  0.12414861408E+04  0.13243138278E+04  0.82299753075E+02 0.  0.
         24    2    4    4    0    0  0.15472060173E+03  0.21801692739E+03  0.85781449044E+02  0.29226586216E+03  0.81185170786E+02 0.  0.
         13    1    5    5    0    0  0.38232295868E+03  0.20883138479E+03  0.12034429157E+04  0.12798657131E+04  0.00000000000E+00 0. -1.
        -14    1    5    5    0    0  0.22568650486E+02 -0.43593518786E+01  0.38043225030E+02  0.44448114744E+02  0.00000000000E+00 0.  1.
         15    1    3    3    0    0 -0.11034593879E+03 -0.58526823704E+02 -0.26970899102E+03  0.29723343161E+03  0.17770000000E+01 0. -1.
        -16    1    3    3    0    0 -0.44926627209E+03 -0.36396213660E+03 -0.15928800783E+04  0.16945723838E+04  0.00000000000E+00 0.  1.
          4    1    6    6  502    0  0.88198544372E+02  0.18291240605E+03  0.50863280268E+02  0.20933944873E+03  0.00000000000E+00 0. -1.
         -3    1    6    6    0  502  0.66522057353E+02  0.35104521345E+02  0.34918168776E+02  0.82926413428E+02  0.00000000000E+00 0.  1.
<mgrwt>
<rscale>  0 0.72001049E+03</rscale>
<asrwt>0</asrwt>
<pdfrwt beam="1">  1        1 0.31874669E+00 0.72001049E+03</pdfrwt>
<pdfrwt beam="2">  1       -2 0.23638954E+00 0.72001049E+03</pdfrwt>
<totfact> 0.19492994E-01</totfact>
</mgrwt>
</event>
<event>
12    3  0.1176505E-007  0.1111436E+04  0.7818608E-02  0.9194117E-01
          3   -1    0    0  501    0  0.00000000000E+00  0.00000000000E+00  0.13275612907E+04  0.13275612907E+04  0.00000000000E+00 0. -1.
         -4   -1    0    0    0  501 -0.00000000000E+00 -0.00000000000E+00 -0.15154292857E+04  0.15154292857E+04  0.00000000000E+00 0.  1.
        -24    2    1    2    0    0 -0.97056699057E+03 -0.36431916586E+03  0.78271653291E+03  0.13013428507E+04  0.78225996353E+02 0.  0.
    5000000    2    1    2    0    0  0.97056699057E+03  0.36431916586E+03 -0.97058452789E+03  0.15416477257E+04  0.59992886785E+03 0.  0.
        -24    2    4    4    0    0  0.28769433085E+03  0.40630982612E+03 -0.47716240373E+03  0.69428637512E+03  0.80584789796E+02 0.  0.
         24    2    4    4    0    0  0.68287265972E+03 -0.41990660259E+02 -0.49342212416E+03  0.84736135055E+03  0.80483419700E+02 0.  0.
         13    1    5    5    0    0  0.11481023381E+03  0.12927686966E+03 -0.12070993940E+03  0.21086675482E+03  0.00000000000E+00 0. -1.
        -14    1    5    5    0    0  0.17288409704E+03  0.27703295646E+03 -0.35645246432E+03  0.48341962030E+03  0.00000000000E+00 0.  1.
         15    1    3    3    0    0 -0.45498347876E+03 -0.17000709430E+03  0.41568347172E+03  0.63930296765E+03  0.17770000000E+01 0. -1.
        -16    1    3    3    0    0 -0.51558351181E+03 -0.19431207156E+03  0.36703306119E+03  0.66203988310E+03  0.00000000000E+00 0.  1.
          4    1    6    6  502    0  0.38401355832E+03  0.58679154336E+01 -0.30902010856E+03  0.49294449272E+03  0.00000000000E+00 0. -1.
         -3    1    6    6    0  502  0.29885910139E+03 -0.47858575692E+02 -0.18440201560E+03  0.35441685783E+03  0.00000000000E+00 0.  1.
<mgrwt>
<rscale>  0 0.11114356E+04</rscale>
<asrwt>0</asrwt>
<pdfrwt beam="1">  1        3 0.20424020E+00 0.11114356E+04</pdfrwt>
<pdfrwt beam="2">  1       -4 0.23314297E+00 0.11114356E+04</pdfrwt>
<totfact> 0.24290042E-02</totfact>
</mgrwt>
</event>
<event>
12    3  0.1176505E-007  0.4117221E+03  0.7818608E-02  0.1039795E+00
         -2   -1    0    0    0  501 -0.00000000000E+00  0.00000000000E+00  0.33655614966E+03  0.33655614966E+03  0.00000000000E+00 0.  1.
          1   -1    0    0  501    0  0.00000000000E+00 -0.00000000000E+00 -0.64894870475E+03  0.64894870475E+03  0.00000000000E+00 0. -1.
        -24    2    1    2    0    0  0.24704099747E+03 -0.80392523359E+02 -0.31049114598E+02  0.27374453039E+03  0.80497255600E+02 0.  0.
    5000000    2    1    2    0    0 -0.24704099747E+03  0.80392523359E+02 -0.28134344049E+03  0.71176032402E+03  0.59996367815E+03 0.  0.
        -24    2    4    4    0    0 -0.28868970924E+03  0.24925697338E+03 -0.33703527037E+03  0.51264523339E+03  0.61168413785E+02 0.  0.
         24    2    4    4    0    0  0.41648711773E+02 -0.16886445002E+03  0.55691829879E+02  0.19911509063E+03  0.79343693679E+02 0.  0.
         11    1    5    5    0    0 -0.22166001819E+03  0.20414563657E+03 -0.29442708593E+03  0.42130263888E+03  0.00000000000E+00 0. -1.
        -12    1    5    5    0    0 -0.67029691059E+02  0.45111336805E+02 -0.42608184439E+02  0.91342594516E+02  0.00000000000E+00 0.  1.
         15    1    3    3    0    0  0.19803526791E+03 -0.61948646177E+02  0.91866086153E+01  0.20770930072E+03  0.17770000000E+01 0. -1.
        -16    1    3    3    0    0  0.49005729563E+02 -0.18443877182E+02 -0.40235723213E+02  0.66035229674E+02  0.00000000000E+00 0.  1.
          2    1    6    6  502    0  0.66891392033E+00 -0.10834497253E+03  0.63543419360E+02  0.12560591810E+03  0.00000000000E+00 0. -1.
         -1    1    6    6    0  502  0.40979797852E+02 -0.60519477495E+02 -0.78515894810E+01  0.73509172527E+02  0.00000000000E+00 0.  1.
<mgrwt>
<rscale>  0 0.41172206E+03</rscale>
<asrwt>0</asrwt>
<pdfrwt beam="1">  1        1 0.99838260E-01 0.41172206E+03</pdfrwt>
<pdfrwt beam="2">  1       -2 0.51777870E-01 0.41172206E+03</pdfrwt>
<totfact> 0.98391887E+01</totfact>
</mgrwt>
</event>
<event>
12    3  0.1176505E-007  0.5145562E+03  0.7818608E-02  0.1010048E+00
         -2   -1    0    0    0  501 -0.00000000000E+00  0.00000000000E+00  0.23922424836E+03  0.23922424836E+03  0.00000000000E+00 0.  1.
          1   -1    0    0  501    0  0.00000000000E+00 -0.00000000000E+00 -0.11636962223E+04  0.11636962223E+04  0.00000000000E+00 0. -1.
        -24    2    1    2    0    0 -0.27862674908E+03  0.20210018081E+03 -0.40555257756E+03  0.53818750412E+03  0.81826328496E+02 0.  0.
    5000000    2    1    2    0    0  0.27862674908E+03 -0.20210018081E+03 -0.51891939636E+03  0.86473296652E+03  0.60000701252E+03 0.  0.
        -24    2    4    4    0    0  0.40359053107E+03  0.31138792519E+02 -0.27319429999E+03  0.49489659252E+03  0.80203307763E+02 0.  0.
         24    2    4    4    0    0 -0.12496378199E+03 -0.23323897333E+03 -0.24572509637E+03  0.36983637400E+03  0.79885887723E+02 0.  0.
         11    1    5    5    0    0  0.20195025049E+03 -0.22252462945E+02 -0.15111697708E+03  0.25321022204E+03  0.00000000000E+00 0. -1.
        -12    1    5    5    0    0  0.20164028057E+03  0.53391255464E+02 -0.12207732291E+03  0.24168637048E+03  0.00000000000E+00 0.  1.
         15    1    3    3    0    0 -0.20723442233E+03  0.11049097332E+03 -0.30209999527E+03  0.38265118039E+03  0.17770000000E+01 0. -1.
        -16    1    3    3    0    0 -0.71392326752E+02  0.91609207489E+02 -0.10345258229E+03  0.15553632373E+03  0.00000000000E+00 0.  1.
          4    1    6    6  502    0 -0.49454998130E+02 -0.12453716333E+03 -0.17297738564E+03  0.21880694192E+03  0.00000000000E+00 0. -1.
         -1    1    6    6    0  502 -0.75508783857E+02 -0.10870181000E+03 -0.72747710732E+02  0.15102943208E+03  0.00000000000E+00 0.  1.
<mgrwt>
<rscale>  0 0.51455619E+03</rscale>
<asrwt>0</asrwt>
<pdfrwt beam="1">  1        1 0.17903019E+00 0.51455619E+03</pdfrwt>
<pdfrwt beam="2">  1       -2 0.36803730E-01 0.51455619E+03</pdfrwt>
<totfact> 0.72494551E+01</totfact>
</mgrwt>
</event>
<event>
12    3  0.1176505E-007  0.1495821E+04  0.7818608E-02  0.8887237E-01
          1   -1    0    0  501    0  0.00000000000E+00  0.00000000000E+00  0.22292217636E+04  0.22292217636E+04  0.00000000000E+00 0. -1.
         -2   -1    0    0    0  501 -0.00000000000E+00 -0.00000000000E+00 -0.11240874458E+04  0.11240874458E+04  0.00000000000E+00 0.  1.
        -24    2    1    2    0    0  0.12965392562E+04 -0.73937250047E+03  0.20107934806E+03  0.15080607135E+04  0.78284571275E+02 0.  0.
    5000000    2    1    2    0    0 -0.12965392562E+04  0.73937250047E+03  0.90405496976E+03  0.18452484959E+04  0.59995073649E+03 0.  0.
        -24    2    4    4    0    0 -0.68989770331E+03  0.35023749139E+03  0.79471417426E+03  0.11120120469E+04  0.79843798523E+02 0.  0.
         24    2    4    4    0    0 -0.60664155286E+03  0.38913500908E+03  0.10934079550E+03  0.73323644909E+03  0.78995264266E+02 0.  0.
         11    1    5    5    0    0 -0.31244611564E+02  0.31644182012E+02  0.29909175342E+02  0.53592338787E+02  0.00000000000E+00 0. -1.
        -12    1    5    5    0    0 -0.65865309175E+03  0.31859330938E+03  0.76480499892E+03  0.10584197081E+04  0.00000000000E+00 0.  1.
         15    1    3    3    0    0  0.11135372451E+04 -0.66231328835E+03  0.16229341831E+03  0.13057436194E+04  0.17770000000E+01 0. -1.
        -16    1    3    3    0    0  0.18300201103E+03 -0.77059212117E+02  0.38785929757E+02  0.20231709409E+03  0.00000000000E+00 0.  1.
          4    1    6    6  502    0 -0.36603956174E+03  0.21751051245E+03  0.10087467007E+03  0.43757454548E+03  0.00000000000E+00 0. -1.
         -3    1    6    6    0  502 -0.24060199111E+03  0.17162449663E+03  0.84661254272E+01  0.29566190362E+03  0.00000000000E+00 0.  1.
<mgrwt>
<rscale>  0 0.14958208E+04</rscale>
<asrwt>0</asrwt>
<pdfrwt beam="1">  1        1 0.34295719E+00 0.14958208E+04</pdfrwt>
<pdfrwt beam="2">  1       -2 0.17293653E+00 0.14958208E+04</pdfrwt>
<totfact> 0.35008044E-01</totfact>
</mgrwt>
</event>
<event>
12    3  0.1176505E-007  0.1168030E+04  0.7818608E-02  0.9141309E-01
         -2   -1    0    0    0  501 -0.00000000000E+00  0.00000000000E+00  0.27415671874E+04  0.27415671874E+04  0.00000000000E+00 0.  1.
          1   -1    0    0  501    0  0.00000000000E+00 -0.00000000000E+00 -0.52738088810E+03  0.52738088810E+03  0.00000000000E+00 0. -1.
        -24    2    1    2    0    0 -0.55266595011E+03  0.95151943366E+03  0.71006318035E+03  0.13110714244E+04  0.62367257441E+02 0.  0.
    5000000    2    1    2    0    0  0.55266595011E+03 -0.95151943366E+03  0.15041231190E+04  0.19578766511E+04  0.60005477982E+03 0.  0.
        -24    2    4    4    0    0  0.23550081075E+03 -0.88953355145E+01  0.38245900601E+03  0.45664154026E+03  0.81895336572E+02 0.  0.
         24    2    4    4    0    0  0.31716513936E+03 -0.94262409815E+03  0.11216641129E+04  0.15012351108E+04  0.80265556975E+02 0.  0.
         11    1    5    5    0    0  0.54432885542E+02  0.12658815496E+02  0.15713840463E+03  0.16678028315E+03  0.00000000000E+00 0. -1.
        -12    1    5    5    0    0  0.18106792521E+03 -0.21554151010E+02  0.22532060138E+03  0.28986125711E+03  0.00000000000E+00 0.  1.
         15    1    3    3    0    0 -0.40384729597E+03  0.64837384348E+03  0.47268072401E+03  0.89828253014E+03  0.17770000000E+01 0. -1.
        -16    1    3    3    0    0 -0.14881865414E+03  0.30314559018E+03  0.23738245634E+03  0.41278889428E+03  0.00000000000E+00 0.  1.
          4    1    6    6  502    0  0.80469355178E+02 -0.32561661089E+03  0.41738093149E+03  0.53545152570E+03  0.00000000000E+00 0. -1.
         -3    1    6    6    0  502  0.23669578418E+03 -0.61700748725E+03  0.70428318146E+03  0.96578358511E+03  0.00000000000E+00 0.  1.
<mgrwt>
<rscale>  0 0.11680302E+04</rscale>
<asrwt>0</asrwt>
<pdfrwt beam="1">  1        1 0.81135523E-01 0.11680302E+04</pdfrwt>
<pdfrwt beam="2">  1       -2 0.42177956E+00 0.11680302E+04</pdfrwt>
<totfact> 0.19224806E-01</totfact>
</mgrwt>
</event>
<event>
12    3  0.1176505E-007  0.1085742E+04  0.7818608E-02  0.9219201E-01
         -2   -1    0    0    0  501 -0.00000000000E+00  0.00000000000E+00  0.14514217587E+04  0.14514217587E+04  0.00000000000E+00 0.  1.
          1   -1    0    0  501    0  0.00000000000E+00 -0.00000000000E+00 -0.12494544316E+04  0.12494544316E+04  0.00000000000E+00 0. -1.
        -24    2    1    2    0    0 -0.23033458959E+03 -0.10191842644E+04  0.83488176498E+03  0.13398585512E+04  0.80017421870E+02 0.  0.
    5000000    2    1    2    0    0  0.23033458959E+03  0.10191842644E+04 -0.63291443795E+03  0.13610176391E+04  0.59999811686E+03 0.  0.
        -24    2    4    4    0    0  0.27280844360E+03  0.33457974406E+03 -0.23606532170E+02  0.44011343851E+03  0.82307462399E+02 0.  0.
         24    2    4    4    0    0 -0.42473854006E+02  0.68460452034E+03 -0.60930790578E+03  0.92090420059E+03  0.79505000349E+02 0.  0.
         11    1    5    5    0    0  0.21042908655E+03  0.29898871814E+03 -0.35430122899E+02  0.36732811988E+03  0.00000000000E+00 0. -1.
        -12    1    5    5    0    0  0.62379357048E+02  0.35591025915E+02  0.11823590728E+02  0.72785318637E+02  0.00000000000E+00 0.  1.
         15    1    3    3    0    0  0.42472139035E+00 -0.10315908584E+03  0.76046583894E+02  0.12817261030E+03  0.17770000000E+01 0. -1.
        -16    1    3    3    0    0 -0.23075931098E+03 -0.91602517856E+03  0.75883518109E+03  0.12116859409E+04  0.00000000000E+00 0.  1.
          2    1    6    6  502    0 -0.68662364013E+01  0.27377395133E+03 -0.19376160974E+03  0.33547411679E+03  0.00000000000E+00 0. -1.
         -1    1    6    6    0  502 -0.35607617604E+02  0.41083056900E+03 -0.41554629605E+03  0.58543008380E+03  0.00000000000E+00 0.  1.
<mgrwt>
<rscale>  0 0.10857420E+04</rscale>
<asrwt>0</asrwt>
<pdfrwt beam="1">  1        1 0.19222376E+00 0.10857420E+04</pdfrwt>
<pdfrwt beam="2">  1       -2 0.22329566E+00 0.10857420E+04</pdfrwt>
<totfact> 0.80285011E-01</totfact>
</mgrwt>
</event>
<event>
12    3  0.1176505E-007  0.9904076E+03  0.7818608E-02  0.9319129E-01
         -2   -1    0    0    0  501 -0.00000000000E+00  0.00000000000E+00  0.60504252853E+03  0.60504252853E+03  0.00000000000E+00 0.  1.
          1   -1    0    0  501    0  0.00000000000E+00 -0.00000000000E+00 -0.20597389685E+04  0.20597389685E+04  0.00000000000E+00 0. -1.
        -24    2    1    2    0    0  0.79134080062E+03 -0.54041841603E+03 -0.21189053214E+03  0.98462365740E+03  0.79459562018E+02 0.  0.
    5000000    2    1    2    0    0 -0.79134080062E+03  0.54041841603E+03 -0.12428059078E+04  0.16801578396E+04  0.60007625715E+03 0.  0.
        -24    2    4    4    0    0 -0.74415214177E+03  0.39535797154E+03 -0.66384928914E+03  0.10749623090E+04  0.69121278999E+02 0.  0.
         24    2    4    4    0    0 -0.47188658844E+02  0.14506044449E+03 -0.57895661865E+03  0.60519553064E+03  0.88326451007E+02 0.  0.
         13    1    5    5    0    0 -0.47943999500E+03  0.28699555202E+03 -0.45929919927E+03  0.72331522183E+03  0.00000000000E+00 0. -1.
        -14    1    5    5    0    0 -0.26471214677E+03  0.10836241951E+03 -0.20455008987E+03  0.35164708712E+03  0.00000000000E+00 0.  1.
         15    1    3    3    0    0  0.94258722873E+02 -0.41028447452E+02 -0.74530499882E+01  0.10308610974E+03  0.17770000000E+01 0. -1.
        -16    1    3    3    0    0  0.69708207774E+03 -0.49938996858E+03 -0.20443748215E+03  0.88153754766E+03  0.00000000000E+00 0.  1.
          2    1    6    6  502    0  0.17540367948E+02  0.86945269447E+02 -0.31685347861E+03  0.32903384521E+03  0.00000000000E+00 0. -1.
         -1    1    6    6    0  502 -0.64729026792E+02  0.58115175047E+02 -0.26210314004E+03  0.27616168543E+03  0.00000000000E+00 0.  1.
<mgrwt>
<rscale>  0 0.99040760E+03</rscale>
<asrwt>0</asrwt>
<pdfrwt beam="1">  1        1 0.31688292E+00 0.99040760E+03</pdfrwt>
<pdfrwt beam="2">  1       -2 0.93083466E-01 0.99040760E+03</pdfrwt>
<totfact> 0.23484564E+00</totfact>
</mgrwt>
</event>
<event>
12    3  0.1176505E-007  0.3615796E+03  0.7818608E-02  0.1057960E+00
         -2   -1    0    0    0  501 -0.00000000000E+00  0.00000000000E+00  0.23383518116E+03  0.23383518116E+03  0.00000000000E+00 0.  1.
          1   -1    0    0  501    0  0.00000000000E+00 -0.00000000000E+00 -0.15518997818E+04  0.15518997818E+04  0.00000000000E+00 0. -1.
        -24    2    1    2    0    0  0.31447829627E+03 -0.13888315432E+03 -0.70999319248E+02  0.35970749915E+03  0.78507657142E+02 0.  0.
    5000000    2    1    2    0    0 -0.31447829627E+03  0.13888315432E+03 -0.12470652814E+04  0.14260274638E+04  0.60016446253E+03 0.  0.
        -24    2    4    4    0    0 -0.10185869731E+03  0.79912302969E+02 -0.11693670601E+04  0.11791860880E+04  0.79368370988E+02 0.  0.
         24    2    4    4    0    0 -0.21261959897E+03  0.58970851356E+02 -0.77698221230E+02  0.24684137582E+03  0.78797183086E+02 0.  0.
         13    1    5    5    0    0 -0.59270697888E+02  0.86807049064E+02 -0.93416937435E+03  0.94006430597E+03  0.00000000000E+00 0. -1.
        -14    1    5    5    0    0 -0.42587999420E+02 -0.68947460945E+01 -0.23519768579E+03  0.23912178199E+03  0.00000000000E+00 0.  1.
         15    1    3    3    0    0  0.25958138023E+03 -0.14505870065E+03 -0.58485887159E+02  0.30306480548E+03  0.17770000000E+01 0. -1.
        -16    1    3    3    0    0  0.54896916045E+02  0.61755463241E+01 -0.12513432089E+02  0.56642693671E+02  0.00000000000E+00 0.  1.
          2    1    6    6  502    0 -0.80695826163E+02  0.88902120130E+01  0.82740771502E+01  0.81604611282E+02  0.00000000000E+00 0. -1.
         -1    1    6    6    0  502 -0.13192377280E+03  0.50080639343E+02 -0.85972298381E+02  0.16523676454E+03  0.00000000000E+00 0.  1.
<mgrwt>
<rscale>  0 0.36157956E+03</rscale>
<asrwt>0</asrwt>
<pdfrwt beam="1">  1        1 0.23875382E+00 0.36157956E+03</pdfrwt>
<pdfrwt beam="2">  1       -2 0.35974643E-01 0.36157956E+03</pdfrwt>
<totfact> 0.41921097E+01</totfact>
</mgrwt>
</event>
<event>
12    3  0.1176505E-007  0.6127963E+03  0.7818608E-02  0.9879208E-01
          1   -1    0    0  501    0  0.00000000000E+00  0.00000000000E+00  0.77549483800E+03  0.77549483800E+03  0.00000000000E+00 0. -1.
         -2   -1    0    0    0  501 -0.00000000000E+00 -0.00000000000E+00 -0.71846926637E+03  0.71846926637E+03  0.00000000000E+00 0.  1.
        -24    2    1    2    0    0 -0.52069937056E+03 -0.30837215789E+03  0.17160869757E+03  0.63417656015E+03  0.80679254496E+02 0.  0.
    5000000    2    1    2    0    0  0.52069937056E+03  0.30837215789E+03 -0.11458312594E+03  0.85978754422E+03  0.59990341405E+03 0.  0.
        -24    2    4    4    0    0  0.20549390172E+03  0.11551822155E+03  0.23643294873E+03  0.34388735307E+03  0.82375780405E+02 0.  0.
         24    2    4    4    0    0  0.31520546883E+03  0.19285393634E+03 -0.35101607467E+03  0.51590019116E+03  0.79959953791E+02 0.  0.
         13    1    5    5    0    0  0.64768395444E+01 -0.86142230104E+01  0.28369860461E+02  0.30348035705E+02  0.00000000000E+00 0. -1.
        -14    1    5    5    0    0  0.19901706218E+03  0.12413244456E+03  0.20806308827E+03  0.31353931736E+03  0.00000000000E+00 0.  1.
         15    1    3    3    0    0 -0.14711946220E+03 -0.12994811782E+03  0.63077414795E+02  0.20618575962E+03  0.17770000000E+01 0. -1.
        -16    1    3    3    0    0 -0.37357990835E+03 -0.17842404007E+03  0.10853128278E+03  0.42799080054E+03  0.00000000000E+00 0.  1.
          4    1    6    6  502    0  0.24292021459E+03  0.13962408968E+03 -0.30793580335E+03  0.41632868753E+03  0.00000000000E+00 0. -1.
         -3    1    6    6    0  502  0.72285254248E+02  0.53229846661E+02 -0.43080271319E+02  0.99571503626E+02  0.00000000000E+00 0.  1.
<mgrwt>
<rscale>  0 0.61279630E+03</rscale>
<asrwt>0</asrwt>
<pdfrwt beam="1">  1        1 0.11930690E+00 0.61279630E+03</pdfrwt>
<pdfrwt beam="2">  1       -2 0.11053373E+00 0.61279630E+03</pdfrwt>
<totfact> 0.13714662E+01</totfact>
</mgrwt>
</event>
<event>
12    3  0.1176505E-007  0.7597784E+03  0.7818608E-02  0.9620133E-01
          1   -1    0    0  501    0  0.00000000000E+00  0.00000000000E+00  0.16376139290E+04  0.16376139290E+04  0.00000000000E+00 0. -1.
         -2   -1    0    0    0  501 -0.00000000000E+00 -0.00000000000E+00 -0.37676812911E+03  0.37676812911E+03  0.00000000000E+00 0.  1.
        -24    2    1    2    0    0 -0.30105986764E+03  0.59468632582E+03  0.59935124980E+03  0.89997283730E+03  0.80251587011E+02 0.  0.
    5000000    2    1    2    0    0  0.30105986764E+03 -0.59468632582E+03  0.66149455014E+03  0.11144092209E+04  0.60003666691E+03 0.  0.
        -24    2    4    4    0    0  0.11300710146E+03  0.72567040959E+02  0.27609491293E+03  0.31739740447E+03  0.80474412142E+02 0.  0.
         24    2    4    4    0    0  0.18805276618E+03 -0.66725336678E+03  0.38539963722E+03  0.79701181639E+03  0.78128463057E+02 0.  0.
         13    1    5    5    0    0  0.39667373566E+02 -0.11644787451E+02  0.47407632718E+02  0.62901392992E+02  0.00000000000E+00 0. -1.
        -14    1    5    5    0    0  0.73339727895E+02  0.84211828410E+02  0.22868728021E+03  0.25449601148E+03  0.00000000000E+00 0.  1.
         15    1    3    3    0    0 -0.95407124301E+02  0.13455894286E+03  0.18176012433E+03  0.24545575772E+03  0.17770000000E+01 0. -1.
        -16    1    3    3    0    0 -0.20565274334E+03  0.46012738296E+03  0.41759112547E+03  0.65451707958E+03  0.00000000000E+00 0.  1.
          2    1    6    6  502    0  0.80496793150E+02 -0.16057255998E+03  0.95303800853E+02  0.20333739249E+03  0.00000000000E+00 0. -1.
         -1    1    6    6    0  502  0.10755597303E+03 -0.50668080680E+03  0.29009583636E+03  0.59367442390E+03  0.00000000000E+00 0.  1.
<mgrwt>
<rscale>  0 0.75977843E+03</rscale>
<asrwt>0</asrwt>
<pdfrwt beam="1">  1        1 0.25194060E+00 0.75977843E+03</pdfrwt>
<pdfrwt beam="2">  1       -2 0.57964328E-01 0.75977843E+03</pdfrwt>
<totfact> 0.13275951E+01</totfact>
</mgrwt>
</event>
<event>
12    3  0.1176505E-007  0.9624313E+03  0.7818608E-02  0.9350737E-01
         -2   -1    0    0    0  501 -0.00000000000E+00  0.00000000000E+00  0.84685534751E+03  0.84685534751E+03  0.00000000000E+00 0.  1.
          1   -1    0    0  501    0  0.00000000000E+00 -0.00000000000E+00 -0.16091843569E+04  0.16091843569E+04  0.00000000000E+00 0. -1.
        -24    2    1    2    0    0 -0.49795818402E+03 -0.72664389061E+03  0.31663188477E+03  0.93952903731E+03  0.80531762120E+02 0.  0.
    5000000    2    1    2    0    0  0.49795818402E+03  0.72664389061E+03 -0.10789608941E+04  0.15165106671E+04  0.59972851813E+03 0.  0.
        -24    2    4    4    0    0 -0.78494475302E+02  0.30944928644E+03 -0.48566840847E+03  0.58663130271E+03  0.79638174280E+02 0.  0.
         24    2    4    4    0    0  0.57645265932E+03  0.41719460417E+03 -0.59329248566E+03  0.92987936435E+03  0.79565397736E+02 0.  0.
         13    1    5    5    0    0 -0.40073480465E+02  0.42212158552E+02 -0.10299758730E+03  0.11830576130E+03  0.00000000000E+00 0. -1.
        -14    1    5    5    0    0 -0.38420994837E+02  0.26723712789E+03 -0.38267082117E+03  0.46832554142E+03  0.00000000000E+00 0.  1.
         15    1    3    3    0    0 -0.24049722679E+03 -0.34510832408E+03  0.10869280632E+03  0.43446053367E+03  0.17770000000E+01 0. -1.
        -16    1    3    3    0    0 -0.25746095723E+03 -0.38153556653E+03  0.20793907845E+03  0.50506850364E+03  0.00000000000E+00 0.  1.
          2    1    6    6  502    0  0.25489295983E+03  0.23205149144E+03 -0.27308148776E+03  0.43976336205E+03  0.00000000000E+00 0. -1.
         -1    1    6    6    0  502  0.32155969950E+03  0.18514311273E+03 -0.32021099790E+03  0.49011600230E+03  0.00000000000E+00 0.  1.
<mgrwt>
<rscale>  0 0.96243126E+03</rscale>
<asrwt>0</asrwt>
<pdfrwt beam="1">  1        1 0.24756682E+00 0.96243126E+03</pdfrwt>
<pdfrwt beam="2">  1       -2 0.13028544E+00 0.96243126E+03</pdfrwt>
<totfact> 0.20935575E+00</totfact>
</mgrwt>
</event>
<event>
12    3  0.1176505E-007  0.5414442E+03  0.7818608E-02  0.1003494E+00
          1   -1    0    0  501    0  0.00000000000E+00  0.00000000000E+00  0.13000426518E+04  0.13000426518E+04  0.00000000000E+00 0. -1.
         -2   -1    0    0    0  501 -0.00000000000E+00 -0.00000000000E+00 -0.47444933168E+03  0.47444933168E+03  0.00000000000E+00 0.  1.
        -24    2    1    2    0    0  0.64037653166E+02  0.38650962358E+03 -0.25793396241E+03  0.47551306146E+03  0.78052754673E+02 0.  0.
    5000000    2    1    2    0    0 -0.64037653166E+02 -0.38650962358E+03  0.10835272826E+04  0.12989789221E+04  0.59985361360E+03 0.  0.
        -24    2    4    4    0    0  0.24707268969E+03 -0.20585118209E+03  0.37345369568E+03  0.49909229315E+03  0.78777097610E+02 0.  0.
         24    2    4    4    0    0 -0.31111034285E+03 -0.18065844149E+03  0.71007358690E+03  0.79988662892E+03  0.78657500626E+02 0.  0.
         11    1    5    5    0    0  0.15134968201E+03 -0.13627725305E+03  0.17738618814E+03  0.27008160931E+03  0.00000000000E+00 0. -1.
        -12    1    5    5    0    0  0.95723007673E+02 -0.69573929043E+02  0.19606750754E+03  0.22901068384E+03  0.00000000000E+00 0.  1.
         15    1    3    3    0    0  0.45361296263E+02  0.18153683559E+03 -0.80265900619E+02  0.20361493659E+03  0.17770000000E+01 0. -1.
        -16    1    3    3    0    0  0.18676356903E+02  0.20497278800E+03 -0.17766806179E+03  0.27189812487E+03  0.00000000000E+00 0.  1.
          2    1    6    6  502    0 -0.31458982564E+03 -0.18281144523E+03  0.69803904796E+03  0.78717551752E+03  0.00000000000E+00 0. -1.
         -1    1    6    6    0  502  0.34794827931E+01  0.21530037367E+01  0.12034538939E+02  0.12711111402E+02  0.00000000000E+00 0.  1.
<mgrwt>
<rscale>  0 0.54144421E+03</rscale>
<asrwt>0</asrwt>
<pdfrwt beam="1">  1        1 0.20000656E+00 0.54144421E+03</pdfrwt>
<pdfrwt beam="2">  1       -2 0.72992205E-01 0.54144421E+03</pdfrwt>
<totfact> 0.14257698E+01</totfact>
</mgrwt>
</event>
<event>
12    3  0.1176505E-007  0.8595843E+03  0.7818608E-02  0.9477563E-01
         -2   -1    0    0    0  501 -0.00000000000E+00  0.00000000000E+00  0.86850859640E+03  0.86850859640E+03  0.00000000000E+00 0.  1.
          1   -1    0    0  501    0  0.00000000000E+00 -0.00000000000E+00 -0.14196049734E+04  0.14196049734E+04  0.00000000000E+00 0. -1.
        -24    2    1    2    0    0  0.34293660477E+03 -0.73272125875E+03 -0.90862429140E+03  0.12192965894E+04  0.81241074639E+02 0.  0.
    5000000    2    1    2    0    0 -0.34293660477E+03  0.73272125875E+03  0.35752791438E+03  0.10688169804E+04  0.60004797314E+03 0.  0.
        -24    2    4    4    0    0 -0.38670083339E+03  0.35643204200E+03  0.42175726103E+03  0.67876594599E+03  0.79137141063E+02 0.  0.
         24    2    4    4    0    0  0.43764228628E+02  0.37628921675E+03 -0.64229346648E+02  0.39005103439E+03  0.67123156258E+02 0.  0.
         13    1    5    5    0    0 -0.18052028431E+03  0.14832888040E+03  0.14035994203E+03  0.27256181525E+03  0.00000000000E+00 0. -1.
        -14    1    5    5    0    0 -0.20618054908E+03  0.20810316161E+03  0.28139731900E+03  0.40620413074E+03  0.00000000000E+00 0.  1.
         15    1    3    3    0    0  0.27768385626E+03 -0.61125541858E+03 -0.79551256423E+03  0.10409538454E+04  0.17770000000E+01 0. -1.
        -16    1    3    3    0    0  0.65252748502E+02 -0.12146584017E+03 -0.11311172717E+03  0.17834274400E+03  0.00000000000E+00 0.  1.
          2    1    6    6  502    0  0.53607951912E+02  0.20979175276E+03 -0.19736306358E+02  0.21743025048E+03  0.00000000000E+00 0. -1.
         -1    1    6    6    0  502 -0.98437232841E+01  0.16649746399E+03 -0.44493040290E+02  0.17262078391E+03  0.00000000000E+00 0.  1.
<mgrwt>
<rscale>  0 0.85958427E+03</rscale>
<asrwt>0</asrwt>
<pdfrwt beam="1">  1        1 0.21840076E+00 0.85958427E+03</pdfrwt>
<pdfrwt beam="2">  1       -2 0.13361671E+00 0.85958427E+03</pdfrwt>
<totfact> 0.26869954E+00</totfact>
</mgrwt>
</event>
<event>
12    3  0.1176505E-007  0.4309582E+03  0.7818608E-02  0.1033558E+00
         -2   -1    0    0    0  501 -0.00000000000E+00  0.00000000000E+00  0.66384971435E+03  0.66384971435E+03  0.00000000000E+00 0.  1.
          1   -1    0    0  501    0  0.00000000000E+00 -0.00000000000E+00 -0.35275962211E+03  0.35275962211E+03  0.00000000000E+00 0. -1.
        -24    2    1    2    0    0  0.27755228825E+03  0.23473079326E+02  0.98482694261E+01  0.28972541817E+03  0.79104812485E+02 0.  0.
    5000000    2    1    2    0    0 -0.27755228825E+03 -0.23473079326E+02  0.30124182281E+03  0.72688391829E+03  0.60002278015E+03 0.  0.
        -24    2    4    4    0    0 -0.14166103839E+03  0.23301092287E+03  0.31621702120E+03  0.42577451765E+03  0.83239386183E+02 0.  0.
         24    2    4    4    0    0 -0.13589124986E+03 -0.25648400220E+03 -0.14975198385E+02  0.30110940064E+03  0.78690148130E+02 0.  0.
         13    1    5    5    0    0 -0.13202175256E+03  0.15316344627E+03  0.19973013952E+03  0.28421983227E+03  0.00000000000E+00 0. -1.
        -14    1    5    5    0    0 -0.96392858285E+01  0.79847476604E+02  0.11648688168E+03  0.14155468539E+03  0.00000000000E+00 0.  1.
         15    1    3    3    0    0  0.22109939838E+03  0.48738753978E+02  0.18968302669E+02  0.22720775589E+03  0.17770000000E+01 0. -1.
        -16    1    3    3    0    0  0.56452889867E+02 -0.25265674652E+02 -0.91200332433E+01  0.62517662275E+02  0.00000000000E+00 0.  1.
          2    1    6    6  502    0 -0.10930661466E+03 -0.18676285203E+03  0.22581082006E+02  0.21757344547E+03  0.00000000000E+00 0. -1.
         -1    1    6    6    0  502 -0.26584635196E+02 -0.69721150167E+02 -0.37556280391E+02  0.83535955169E+02  0.00000000000E+00 0.  1.
<mgrwt>
<rscale>  0 0.43095823E+03</rscale>
<asrwt>0</asrwt>
<pdfrwt beam="1">  1        1 0.54270711E-01 0.43095823E+03</pdfrwt>
<pdfrwt beam="2">  1       -2 0.10213073E+00 0.43095823E+03</pdfrwt>
<totfact> 0.50664073E+01</totfact>
</mgrwt>
</event>
<event>
12    3  0.1176505E-007  0.1212344E+04  0.7818608E-02  0.9102120E-01
          1   -1    0    0  501    0  0.00000000000E+00  0.00000000000E+00  0.11435429836E+04  0.11435429836E+04  0.00000000000E+00 0. -1.
         -2   -1    0    0    0  501 -0.00000000000E+00 -0.00000000000E+00 -0.13228089517E+04  0.13228089517E+04  0.00000000000E+00 0.  1.
        -24    2    1    2    0    0  0.88792976045E+01  0.11497630663E+04 -0.19757330284E+03  0.11693544037E+04  0.79501954831E+02 0.  0.
    5000000    2    1    2    0    0 -0.88792976045E+01 -0.11497630663E+04  0.18307334662E+02  0.12969975316E+04  0.59986122373E+03 0.  0.
        -24    2    4    4    0    0  0.23275881622E+03 -0.87768768943E+03 -0.70460272209E+02  0.91425284934E+03  0.79882888409E+02 0.  0.
         24    2    4    4    0    0 -0.24163811382E+03 -0.27207537691E+03  0.88767606871E+02  0.38274468223E+03  0.78738903782E+02 0.  0.
         13    1    5    5    0    0  0.20647002163E+03 -0.66157864698E+03 -0.69750348801E+02  0.69654955827E+03  0.00000000000E+00 0. -1.
        -14    1    5    5    0    0  0.26288794585E+02 -0.21610904246E+03 -0.70992340732E+00  0.21770329107E+03  0.00000000000E+00 0.  1.
         15    1    3    3    0    0  0.12753394544E+02  0.89320818761E+03 -0.18631160107E+03  0.91252325226E+03  0.17770000000E+01 0. -1.
        -16    1    3    3    0    0 -0.38740969391E+01  0.25655487874E+03 -0.11261701769E+02  0.25683115145E+03  0.00000000000E+00 0.  1.
          2    1    6    6  502    0 -0.22527804541E+03 -0.24925739558E+03  0.57742379278E+02  0.34090120176E+03  0.00000000000E+00 0. -1.
         -1    1    6    6    0  502 -0.16360068415E+02 -0.22817981331E+02  0.31025227593E+02  0.41843480469E+02  0.00000000000E+00 0.  1.
<mgrwt>
<rscale>  0 0.12123440E+04</rscale>
<asrwt>0</asrwt>
<pdfrwt beam="1">  1        1 0.17592969E+00 0.12123440E+04</pdfrwt>
<pdfrwt beam="2">  1       -2 0.20350907E+00 0.12123440E+04</pdfrwt>
<totfact> 0.12663349E+00</totfact>
</mgrwt>
</event>
<event>
12    3  0.1176505E-007  0.4972753E+03  0.7818608E-02  0.1014493E+00
         -4   -1    0    0    0  501 -0.00000000000E+00  0.00000000000E+00  0.10273229191E+04  0.10273229191E+04  0.00000000000E+00 0.  1.
          3   -1    0    0  501    0  0.00000000000E+00 -0.00000000000E+00 -0.30322523662E+03  0.30322523662E+03  0.00000000000E+00 0. -1.
        -24    2    1    2    0    0 -0.34155398575E+03 -0.42622685746E+02  0.36776619856E+02  0.35546372258E+03  0.80784403094E+02 0.  0.
    5000000    2    1    2    0    0  0.34155398575E+03  0.42622685746E+02  0.68732106259E+03  0.97508443311E+03  0.59991965303E+03 0.  0.
        -24    2    4    4    0    0 -0.14677223270E+03  0.29309958663E+02  0.69200505980E+02  0.18333848350E+03  0.80144416754E+02 0.  0.
         24    2    4    4    0    0  0.48832621844E+03  0.13312727083E+02  0.61812055661E+03  0.79174594961E+03  0.78414934092E+02 0.  0.
         11    1    5    5    0    0 -0.13828513405E+03  0.40993475729E+02  0.38302518799E+02  0.14923245726E+03  0.00000000000E+00 0. -1.
        -12    1    5    5    0    0 -0.84870986452E+01 -0.11683517066E+02  0.30897987181E+02  0.34106026246E+02  0.00000000000E+00 0.  1.
         15    1    3    3    0    0 -0.33475037337E+03 -0.35380034174E+02  0.21585168748E+02  0.33731089002E+03  0.17770000000E+01 0. -1.
        -16    1    3    3    0    0 -0.68036123805E+01 -0.72426515724E+01  0.15191451108E+02  0.18152832561E+02  0.00000000000E+00 0.  1.
          4    1    6    6  502    0  0.40123689564E+03  0.11939837060E+00  0.45719602711E+03  0.60829209093E+03  0.00000000000E+00 0. -1.
         -3    1    6    6    0  502  0.87089322805E+02  0.13193328712E+02  0.16092452950E+03  0.18345385868E+03  0.00000000000E+00 0.  1.
<mgrwt>
<rscale>  0 0.49727528E+03</rscale>
<asrwt>0</asrwt>
<pdfrwt beam="1">  1        3 0.46650037E-01 0.49727528E+03</pdfrwt>
<pdfrwt beam="2">  1       -4 0.15804968E+00 0.49727528E+03</pdfrwt>
<totfact> 0.26867017E+00</totfact>
</mgrwt>
</event>
<event>
12    3  0.1176505E-007  0.1374734E+04  0.7818608E-02  0.8972314E-01
         -2   -1    0    0    0  501 -0.00000000000E+00  0.00000000000E+00  0.23745478936E+04  0.23745478936E+04  0.00000000000E+00 0.  1.
          1   -1    0    0  501    0  0.00000000000E+00 -0.00000000000E+00 -0.81088941686E+03  0.81088941686E+03  0.00000000000E+00 0. -1.
        -24    2    1    2    0    0  0.31094510819E+03 -0.12761423974E+04  0.57779236314E+03  0.14369615215E+04  0.76079697500E+02 0.  0.
    5000000    2    1    2    0    0 -0.31094510819E+03  0.12761423974E+04  0.98586611359E+03  0.17484757890E+04  0.60000775986E+03 0.  0.
        -24    2    4    4    0    0 -0.48049335785E+03  0.96798208727E+03  0.74232780162E+03  0.13134704719E+04  0.79315366573E+02 0.  0.
         24    2    4    4    0    0  0.16954824966E+03  0.30816031018E+03  0.24353831197E+03  0.43500531706E+03  0.78799306722E+02 0.  0.
         13    1    5    5    0    0 -0.39866241843E+03  0.83892468166E+03  0.60908932430E+03  0.11107277571E+04  0.00000000000E+00 0. -1.
        -14    1    5    5    0    0 -0.81830939425E+02  0.12905740561E+03  0.13323847732E+03  0.20274271486E+03  0.00000000000E+00 0.  1.
         15    1    3    3    0    0  0.12302678920E+03 -0.63475068241E+03  0.30854252758E+03  0.71641166150E+03  0.17770000000E+01 0. -1.
        -16    1    3    3    0    0  0.18791831899E+03 -0.64139171504E+03  0.26924983555E+03  0.72054985995E+03  0.00000000000E+00 0.  1.
          2    1    6    6  502    0  0.62322206237E+02  0.85866366681E+02  0.34486760063E+02  0.11156355559E+03  0.00000000000E+00 0. -1.
         -1    1    6    6    0  502  0.10722604342E+03  0.22229394350E+03  0.20905155191E+03  0.32344176146E+03  0.00000000000E+00 0.  1.
<mgrwt>
<rscale>  0 0.13747335E+04</rscale>
<asrwt>0</asrwt>
<pdfrwt beam="1">  1        1 0.12475222E+00 0.13747335E+04</pdfrwt>
<pdfrwt beam="2">  1       -2 0.36531506E+00 0.13747335E+04</pdfrwt>
<totfact> 0.22819614E-01</totfact>
</mgrwt>
</event>
<event>
12    3  0.1176505E-007  0.7118270E+03  0.7818608E-02  0.9697218E-01
          1   -1    0    0  501    0  0.00000000000E+00  0.00000000000E+00  0.63235899887E+03  0.63235899887E+03  0.00000000000E+00 0. -1.
         -2   -1    0    0    0  501 -0.00000000000E+00 -0.00000000000E+00 -0.10191801736E+04  0.10191801736E+04  0.00000000000E+00 0.  1.
        -24    2    1    2    0    0  0.41499320423E+03  0.46997850448E+03 -0.45826859005E+03  0.78074923395E+03  0.80374818531E+02 0.  0.
    5000000    2    1    2    0    0 -0.41499320423E+03 -0.46997850448E+03  0.71447415356E+02  0.87078993849E+03  0.60005935505E+03 0.  0.
        -24    2    4    4    0    0 -0.36470905917E+03 -0.52393106730E+02 -0.12856777647E+03  0.39839977837E+03  0.80218294579E+02 0.  0.
         24    2    4    4    0    0 -0.50284145059E+02 -0.41758539775E+03  0.20001519182E+03  0.47239016012E+03  0.78995738886E+02 0.  0.
         11    1    5    5    0    0 -0.11215236281E+03 -0.10139200708E+02 -0.79058133658E+02  0.13759049521E+03  0.00000000000E+00 0. -1.
        -12    1    5    5    0    0 -0.25255669636E+03 -0.42253906023E+02 -0.49509642808E+02  0.26080928315E+03  0.00000000000E+00 0.  1.
         15    1    3    3    0    0  0.73417033233E+02  0.76763227028E+02 -0.42985894809E+02  0.11460191392E+03  0.17770000000E+01 0. -1.
        -16    1    3    3    0    0  0.34157617099E+03  0.39321527745E+03 -0.41528269524E+03  0.66614732003E+03  0.00000000000E+00 0.  1.
          2    1    6    6  502    0  0.20852048981E+02 -0.12819039708E+03  0.64680044120E+02  0.14508995126E+03  0.00000000000E+00 0. -1.
         -1    1    6    6    0  502 -0.71136194041E+02 -0.28939500067E+03  0.13533514770E+03  0.32730020886E+03  0.00000000000E+00 0.  1.
<mgrwt>
<rscale>  0 0.71182697E+03</rscale>
<asrwt>0</asrwt>
<pdfrwt beam="1">  1        1 0.97286001E-01 0.71182697E+03</pdfrwt>
<pdfrwt beam="2">  1       -2 0.15679695E+00 0.71182697E+03</pdfrwt>
<totfact> 0.75843368E+00</totfact>
</mgrwt>
</event>
<event>
12    3  0.1176505E-007  0.1317905E+04  0.7818608E-02  0.9015486E-01
         -2   -1    0    0    0  501 -0.00000000000E+00  0.00000000000E+00  0.18867634817E+04  0.18867634817E+04  0.00000000000E+00 0.  1.
          1   -1    0    0  501    0  0.00000000000E+00 -0.00000000000E+00 -0.10743771512E+04  0.10743771512E+04  0.00000000000E+00 0. -1.
        -24    2    1    2    0    0  0.97493398043E+03  0.82588642172E+03 -0.93875474710E+02  0.12837234478E+04  0.80923655152E+02 0.  0.
    5000000    2    1    2    0    0 -0.97493398043E+03 -0.82588642172E+03  0.90626180527E+03  0.16774171850E+04  0.59986107159E+03 0.  0.
        -24    2    4    4    0    0 -0.91740747997E+03 -0.87040969680E+03  0.71670127660E+03  0.14556111077E+04  0.76768824701E+02 0.  0.
         24    2    4    4    0    0 -0.57526500461E+02  0.44523275076E+02  0.18956052867E+03  0.22180607733E+03  0.89292338030E+02 0.  0.
         11    1    5    5    0    0 -0.44475373339E+03 -0.43315908203E+03  0.30874570380E+03  0.69336612502E+03  0.00000000000E+00 0. -1.
        -12    1    5    5    0    0 -0.47265374659E+03 -0.43725061477E+03  0.40795557279E+03  0.76224498270E+03  0.00000000000E+00 0.  1.
         15    1    3    3    0    0  0.39353032838E+03  0.36055654938E+03 -0.50583386772E+01  0.53375639497E+03  0.17770000000E+01 0. -1.
        -16    1    3    3    0    0  0.58140365205E+03  0.46532987234E+03 -0.88817136032E+02  0.74996705285E+03  0.00000000000E+00 0.  1.
          4    1    6    6  502    0 -0.44063082694E+02 -0.21272910494E+01  0.15764618179E+03  0.16370216632E+03  0.00000000000E+00 0. -1.
         -3    1    6    6    0  502 -0.13463417767E+02  0.46650566126E+02  0.31914346877E+02  0.58103911008E+02  0.00000000000E+00 0.  1.
<mgrwt>
<rscale>  0 0.13179046E+04</rscale>
<asrwt>0</asrwt>
<pdfrwt beam="1">  1        1 0.16528879E+00 0.13179046E+04</pdfrwt>
<pdfrwt beam="2">  1       -2 0.29027130E+00 0.13179046E+04</pdfrwt>
<totfact> 0.40929323E-01</totfact>
</mgrwt>
</event>
<event>
12    3  0.1176505E-007  0.4835767E+03  0.7818608E-02  0.1018157E+00
         -2   -1    0    0    0  501 -0.00000000000E+00  0.00000000000E+00  0.40674582152E+03  0.40674582152E+03  0.00000000000E+00 0.  1.
          1   -1    0    0  501    0  0.00000000000E+00 -0.00000000000E+00 -0.78447070158E+03  0.78447070158E+03  0.00000000000E+00 0. -1.
        -24    2    1    2    0    0  0.29738265796E+02 -0.38913920086E+03 -0.23560016594E+03  0.46163648824E+03  0.72712632882E+02 0.  0.
    5000000    2    1    2    0    0 -0.29738265796E+02  0.38913920086E+03 -0.14212471412E+03  0.72958003486E+03  0.59981156275E+03 0.  0.
        -24    2    4    4    0    0  0.19114483358E+03  0.19427329373E+03 -0.27552811164E+03  0.39730678681E+03  0.87512756133E+02 0.  0.
         24    2    4    4    0    0 -0.22088309937E+03  0.19486590713E+03  0.13340339752E+03  0.33227324805E+03  0.76465544831E+02 0.  0.
         13    1    5    5    0    0  0.42212982702E+02  0.40567769411E+02 -0.15570896277E+02  0.60581619609E+02  0.00000000000E+00 0. -1.
        -14    1    5    5    0    0  0.14893185088E+03  0.15370552432E+03 -0.25995721536E+03  0.33672516720E+03  0.00000000000E+00 0.  1.
         15    1    3    3    0    0 -0.60300365870E+01 -0.29358209437E+02 -0.41657227491E+02  0.51349275884E+02  0.17770000000E+01 0. -1.
        -16    1    3    3    0    0  0.35768302383E+02 -0.35978099142E+03 -0.19394293845E+03  0.41028721235E+03  0.00000000000E+00 0.  1.
          4    1    6    6  502    0 -0.80130828619E+01 -0.62443803482E+01 -0.69830033141E+00  0.10182799529E+02  0.00000000000E+00 0. -1.
         -3    1    6    6    0  502 -0.21287001651E+03  0.20111028748E+03  0.13410169785E+03  0.32209044852E+03  0.00000000000E+00 0.  1.
<mgrwt>
<rscale>  0 0.48357673E+03</rscale>
<asrwt>0</asrwt>
<pdfrwt beam="1">  1        1 0.12068780E+00 0.48357673E+03</pdfrwt>
<pdfrwt beam="2">  1       -2 0.62576280E-01 0.48357673E+03</pdfrwt>
<totfact> 0.49558659E+01</totfact>
</mgrwt>
</event>
<event>
12    3  0.1176505E-007  0.1295655E+04  0.7818608E-02  0.9033018E-01
          1   -1    0    0  501    0  0.00000000000E+00  0.00000000000E+00  0.18043603930E+04  0.18043603930E+04  0.00000000000E+00 0. -1.
         -2   -1    0    0    0  501 -0.00000000000E+00 -0.00000000000E+00 -0.13018111989E+04  0.13018111989E+04  0.00000000000E+00 0.  1.
        -24    2    1    2    0    0 -0.10182836036E+04  0.71341666571E+03  0.10417105497E+04  0.16239981974E+04  0.79651990925E+02 0.  0.
    5000000    2    1    2    0    0  0.10182836036E+04 -0.71341666571E+03 -0.53916135556E+03  0.14821733945E+04  0.60023176173E+03 0.  0.
        -24    2    4    4    0    0  0.57914930311E+03 -0.68388501648E+03 -0.50938467221E+03  0.10339277404E+04  0.80132372122E+02 0.  0.
         24    2    4    4    0    0  0.43913430047E+03 -0.29531649228E+02 -0.29776683353E+02  0.44824565408E+03  0.79539068231E+02 0.  0.
         11    1    5    5    0    0  0.50876465764E+03 -0.63508138291E+03 -0.45220013862E+03  0.93094296558E+03  0.00000000000E+00 0. -1.
        -12    1    5    5    0    0  0.70384645470E+02 -0.48803633565E+02 -0.57184533582E+02  0.10298477484E+03  0.00000000000E+00 0.  1.
         15    1    3    3    0    0 -0.39462366190E+03  0.22983398428E+03  0.38626150066E+03  0.59812423415E+03  0.17770000000E+01 0. -1.
        -16    1    3    3    0    0 -0.62365994168E+03  0.48358268142E+03  0.65544904902E+03  0.10258739633E+04  0.00000000000E+00 0.  1.
          2    1    6    6  502    0  0.28662645836E+02  0.16414775274E+02  0.63446966021E+01  0.33634019810E+02  0.00000000000E+00 0. -1.
         -1    1    6    6    0  502  0.41047165463E+03 -0.45946424502E+02 -0.36121379955E+02  0.41461163427E+03  0.00000000000E+00 0.  1.
<mgrwt>
<rscale>  0 0.12956549E+04</rscale>
<asrwt>0</asrwt>
<pdfrwt beam="1">  1        1 0.27759391E+00 0.12956549E+04</pdfrwt>
<pdfrwt beam="2">  1       -2 0.20027865E+00 0.12956549E+04</pdfrwt>
<totfact> 0.45278780E-01</totfact>
</mgrwt>
</event>
<event>
12    3  0.1176505E-007  0.5899523E+03  0.7818608E-02  0.9926474E-01
         -2   -1    0    0    0  501 -0.00000000000E+00  0.00000000000E+00  0.24253621304E+03  0.24253621304E+03  0.00000000000E+00 0.  1.
          1   -1    0    0  501    0  0.00000000000E+00 -0.00000000000E+00 -0.20894480887E+04  0.20894480887E+04  0.00000000000E+00 0. -1.
        -24    2    1    2    0    0  0.25260651108E+03  0.36461561803E+03 -0.13799673695E+04  0.14517019966E+04  0.79838259819E+02 0.  0.
    5000000    2    1    2    0    0 -0.25260651108E+03 -0.36461561803E+03 -0.46694450619E+03  0.88028230516E+03  0.60008763240E+03 0.  0.
        -24    2    4    4    0    0 -0.84674941105E+02 -0.49904425348E+03 -0.36480126736E+03  0.62917668504E+03  0.81045195639E+02 0.  0.
         24    2    4    4    0    0 -0.16793156997E+03  0.13442863545E+03 -0.10214323882E+03  0.25110562012E+03  0.79678861664E+02 0.  0.
         11    1    5    5    0    0 -0.52240308489E+02 -0.37865262908E+03 -0.31347521227E+03  0.49434155404E+03  0.00000000000E+00 0. -1.
        -12    1    5    5    0    0 -0.32434632616E+02 -0.12039162440E+03 -0.51326055087E+02  0.13483513099E+03  0.00000000000E+00 0.  1.
         15    1    3    3    0    0  0.54367288473E+02  0.51309622535E+02 -0.15941869530E+03  0.17608508614E+03  0.17770000000E+01 0. -1.
        -16    1    3    3    0    0  0.19823922260E+03  0.31330599550E+03 -0.12205486742E+04  0.12756169104E+04  0.00000000000E+00 0.  1.
          2    1    6    6  502    0 -0.57494613359E+02  0.93318473997E+02 -0.65552841163E+02  0.12771508579E+03  0.00000000000E+00 0. -1.
         -1    1    6    6    0  502 -0.11043695661E+03  0.41110161455E+02 -0.36590397662E+02  0.12339053433E+03  0.00000000000E+00 0.  1.
<mgrwt>
<rscale>  0 0.58995231E+03</rscale>
<asrwt>0</asrwt>
<pdfrwt beam="1">  1        1 0.32145354E+00 0.58995231E+03</pdfrwt>
<pdfrwt beam="2">  1       -2 0.37313265E-01 0.58995231E+03</pdfrwt>
<totfact> 0.16442647E+01</totfact>
</mgrwt>
</event>
<event>
12    3  0.1176505E-007  0.5622532E+03  0.7818608E-02  0.9986969E-01
         -2   -1    0    0    0  501 -0.00000000000E+00  0.00000000000E+00  0.21849001950E+03  0.21849001950E+03  0.00000000000E+00 0.  1.
          1   -1    0    0  501    0  0.00000000000E+00 -0.00000000000E+00 -0.19960515302E+04  0.19960515302E+04  0.00000000000E+00 0. -1.
        -24    2    1    2    0    0  0.50522061420E+03  0.10750294848E+01 -0.50001134325E+03  0.71544348230E+03  0.81234280214E+02 0.  0.
    5000000    2    1    2    0    0 -0.50522061420E+03 -0.10750294848E+01 -0.12775501674E+04  0.14990980674E+04  0.59992629603E+03 0.  0.
        -24    2    4    4    0    0 -0.20694070905E+03  0.15454730900E+03 -0.10461979368E+04  0.10805894884E+04  0.80213414073E+02 0.  0.
         24    2    4    4    0    0 -0.29827990515E+03 -0.15562233849E+03 -0.23135223063E+03  0.41850857894E+03  0.91849670563E+02 0.  0.
         13    1    5    5    0    0 -0.69373475450E+02  0.10158680503E+03 -0.48347031209E+03  0.49887483473E+03  0.00000000000E+00 0. -1.
        -14    1    5    5    0    0 -0.13756723360E+03  0.52960503975E+02 -0.56272762470E+03  0.58171465371E+03  0.00000000000E+00 0.  1.
         15    1    3    3    0    0  0.28214513570E+03  0.87676478578E+01 -0.22330337378E+03  0.35993097077E+03  0.17770000000E+01 0. -1.
        -16    1    3    3    0    0  0.22307547850E+03 -0.76926183730E+01 -0.27670796947E+03  0.35551251153E+03  0.00000000000E+00 0.  1.
          2    1    6    6  502    0 -0.19781637996E+03 -0.14946835458E+03 -0.17026989740E+03  0.30077225132E+03  0.00000000000E+00 0. -1.
         -1    1    6    6    0  502 -0.10046352519E+03 -0.61539839087E+01 -0.61082333228E+02  0.11773632763E+03  0.00000000000E+00 0.  1.
<mgrwt>
<rscale>  0 0.56225324E+03</rscale>
<asrwt>0</asrwt>
<pdfrwt beam="1">  1        1 0.30708484E+00 0.56225324E+03</pdfrwt>
<pdfrwt beam="2">  1       -2 0.33613850E-01 0.56225324E+03</pdfrwt>
<totfact> 0.23244858E+01</totfact>
</mgrwt>
</event>
<event>
12    3  0.1176505E-007  0.5554640E+03  0.7818608E-02  0.1000237E+00
          1   -1    0    0  501    0  0.00000000000E+00  0.00000000000E+00  0.18590912626E+04  0.18590912626E+04  0.00000000000E+00 0. -1.
         -2   -1    0    0    0  501 -0.00000000000E+00 -0.00000000000E+00 -0.33432583512E+03  0.33432583512E+03  0.00000000000E+00 0.  1.
        -24    2    1    2    0    0  0.13823260262E+03  0.48966100432E+03  0.12636350636E+04  0.13644652495E+04  0.78202886766E+02 0.  0.
    5000000    2    1    2    0    0 -0.13823260262E+03 -0.48966100432E+03  0.26113036381E+03  0.82895184817E+03  0.60007995143E+03 0.  0.
        -24    2    4    4    0    0  0.45155894137E+02  0.18098537965E+02  0.26775339926E+03  0.28331438096E+03  0.78794313181E+02 0.  0.
         24    2    4    4    0    0 -0.18338849676E+03 -0.50775954228E+03 -0.66230354549E+01  0.54563746721E+03  0.78900491160E+02 0.  0.
         13    1    5    5    0    0 -0.18159358699E+01  0.82227554733E+01  0.20056769637E+03  0.20074439509E+03  0.00000000000E+00 0. -1.
        -14    1    5    5    0    0  0.46971830007E+02  0.98757824916E+01  0.67185702888E+02  0.82569985870E+02  0.00000000000E+00 0.  1.
         15    1    3    3    0    0  0.11849651572E+03  0.28786029613E+03  0.79984789672E+03  0.85829178601E+03  0.17770000000E+01 0. -1.
        -16    1    3    3    0    0  0.19736086898E+02  0.20180070819E+03  0.46378716691E+03  0.50617346349E+03  0.00000000000E+00 0.  1.
          2    1    6    6  502    0 -0.89796495152E+02 -0.21212065570E+03 -0.39837745678E+02  0.23376404578E+03  0.00000000000E+00 0. -1.
         -1    1    6    6    0  502 -0.93592001607E+02 -0.29563888658E+03  0.33214710223E+02  0.31187342143E+03  0.00000000000E+00 0.  1.
<mgrwt>
<rscale>  0 0.55546403E+03</rscale>
<asrwt>0</asrwt>
<pdfrwt beam="1">  1        1 0.28601404E+00 0.55546403E+03</pdfrwt>
<pdfrwt beam="2">  1       -2 0.51434745E-01 0.55546403E+03</pdfrwt>
<totfact> 0.12479800E+01</totfact>
</mgrwt>
</event>
<event>
12    3  0.1176505E-007  0.1074764E+04  0.7818608E-02  0.9230144E-01
         -2   -1    0    0    0  501 -0.00000000000E+00  0.00000000000E+00  0.80816042542E+03  0.80816042542E+03  0.00000000000E+00 0.  1.
          1   -1    0    0  501    0  0.00000000000E+00 -0.00000000000E+00 -0.15326994415E+04  0.15326994415E+04  0.00000000000E+00 0. -1.
        -24    2    1    2    0    0  0.58438611890E+03 -0.80844244326E+03 -0.64759210898E+02  0.10028232821E+04  0.79840213621E+02 0.  0.
    5000000    2    1    2    0    0 -0.58438611890E+03  0.80844244326E+03 -0.65977980518E+03  0.13380365848E+04  0.59995515746E+03 0.  0.
        -24    2    4    4    0    0  0.86958148327E+02  0.24061364731E+03 -0.24298603663E+03  0.36171745600E+03  0.79628243379E+02 0.  0.
         24    2    4    4    0    0 -0.67134426722E+03  0.56782879595E+03 -0.41679376855E+03  0.97631912882E+03  0.79682677876E+02 0.  0.
         13    1    5    5    0    0  0.16281980638E+02  0.15962898942E+03 -0.14441186656E+03  0.21587335259E+03  0.00000000000E+00 0. -1.
        -14    1    5    5    0    0  0.70676167688E+02  0.80984657892E+02 -0.98574170075E+02  0.14584410341E+03  0.00000000000E+00 0.  1.
         15    1    3    3    0    0  0.21444000927E+03 -0.24314217453E+03 -0.41342184779E+02  0.32682559352E+03  0.17770000000E+01 0. -1.
        -16    1    3    3    0    0  0.36994610963E+03 -0.56530026873E+03 -0.23417026119E+02  0.67599768858E+03  0.00000000000E+00 0.  1.
          4    1    6    6  502    0 -0.12470780205E+03  0.14112110253E+03 -0.10922208288E+03  0.21770775104E+03  0.00000000000E+00 0. -1.
         -3    1    6    6    0  502 -0.54663646517E+03  0.42670769342E+03 -0.30757168567E+03  0.75861137778E+03  0.00000000000E+00 0.  1.
<mgrwt>
<rscale>  0 0.10747638E+04</rscale>
<asrwt>0</asrwt>
<pdfrwt beam="1">  1        1 0.23579991E+00 0.10747638E+04</pdfrwt>
<pdfrwt beam="2">  1       -2 0.12433237E+00 0.10747638E+04</pdfrwt>
<totfact> 0.26232837E+00</totfact>
</mgrwt>
</event>
<event>
12    3  0.1176505E-007  0.4316738E+03  0.7818608E-02  0.1033333E+00
         -2   -1    0    0    0  501 -0.00000000000E+00  0.00000000000E+00  0.57822055388E+03  0.57822055388E+03  0.00000000000E+00 0.  1.
          1   -1    0    0  501    0  0.00000000000E+00 -0.00000000000E+00 -0.35953557985E+03  0.35953557985E+03  0.00000000000E+00 0. -1.
        -24    2    1    2    0    0  0.22861170192E+03  0.86511117612E+02  0.11651201168E+03  0.28190577770E+03  0.78411318769E+02 0.  0.
    5000000    2    1    2    0    0 -0.22861170192E+03 -0.86511117612E+02  0.10217296235E+03  0.65585035603E+03  0.59996074167E+03 0.  0.
        -24    2    4    4    0    0 -0.17851776076E+03  0.22005881284E+03 -0.55236044783E+02  0.29946664525E+03  0.79591324641E+02 0.  0.
         24    2    4    4    0    0 -0.50093941163E+02 -0.30656993045E+03  0.15740900713E+03  0.35638371079E+03  0.75744495445E+02 0.  0.
         13    1    5    5    0    0 -0.25657856293E+02  0.31920559552E+00 -0.11969397927E+02  0.28314200827E+02  0.00000000000E+00 0. -1.
        -14    1    5    5    0    0 -0.15285990446E+03  0.21973960724E+03 -0.43266646856E+02  0.27115244442E+03  0.00000000000E+00 0.  1.
         15    1    3    3    0    0  0.22835801548E+02  0.34593162201E+02  0.35974844261E+02  0.54913639944E+02  0.17770000000E+01 0. -1.
        -16    1    3    3    0    0  0.20577590037E+03  0.51917955411E+02  0.80537167422E+02  0.22699213776E+03  0.00000000000E+00 0.  1.
          4    1    6    6  502    0 -0.50961778757E+02 -0.12867363467E+03  0.43215037085E+02  0.14498809118E+03  0.00000000000E+00 0. -1.
         -3    1    6    6    0  502  0.86783759458E+00 -0.17789629578E+03  0.11419397005E+03  0.21139561961E+03  0.00000000000E+00 0.  1.
<mgrwt>
<rscale>  0 0.43167384E+03</rscale>
<asrwt>0</asrwt>
<pdfrwt beam="1">  1        1 0.55313166E-01 0.43167384E+03</pdfrwt>
<pdfrwt beam="2">  1       -2 0.88957008E-01 0.43167384E+03</pdfrwt>
<totfact> 0.68105309E+01</totfact>
</mgrwt>
</event>
<event>
12    3  0.1176505E-007  0.1077743E+04  0.7818608E-02  0.9227161E-01
         -2   -1    0    0    0  501 -0.00000000000E+00  0.00000000000E+00  0.92373778076E+03  0.92373778076E+03  0.00000000000E+00 0.  1.
          1   -1    0    0  501    0  0.00000000000E+00 -0.00000000000E+00 -0.14832183113E+04  0.14832183113E+04  0.00000000000E+00 0. -1.
        -24    2    1    2    0    0 -0.43519018543E+02 -0.10440534760E+04  0.66372602963E+02  0.10491308831E+04  0.65793021927E+02 0.  0.
    5000000    2    1    2    0    0  0.43519018543E+02  0.10440534760E+04 -0.62585313348E+03  0.13578252089E+04  0.60004632106E+03 0.  0.
        -24    2    4    4    0    0  0.11107738271E+03  0.97963288886E+03 -0.33823813190E+03  0.10453659856E+04  0.79788646830E+02 0.  0.
         24    2    4    4    0    0 -0.67558364171E+02  0.64420587176E+02 -0.28761500158E+03  0.31245922326E+03  0.78703446213E+02 0.  0.
         13    1    5    5    0    0 -0.53751099907E+01  0.62127609502E+02 -0.37818975839E+02  0.72931519958E+02  0.00000000000E+00 0. -1.
        -14    1    5    5    0    0  0.11645249271E+03  0.91750527936E+03 -0.30041915606E+03  0.97243446568E+03  0.00000000000E+00 0.  1.
         15    1    3    3    0    0 -0.49456695983E+02 -0.49362034752E+03  0.15782671425E+02  0.49634591034E+03  0.17770000000E+01 0. -1.
        -16    1    3    3    0    0  0.59376774398E+01 -0.55043312851E+03  0.50589931538E+02  0.55278497280E+03  0.00000000000E+00 0.  1.
          4    1    6    6  502    0 -0.32085852513E+02  0.77511158394E+02 -0.18621010371E+03  0.20423438577E+03  0.00000000000E+00 0. -1.
         -3    1    6    6    0  502 -0.35472511658E+02 -0.13090571218E+02 -0.10140489787E+03  0.10822483749E+03  0.00000000000E+00 0.  1.
<mgrwt>
<rscale>  0 0.10777432E+04</rscale>
<asrwt>0</asrwt>
<pdfrwt beam="1">  1        1 0.22818743E+00 0.10777432E+04</pdfrwt>
<pdfrwt beam="2">  1       -2 0.14211351E+00 0.10777432E+04</pdfrwt>
<totfact> 0.20140030E+00</totfact>
</mgrwt>
</event>
<event>
12    3  0.1176505E-007  0.2213861E+04  0.7818608E-02  0.8512681E-01
         -2   -1    0    0    0  501 -0.00000000000E+00  0.00000000000E+00  0.16428882686E+04  0.16428882686E+04  0.00000000000E+00 0.  1.
          1   -1    0    0  501    0  0.00000000000E+00 -0.00000000000E+00 -0.31084630980E+04  0.31084630980E+04  0.00000000000E+00 0. -1.
        -24    2    1    2    0    0 -0.16856135863E+04  0.13760926906E+04 -0.11786457847E+04  0.24759956816E+04  0.80152816154E+02 0.  0.
    5000000    2    1    2    0    0  0.16856135863E+04 -0.13760926906E+04 -0.28692904477E+03  0.22753556850E+04  0.59999246764E+03 0.  0.
        -24    2    4    4    0    0  0.38307945166E+03 -0.65322925792E+03 -0.15955114355E+03  0.77814206582E+03  0.81179908285E+02 0.  0.
         24    2    4    4    0    0  0.13025341346E+04 -0.72286343273E+03 -0.12737790121E+03  0.14972136192E+04  0.79352237808E+02 0.  0.
         11    1    5    5    0    0  0.20008986008E+03 -0.39216207272E+03 -0.61117643855E+02  0.44447993181E+03  0.00000000000E+00 0. -1.
        -12    1    5    5    0    0  0.18298959158E+03 -0.26106718519E+03 -0.98433499698E+02  0.33366213401E+03  0.00000000000E+00 0.  1.
         15    1    3    3    0    0 -0.61153570805E+03  0.45762594569E+03 -0.43694551622E+03  0.87995566380E+03  0.17770000000E+01 0. -1.
        -16    1    3    3    0    0 -0.10740778782E+04  0.91846674495E+03 -0.74170026846E+03  0.15960400178E+04  0.00000000000E+00 0.  1.
          4    1    6    6  502    0  0.10719520782E+04 -0.56087528007E+03 -0.94417026734E+02  0.12134978008E+04  0.00000000000E+00 0. -1.
         -3    1    6    6    0  502  0.23058205642E+03 -0.16198815266E+03 -0.32960874478E+02  0.28371581837E+03  0.00000000000E+00 0.  1.
<mgrwt>
<rscale>  0 0.22138613E+04</rscale>
<asrwt>0</asrwt>
<pdfrwt beam="1">  1        1 0.47822509E+00 0.22138613E+04</pdfrwt>
<pdfrwt beam="2">  1       -2 0.25275204E+00 0.22138613E+04</pdfrwt>
<totfact> 0.23425995E-02</totfact>
</mgrwt>
</event>
<event>
12    3  0.1176505E-007  0.7517889E+03  0.7818608E-02  0.9632548E-01
         -2   -1    0    0    0  501 -0.00000000000E+00  0.00000000000E+00  0.79793273950E+03  0.79793273950E+03  0.00000000000E+00 0.  1.
          1   -1    0    0  501    0  0.00000000000E+00 -0.00000000000E+00 -0.92518670804E+03  0.92518670804E+03  0.00000000000E+00 0. -1.
        -24    2    1    2    0    0 -0.58289674130E+03 -0.37965295329E+03  0.23030589409E+03  0.73732844817E+03  0.81899082247E+02 0.  0.
    5000000    2    1    2    0    0  0.58289674130E+03  0.37965295329E+03 -0.35755986264E+03  0.98579099936E+03  0.60002488540E+03 0.  0.
        -24    2    4    4    0    0  0.17990042925E+03  0.34764743336E+03  0.57287252417E+02  0.40332462332E+03  0.78524009824E+02 0.  0.
         24    2    4    4    0    0  0.40299631205E+03  0.32005519926E+02 -0.41484711505E+03  0.58246637604E+03  0.61143842909E+02 0.  0.
         13    1    5    5    0    0  0.16064834203E+03  0.24478018245E+03  0.25240765368E+02  0.29387467355E+03  0.00000000000E+00 0. -1.
        -14    1    5    5    0    0  0.19252087220E+02  0.10286725091E+03  0.32046487050E+02  0.10944994977E+03  0.00000000000E+00 0.  1.
         15    1    3    3    0    0 -0.25222557653E+03 -0.21262250391E+03  0.10285608542E+03  0.34555549867E+03  0.17770000000E+01 0. -1.
        -16    1    3    3    0    0 -0.33067116477E+03 -0.16703044937E+03  0.12744980867E+03  0.39177294950E+03  0.00000000000E+00 0.  1.
          4    1    6    6  502    0  0.24474236923E+03  0.36576635102E+02 -0.28714132540E+03  0.37906044147E+03  0.00000000000E+00 0. -1.
         -3    1    6    6    0  502  0.15825394281E+03 -0.45711151760E+01 -0.12770578965E+03  0.20340593458E+03  0.00000000000E+00 0.  1.
<mgrwt>
<rscale>  0 0.75178892E+03</rscale>
<asrwt>0</asrwt>
<pdfrwt beam="1">  1        1 0.14233642E+00 0.75178892E+03</pdfrwt>
<pdfrwt beam="2">  1       -2 0.12275888E+00 0.75178892E+03</pdfrwt>
<totfact> 0.78100000E+00</totfact>
</mgrwt>
</event>
<event>
12    3  0.1176505E-007  0.9970255E+03  0.7818608E-02  0.9311813E-01
          1   -1    0    0  501    0  0.00000000000E+00  0.00000000000E+00  0.12294736935E+04  0.12294736935E+04  0.00000000000E+00 0. -1.
         -2   -1    0    0    0  501 -0.00000000000E+00 -0.00000000000E+00 -0.11467214020E+04  0.11467214020E+04  0.00000000000E+00 0.  1.
        -24    2    1    2    0    0 -0.58075014634E+03 -0.78515471531E+03  0.56684676050E+03  0.11320596174E+04  0.80654002193E+02 0.  0.
    5000000    2    1    2    0    0  0.58075014634E+03  0.78515471531E+03 -0.48409446904E+03  0.12441354781E+04  0.59982245167E+03 0.  0.
        -24    2    4    4    0    0  0.58312603249E+03  0.62346587135E+03 -0.58451816279E+03  0.10375571179E+04  0.78215265079E+02 0.  0.
         24    2    4    4    0    0 -0.23758861549E+01  0.16168884396E+03  0.10042369376E+03  0.20657836025E+03  0.80254430161E+02 0.  0.
         11    1    5    5    0    0  0.16908438212E+03  0.18871035244E+03 -0.13165958685E+03  0.28554399347E+03  0.00000000000E+00 0. -1.
        -12    1    5    5    0    0  0.41404165038E+03  0.43475551891E+03 -0.45285857594E+03  0.75201312440E+03  0.00000000000E+00 0.  1.
         15    1    3    3    0    0 -0.27727411705E+03 -0.34294122318E+03  0.21510354592E+03  0.49067536288E+03  0.17770000000E+01 0. -1.
        -16    1    3    3    0    0 -0.30347602929E+03 -0.44221349212E+03  0.35174321458E+03  0.64138425454E+03  0.00000000000E+00 0.  1.
          2    1    6    6  502    0 -0.11139410929E+02  0.74109873497E+02  0.26010006347E+01  0.74987499158E+02  0.00000000000E+00 0. -1.
         -1    1    6    6    0  502  0.87635247736E+01  0.87578970463E+02  0.97822693124E+02  0.13159086110E+03  0.00000000000E+00 0.  1.
<mgrwt>
<rscale>  0 0.99702548E+03</rscale>
<asrwt>0</asrwt>
<pdfrwt beam="1">  1        1 0.18914980E+00 0.99702548E+03</pdfrwt>
<pdfrwt beam="2">  1       -2 0.17641868E+00 0.99702548E+03</pdfrwt>
<totfact> 0.17073126E+00</totfact>
</mgrwt>
</event>
<event>
12    3  0.1176505E-007  0.6187007E+03  0.7818608E-02  0.9867350E-01
          1   -1    0    0  501    0  0.00000000000E+00  0.00000000000E+00  0.21718532161E+04  0.21718532161E+04  0.00000000000E+00 0. -1.
         -2   -1    0    0    0  501 -0.00000000000E+00 -0.00000000000E+00 -0.25661122979E+03  0.25661122979E+03  0.00000000000E+00 0.  1.
        -24    2    1    2    0    0 -0.13623900575E+02  0.61543878405E+03  0.65252340553E+03  0.90089344965E+03  0.82895749458E+02 0.  0.
    5000000    2    1    2    0    0  0.13623900575E+02 -0.61543878405E+03  0.12627185808E+04  0.15275709962E+04  0.60005368652E+03 0.  0.
        -24    2    4    4    0    0  0.14487437353E+02 -0.82369664688E+02  0.82369949308E+03  0.83213019838E+03  0.83457561970E+02 0.  0.
         24    2    4    4    0    0 -0.86353677823E+00 -0.53306911937E+03  0.43901908768E+03  0.69544079784E+03  0.82077477018E+02 0.  0.
         11    1    5    5    0    0  0.25369194877E+01 -0.57702049599E+02  0.20940089066E+03  0.21722038463E+03  0.00000000000E+00 0. -1.
        -12    1    5    5    0    0  0.11950517866E+02 -0.24667615089E+02  0.61429860242E+03  0.61490981375E+03  0.00000000000E+00 0.  1.
         15    1    3    3    0    0 -0.12743394481E+02  0.14154220079E+03  0.10462689749E+03  0.17648380695E+03  0.17770000000E+01 0. -1.
        -16    1    3    3    0    0 -0.88050609446E+00  0.47389658326E+03  0.54789650804E+03  0.72440964270E+03  0.00000000000E+00 0.  1.
          2    1    6    6  502    0  0.26582789514E+02 -0.35984315834E+03  0.32972889438E+03  0.48878920517E+03  0.00000000000E+00 0. -1.
         -1    1    6    6    0  502 -0.27446326292E+02 -0.17322596103E+03  0.10929019330E+03  0.20665159267E+03  0.00000000000E+00 0.  1.
<mgrwt>
<rscale>  0 0.61870074E+03</rscale>
<asrwt>0</asrwt>
<pdfrwt beam="1">  1        1 0.33413125E+00 0.61870074E+03</pdfrwt>
<pdfrwt beam="2">  1       -2 0.39478652E-01 0.61870074E+03</pdfrwt>
<totfact> 0.12929771E+01</totfact>
</mgrwt>
</event>
<event>
12    3  0.1176505E-007  0.6779674E+03  0.7818608E-02  0.9755671E-01
          1   -1    0    0  501    0  0.00000000000E+00  0.00000000000E+00  0.26988052729E+04  0.26988052729E+04  0.00000000000E+00 0. -1.
         -2   -1    0    0    0  501 -0.00000000000E+00 -0.00000000000E+00 -0.22266799539E+03  0.22266799539E+03  0.00000000000E+00 0.  1.
        -24    2    1    2    0    0 -0.33677384512E+03  0.49477285201E+03  0.15633076726E+04  0.16758877861E+04  0.80325553685E+02 0.  0.
    5000000    2    1    2    0    0  0.33677384512E+03 -0.49477285201E+03  0.91282960493E+03  0.12455854822E+04  0.60000708994E+03 0.  0.
        -24    2    4    4    0    0  0.43197478459E+03 -0.41603125181E+03  0.91637389967E+03  0.10981597085E+04  0.80804729473E+02 0.  0.
         24    2    4    4    0    0 -0.95200939473E+02 -0.78741600197E+02 -0.35442947400E+01  0.14742577372E+03  0.80363786962E+02 0.  0.
         11    1    5    5    0    0  0.29382447679E+03 -0.22956146673E+03  0.57904804736E+03  0.68871469516E+03  0.00000000000E+00 0. -1.
        -12    1    5    5    0    0  0.13815030780E+03 -0.18646978508E+03  0.33732585231E+03  0.40944501332E+03  0.00000000000E+00 0.  1.
         15    1    3    3    0    0 -0.82877421931E+02  0.18858792243E+03  0.54905566453E+03  0.58642932399E+03  0.17770000000E+01 0. -1.
        -16    1    3    3    0    0 -0.25389642319E+03  0.30618492957E+03  0.10142520080E+04  0.10894584621E+04  0.00000000000E+00 0.  1.
          2    1    6    6  502    0 -0.36082638001E+02 -0.80364089693E+02 -0.53776670150E+01  0.88256801323E+02  0.00000000000E+00 0. -1.
         -3    1    6    6    0  502 -0.59118301472E+02  0.16224894958E+01  0.18333722750E+01  0.59168972401E+02  0.00000000000E+00 0.  1.
<mgrwt>
<rscale>  0 0.67796742E+03</rscale>
<asrwt>0</asrwt>
<pdfrwt beam="1">  1        1 0.41520079E+00 0.67796742E+03</pdfrwt>
<pdfrwt beam="2">  1       -2 0.34256617E-01 0.67796742E+03</pdfrwt>
<totfact> 0.73732087E+00</totfact>
</mgrwt>
</event>
<event>
12    3  0.1176505E-007  0.9177665E+03  0.7818608E-02  0.9403641E-01
          1   -1    0    0  501    0  0.00000000000E+00  0.00000000000E+00  0.17067131661E+04  0.17067131661E+04  0.00000000000E+00 0. -1.
         -2   -1    0    0    0  501 -0.00000000000E+00 -0.00000000000E+00 -0.53548423107E+03  0.53548423107E+03  0.00000000000E+00 0.  1.
        -24    2    1    2    0    0 -0.60495055114E+03 -0.58572933334E+03  0.32879555228E+03  0.90847896660E+03  0.90462678914E+02 0.  0.
    5000000    2    1    2    0    0  0.60495055114E+03  0.58572933334E+03  0.84243338271E+03  0.13337184305E+04  0.60005568608E+03 0.  0.
        -24    2    4    4    0    0  0.66324407710E+03  0.38928320317E+03  0.79498798269E+03  0.11091284575E+04  0.82011733855E+02 0.  0.
         24    2    4    4    0    0 -0.58293525962E+02  0.19644613018E+03  0.47445400021E+02  0.22458997306E+03  0.78742445907E+02 0.  0.
         13    1    5    5    0    0  0.42661556857E+03  0.20425311305E+03  0.48101119048E+03  0.67460502734E+03  0.00000000000E+00 0. -1.
        -14    1    5    5    0    0  0.23662850853E+03  0.18503009012E+03  0.31397679221E+03  0.43452343014E+03  0.00000000000E+00 0.  1.
         15    1    3    3    0    0 -0.17553248213E+03 -0.20493983502E+03  0.69252456596E+02  0.27858759616E+03  0.17770000000E+01 0. -1.
        -16    1    3    3    0    0 -0.42941806902E+03 -0.38078949832E+03  0.25954309569E+03  0.62989137044E+03  0.00000000000E+00 0.  1.
          2    1    6    6  502    0 -0.12399025499E+02  0.15807830890E+03  0.24140370772E+02  0.16039091333E+03  0.00000000000E+00 0. -1.
         -1    1    6    6    0  502 -0.45894500463E+02  0.38367821274E+02  0.23305029249E+02  0.64199059731E+02  0.00000000000E+00 0.  1.
<mgrwt>
<rscale>  0 0.91776649E+03</rscale>
<asrwt>0</asrwt>
<pdfrwt beam="1">  1        1 0.26257125E+00 0.91776649E+03</pdfrwt>
<pdfrwt beam="2">  1       -2 0.82382190E-01 0.91776649E+03</pdfrwt>
<totfact> 0.54277907E+00</totfact>
</mgrwt>
</event>
<event>
12    3  0.1176505E-007  0.5146556E+03  0.7818608E-02  0.1010023E+00
         -2   -1    0    0    0  501 -0.00000000000E+00  0.00000000000E+00  0.32188907198E+03  0.32188907198E+03  0.00000000000E+00 0.  1.
          1   -1    0    0  501    0  0.00000000000E+00 -0.00000000000E+00 -0.99173852551E+03  0.99173852551E+03  0.00000000000E+00 0. -1.
        -24    2    1    2    0    0 -0.11121308303E+02 -0.38840917008E+03 -0.35625514270E+03  0.53317611599E+03  0.79835312150E+02 0.  0.
    5000000    2    1    2    0    0  0.11121308303E+02  0.38840917008E+03 -0.31359431083E+03  0.78045148149E+03  0.59981476831E+03 0.  0.
        -24    2    4    4    0    0 -0.22773430616E+03  0.88167811251E+02 -0.29302649206E+03  0.38978968321E+03  0.80218420209E+02 0.  0.
         24    2    4    4    0    0  0.23885561447E+03  0.30024135883E+03 -0.20567818765E+02  0.39066179829E+03  0.70687533268E+02 0.  0.
         13    1    5    5    0    0 -0.90471925323E+02  0.56935183241E+02 -0.17961455281E+03  0.20901715706E+03  0.00000000000E+00 0. -1.
        -14    1    5    5    0    0 -0.13726238084E+03  0.31232628010E+02 -0.11341193925E+03  0.18077252615E+03  0.00000000000E+00 0.  1.
         15    1    3    3    0    0 -0.42766314911E+02 -0.22266359397E+03 -0.18355085412E+03  0.29172265518E+03  0.17770000000E+01 0. -1.
        -16    1    3    3    0    0  0.31645006608E+02 -0.16574557611E+03 -0.17270428858E+03  0.24145346081E+03  0.00000000000E+00 0.  1.
          2    1    6    6  502    0  0.20650623958E+03  0.23168552322E+03 -0.38574720360E+02  0.31274753030E+03  0.00000000000E+00 0. -1.
         -1    1    6    6    0  502  0.32349374881E+02  0.68555835607E+02  0.18006901595E+02  0.77914267988E+02  0.00000000000E+00 0.  1.
<mgrwt>
<rscale>  0 0.51465561E+03</rscale>
<asrwt>0</asrwt>
<pdfrwt beam="1">  1        1 0.15257516E+00 0.51465561E+03</pdfrwt>
<pdfrwt beam="2">  1       -2 0.49521396E-01 0.51465561E+03</pdfrwt>
<totfact> 0.54358223E+01</totfact>
</mgrwt>
</event>
<event>
12    3  0.1176505E-007  0.4020288E+03  0.7818608E-02  0.1043079E+00
          1   -1    0    0  501    0  0.00000000000E+00  0.00000000000E+00  0.95867207388E+03  0.95867207388E+03  0.00000000000E+00 0. -1.
         -2   -1    0    0    0  501 -0.00000000000E+00 -0.00000000000E+00 -0.28117194844E+03  0.28117194844E+03  0.00000000000E+00 0.  1.
        -24    2    1    2    0    0  0.25596668048E+03 -0.17920824747E+03  0.68766934649E+02  0.32977664047E+03  0.79932495423E+02 0.  0.
    5000000    2    1    2    0    0 -0.25596668048E+03  0.17920824747E+03  0.60873319079E+03  0.91006738186E+03  0.60002666980E+03 0.  0.
        -24    2    4    4    0    0 -0.11649909038E+03  0.27476161934E+03  0.39976271321E+02  0.31163885963E+03  0.80341091861E+02 0.  0.
         24    2    4    4    0    0 -0.13946759010E+03 -0.95553371874E+02  0.56875691947E+03  0.59842852222E+03  0.77785649065E+02 0.  0.
         11    1    5    5    0    0 -0.84401398738E+02  0.23699454150E+03  0.59251689662E+02  0.25845845225E+03  0.00000000000E+00 0. -1.
        -12    1    5    5    0    0 -0.32097691640E+02  0.37767077837E+02 -0.19275418341E+02  0.53180407381E+02  0.00000000000E+00 0.  1.
         15    1    3    3    0    0  0.12435949747E+03 -0.11898465357E+03  0.65712037558E+01  0.17224683116E+03  0.17770000000E+01 0. -1.
        -16    1    3    3    0    0  0.13160718301E+03 -0.60223593899E+02  0.62195730893E+02  0.15752980932E+03  0.00000000000E+00 0.  1.
          2    1    6    6  502    0 -0.44279687648E+02  0.84487062064E+01  0.13305087064E+03  0.14047991157E+03  0.00000000000E+00 0. -1.
         -1    1    6    6    0  502 -0.95187902451E+02 -0.10400207808E+03  0.43570604883E+03  0.45794861066E+03  0.00000000000E+00 0.  1.
<mgrwt>
<rscale>  0 0.40202879E+03</rscale>
<asrwt>0</asrwt>
<pdfrwt beam="1">  1        1 0.14748801E+00 0.40202879E+03</pdfrwt>
<pdfrwt beam="2">  1       -2 0.43257223E-01 0.40202879E+03</pdfrwt>
<totfact> 0.76596046E+01</totfact>
</mgrwt>
</event>
<event>
12    3  0.1176505E-007  0.4965494E+03  0.7818608E-02  0.1014684E+00
          1   -1    0    0  501    0  0.00000000000E+00  0.00000000000E+00  0.15120597954E+04  0.15120597954E+04  0.00000000000E+00 0. -1.
         -2   -1    0    0    0  501 -0.00000000000E+00 -0.00000000000E+00 -0.29274387895E+03  0.29274387895E+03  0.00000000000E+00 0.  1.
        -24    2    1    2    0    0  0.32430767709E+03 -0.53305380767E+02  0.10455775720E+04  0.10990033243E+04  0.80987126481E+02 0.  0.
    5000000    2    1    2    0    0 -0.32430767709E+03  0.53305380767E+02  0.17373834442E+03  0.70580035004E+03  0.59996015598E+03 0.  0.
        -24    2    4    4    0    0  0.62019006999E+02  0.22281139171E+03  0.67651657667E+01  0.24485050320E+03  0.80091996737E+02 0.  0.
         24    2    4    4    0    0 -0.38632668409E+03 -0.16950601095E+03  0.16697317866E+03  0.46094984685E+03  0.81327266839E+02 0.  0.
         11    1    5    5    0    0  0.32081608374E+01  0.59994590602E+02 -0.31088915246E+02  0.67647349162E+02  0.00000000000E+00 0. -1.
        -12    1    5    5    0    0  0.58810846162E+02  0.16281680111E+03  0.37854081013E+02  0.17720315403E+03  0.00000000000E+00 0.  1.
         15    1    3    3    0    0  0.13074783677E+03 -0.50242174737E+02  0.53263225188E+03  0.55074453825E+03  0.17770000000E+01 0. -1.
        -16    1    3    3    0    0  0.19355984032E+03 -0.30632060300E+01  0.51294532010E+03  0.54825878600E+03  0.00000000000E+00 0.  1.
          2    1    6    6  502    0 -0.63754788029E+02 -0.54201854326E+02  0.10474691437E+02  0.84334056997E+02  0.00000000000E+00 0. -1.
         -1    1    6    6    0  502 -0.32257189606E+03 -0.11530415662E+03  0.15649848722E+03  0.37661578985E+03  0.00000000000E+00 0.  1.
<mgrwt>
<rscale>  0 0.49654936E+03</rscale>
<asrwt>0</asrwt>
<pdfrwt beam="1">  1        1 0.23262458E+00 0.49654936E+03</pdfrwt>
<pdfrwt beam="2">  1       -2 0.45037521E-01 0.49654936E+03</pdfrwt>
<totfact> 0.28093386E+01</totfact>
</mgrwt>
</event>
<event>
12    3  0.1176505E-007  0.5829022E+03  0.7818608E-02  0.9941528E-01
          1   -1    0    0  501    0  0.00000000000E+00  0.00000000000E+00  0.98857258150E+03  0.98857258150E+03  0.00000000000E+00 0. -1.
         -2   -1    0    0    0  501 -0.00000000000E+00 -0.00000000000E+00 -0.39878128294E+03  0.39878128294E+03  0.00000000000E+00 0.  1.
        -24    2    1    2    0    0 -0.16909719688E+03 -0.44740911934E+03  0.17354874815E+03  0.51439751351E+03  0.75609866125E+02 0.  0.
    5000000    2    1    2    0    0  0.16909719688E+03  0.44740911934E+03  0.41624255041E+03  0.87295635094E+03  0.60002178944E+03 0.  0.
        -24    2    4    4    0    0  0.19530844778E+03  0.54387031990E+03  0.19241750651E+03  0.61423475231E+03  0.79495405475E+02 0.  0.
         24    2    4    4    0    0 -0.26211250898E+02 -0.96461200559E+02  0.22382504389E+03  0.25872159863E+03  0.82749153678E+02 0.  0.
         11    1    5    5    0    0  0.24275605704E+02  0.28123661656E+02  0.28051911579E+02  0.46552713352E+02  0.00000000000E+00 0. -1.
        -12    1    5    5    0    0  0.17103284208E+03  0.51574665824E+03  0.16436559494E+03  0.56768203896E+03  0.00000000000E+00 0.  1.
         15    1    3    3    0    0 -0.10556994483E+03 -0.17424811319E+03  0.76488853580E+02  0.21762610288E+03  0.17770000000E+01 0. -1.
        -16    1    3    3    0    0 -0.63527252051E+02 -0.27316100615E+03  0.97059894575E+02  0.29677141063E+03  0.00000000000E+00 0.  1.
          4    1    6    6  502    0  0.17041449334E+01 -0.12461596957E+02  0.12665803842E+03  0.12728100488E+03  0.00000000000E+00 0. -1.
         -3    1    6    6    0  502 -0.27915395831E+02 -0.83999603602E+02  0.97167005475E+02  0.13144059374E+03  0.00000000000E+00 0.  1.
<mgrwt>
<rscale>  0 0.58290218E+03</rscale>
<asrwt>0</asrwt>
<pdfrwt beam="1">  1        1 0.15208809E+00 0.58290218E+03</pdfrwt>
<pdfrwt beam="2">  1       -2 0.61350967E-01 0.58290218E+03</pdfrwt>
<totfact> 0.34818453E+01</totfact>
</mgrwt>
</event>
<event>
12    3  0.1176505E-007  0.7840529E+03  0.7818608E-02  0.9583391E-01
         -2   -1    0    0    0  501 -0.00000000000E+00  0.00000000000E+00  0.38221020155E+03  0.38221020155E+03  0.00000000000E+00 0.  1.
          1   -1    0    0  501    0  0.00000000000E+00 -0.00000000000E+00 -0.18110217298E+04  0.18110217298E+04  0.00000000000E+00 0. -1.
        -24    2    1    2    0    0 -0.39226345313E+03  0.54155545795E+03 -0.97988203957E+03  0.11889737675E+04  0.79604507619E+02 0.  0.
    5000000    2    1    2    0    0  0.39226345313E+03 -0.54155545795E+03 -0.44892948869E+03  0.10042581639E+04  0.59986985519E+03 0.  0.
        -24    2    4    4    0    0  0.52731759287E+03 -0.50800431488E+03 -0.34703420495E+03  0.81415743602E+03  0.79292897161E+02 0.  0.
         24    2    4    4    0    0 -0.13505413974E+03 -0.33551143070E+02 -0.10189528374E+03  0.19010072784E+03  0.79939589784E+02 0.  0.
         13    1    5    5    0    0  0.30545579796E+02 -0.60374361377E+02 -0.27463515315E+02  0.73022877444E+02  0.00000000000E+00 0. -1.
        -14    1    5    5    0    0  0.49677201308E+03 -0.44762995350E+03 -0.31957068964E+03  0.74113455858E+03  0.00000000000E+00 0.  1.
         15    1    3    3    0    0 -0.17277116037E+03  0.29181602341E+03 -0.45132449446E+03  0.56453823821E+03  0.17770000000E+01 0. -1.
        -16    1    3    3    0    0 -0.21949229276E+03  0.24973943455E+03 -0.52855754510E+03  0.62443552929E+03  0.00000000000E+00 0.  1.
          2    1    6    6  502    0 -0.63368907233E+02 -0.56462184519E+02 -0.47694041451E+02  0.97356655009E+02  0.00000000000E+00 0. -1.
         -1    1    6    6    0  502 -0.71685232504E+02  0.22911041448E+02 -0.54201242290E+02  0.92744072830E+02  0.00000000000E+00 0.  1.
<mgrwt>
<rscale>  0 0.78405293E+03</rscale>
<asrwt>0</asrwt>
<pdfrwt beam="1">  1        1 0.27861873E+00 0.78405293E+03</pdfrwt>
<pdfrwt beam="2">  1       -2 0.58801568E-01 0.78405293E+03</pdfrwt>
<totfact> 0.98149505E+00</totfact>
</mgrwt>
</event>
<event>
12    3  0.1176505E-007  0.8497566E+03  0.7818608E-02  0.9490664E-01
         -2   -1    0    0    0  501 -0.00000000000E+00  0.00000000000E+00  0.51664657500E+03  0.51664657500E+03  0.00000000000E+00 0.  1.
          1   -1    0    0  501    0  0.00000000000E+00 -0.00000000000E+00 -0.19499101928E+04  0.19499101928E+04  0.00000000000E+00 0. -1.
        -24    2    1    2    0    0  0.36513571077E+02 -0.80570726756E+03 -0.13044945059E+03  0.82095680523E+03  0.80346593070E+02 0.  0.
    5000000    2    1    2    0    0 -0.36513571077E+02  0.80570726756E+03 -0.13028141672E+04  0.16455999625E+04  0.60014751576E+03 0.  0.
        -24    2    4    4    0    0  0.15653376856E+03  0.21901700541E+03 -0.79186433695E+03  0.84021327782E+03  0.80236866434E+02 0.  0.
         24    2    4    4    0    0 -0.19304733964E+03  0.58669026215E+03 -0.51094983022E+03  0.80538668472E+03  0.78136060063E+02 0.  0.
         13    1    5    5    0    0  0.13722417649E+03  0.19227546683E+03 -0.58761969384E+03  0.63332237790E+03  0.00000000000E+00 0. -1.
        -14    1    5    5    0    0  0.19309592068E+02  0.26741538580E+02 -0.20424464311E+03  0.20689089992E+03  0.00000000000E+00 0.  1.
         15    1    3    3    0    0 -0.17515968698E+02 -0.44603180534E+03 -0.58476913633E+02  0.45019316709E+03  0.17770000000E+01 0. -1.
        -16    1    3    3    0    0  0.54029539775E+02 -0.35967546222E+03 -0.71972536956E+02  0.37076363814E+03  0.00000000000E+00 0.  1.
          4    1    6    6  502    0 -0.83100978899E+02  0.34216816241E+03 -0.32438159398E+03  0.47875697653E+03  0.00000000000E+00 0. -1.
         -3    1    6    6    0  502 -0.10994636074E+03  0.24452209974E+03 -0.18656823624E+03  0.32662970819E+03  0.00000000000E+00 0.  1.
<mgrwt>
<rscale>  0 0.84975662E+03</rscale>
<asrwt>0</asrwt>
<pdfrwt beam="1">  1        1 0.29998618E+00 0.84975662E+03</pdfrwt>
<pdfrwt beam="2">  1       -2 0.79484089E-01 0.84975662E+03</pdfrwt>
<totfact> 0.40743615E+00</totfact>
</mgrwt>
</event>
<event>
12    3  0.1176505E-007  0.1221163E+04  0.7818608E-02  0.9094532E-01
         -2   -1    0    0    0  501 -0.00000000000E+00  0.00000000000E+00  0.69319282653E+03  0.69319282653E+03  0.00000000000E+00 0.  1.
          1   -1    0    0  501    0  0.00000000000E+00 -0.00000000000E+00 -0.22825743081E+04  0.22825743081E+04  0.00000000000E+00 0. -1.
        -24    2    1    2    0    0 -0.89778649930E+03 -0.75721493077E+03 -0.56510921857E+03  0.13058206897E+04  0.80151075658E+02 0.  0.
    5000000    2    1    2    0    0  0.89778649930E+03  0.75721493077E+03 -0.10242722630E+04  0.16699464450E+04  0.60016032074E+03 0.  0.
        -24    2    4    4    0    0  0.81544891335E+03  0.80291769416E+03 -0.10375476231E+04  0.15467215223E+04  0.78794945546E+02 0.  0.
         24    2    4    4    0    0  0.82337585957E+02 -0.45702763388E+02  0.13275360092E+02  0.12322492268E+03  0.78357678256E+02 0.  0.
         11    1    5    5    0    0  0.64354559040E+02  0.92906132492E+02 -0.11650552323E+03  0.16231634442E+03  0.00000000000E+00 0. -1.
        -12    1    5    5    0    0  0.75109435431E+03  0.71001156167E+03 -0.92104209988E+03  0.13844051779E+04  0.00000000000E+00 0.  1.
         15    1    3    3    0    0 -0.55984838694E+03 -0.50782744703E+03 -0.33306958029E+03  0.82598876225E+03  0.17770000000E+01 0. -1.
        -16    1    3    3    0    0 -0.33793811237E+03 -0.24938748374E+03 -0.23203963829E+03  0.47983192742E+03  0.00000000000E+00 0.  1.
          4    1    6    6  502    0  0.22106328490E+01 -0.39455675639E+02 -0.74772767559E+01  0.40218738238E+02  0.00000000000E+00 0. -1.
         -3    1    6    6    0  502  0.80126953109E+02 -0.62470877488E+01  0.20752636847E+02  0.83006184444E+02  0.00000000000E+00 0.  1.
<mgrwt>
<rscale>  0 0.12211630E+04</rscale>
<asrwt>0</asrwt>
<pdfrwt beam="1">  1        1 0.35116529E+00 0.12211630E+04</pdfrwt>
<pdfrwt beam="2">  1       -2 0.10664505E+00 0.12211630E+04</pdfrwt>
<totfact> 0.11666532E+00</totfact>
</mgrwt>
</event>
<event>
12    3  0.1176505E-007  0.3119978E+03  0.7818608E-02  0.1079392E+00
          1   -1    0    0  501    0  0.00000000000E+00  0.00000000000E+00  0.65155094284E+03  0.65155094284E+03  0.00000000000E+00 0. -1.
         -2   -1    0    0    0  501 -0.00000000000E+00 -0.00000000000E+00 -0.34913159705E+03  0.34913159705E+03  0.00000000000E+00 0.  1.
        -24    2    1    2    0    0  0.26384755270E+03  0.41228695124E+02  0.18771505471E+03  0.33393177321E+03  0.70414139384E+02 0.  0.
    5000000    2    1    2    0    0 -0.26384755270E+03 -0.41228695124E+02  0.11470429108E+03  0.66675076668E+03  0.60007014099E+03 0.  0.
        -24    2    4    4    0    0 -0.39871963755E+02 -0.62013209733E+02 -0.22407416943E+03  0.25238487300E+03  0.89741178046E+02 0.  0.
         24    2    4    4    0    0 -0.22397558895E+03  0.20784514609E+02  0.33877846051E+03  0.41436589368E+03  0.79568763015E+02 0.  0.
         11    1    5    5    0    0 -0.57204353306E+02 -0.10881808732E+02 -0.14848669778E+03  0.15949624201E+03  0.00000000000E+00 0. -1.
        -12    1    5    5    0    0  0.17332389551E+02 -0.51131401001E+02 -0.75587471652E+02  0.92888630987E+02  0.00000000000E+00 0.  1.
         15    1    3    3    0    0  0.18418097068E+03  0.58988228752E+02  0.14560510160E+03  0.24208726615E+03  0.17770000000E+01 0. -1.
        -16    1    3    3    0    0  0.79666582020E+02 -0.17759533628E+02  0.42109953114E+02  0.91844507058E+02  0.00000000000E+00 0.  1.
          2    1    6    6  502    0 -0.20159340207E+03 -0.62021936884E+01  0.26835389298E+03  0.33569655769E+03  0.00000000000E+00 0. -1.
         -1    1    6    6    0  502 -0.22382186881E+02  0.26986708298E+02  0.70424567528E+02  0.78669335995E+02  0.00000000000E+00 0.  1.
<mgrwt>
<rscale>  0 0.31199778E+03</rscale>
<asrwt>0</asrwt>
<pdfrwt beam="1">  1        1 0.10023861E+00 0.31199778E+03</pdfrwt>
<pdfrwt beam="2">  1       -2 0.53712553E-01 0.31199778E+03</pdfrwt>
<totfact> 0.91922822E+01</totfact>
</mgrwt>
</event>
<event>
12    3  0.1176505E-007  0.1160710E+04  0.7818608E-02  0.9147960E-01
         -2   -1    0    0    0  501 -0.00000000000E+00  0.00000000000E+00  0.10865939598E+04  0.10865939598E+04  0.00000000000E+00 0.  1.
          1   -1    0    0  501    0  0.00000000000E+00 -0.00000000000E+00 -0.34609161301E+04  0.34609161301E+04  0.00000000000E+00 0. -1.
        -24    2    1    2    0    0 -0.47794312372E+03 -0.97671990620E+03 -0.29745960749E+04  0.31681310433E+04  0.80131728441E+02 0.  0.
    5000000    2    1    2    0    0  0.47794312372E+03  0.97671990620E+03  0.60027390457E+03  0.13793790466E+04  0.59995532244E+03 0.  0.
        -24    2    4    4    0    0  0.37334814007E+03  0.17113263307E+03  0.27592441552E+03  0.50103194395E+03  0.78889251408E+02 0.  0.
         24    2    4    4    0    0  0.10459498365E+03  0.80558727314E+03  0.32434948905E+03  0.87834710262E+03  0.79875380361E+02 0.  0.
         13    1    5    5    0    0  0.10055369652E+03  0.86352268542E+02  0.87801043996E+02  0.15898673999E+03  0.00000000000E+00 0. -1.
        -14    1    5    5    0    0  0.27279444354E+03  0.84780364526E+02  0.18812337153E+03  0.34204520396E+03  0.00000000000E+00 0.  1.
         15    1    3    3    0    0 -0.35525548057E+03 -0.64291985537E+03 -0.19787491107E+04  0.21106879441E+04  0.17770000000E+01 0. -1.
        -16    1    3    3    0    0 -0.12268764315E+03 -0.33380005084E+03 -0.99584696423E+03  0.10574430991E+04  0.00000000000E+00 0.  1.
          2    1    6    6  502    0  0.37203654877E+02  0.41599443806E+03  0.20561889962E+03  0.46552617146E+03  0.00000000000E+00 0. -1.
         -1    1    6    6    0  502  0.67391328775E+02  0.38959283508E+03  0.11873058943E+03  0.41282093116E+03  0.00000000000E+00 0.  1.
<mgrwt>
<rscale>  0 0.11607095E+04</rscale>
<asrwt>0</asrwt>
<pdfrwt beam="1">  1        1 0.53244863E+00 0.11607095E+04</pdfrwt>
<pdfrwt beam="2">  1       -2 0.16716830E+00 0.11607095E+04</pdfrwt>
<totfact> 0.52557808E-02</totfact>
</mgrwt>
</event>
<event>
12    3  0.1176505E-007  0.4554679E+03  0.7818608E-02  0.1026104E+00
         -4   -1    0    0    0  501 -0.00000000000E+00  0.00000000000E+00  0.28432694425E+03  0.28432694425E+03  0.00000000000E+00 0.  1.
          1   -1    0    0  501    0  0.00000000000E+00 -0.00000000000E+00 -0.20272185864E+04  0.20272185864E+04  0.00000000000E+00 0. -1.
        -24    2    1    2    0    0 -0.35213163345E+03  0.78276373446E+02 -0.15384725603E+04  0.15821620138E+04  0.78834898496E+02 0.  0.
    5000000    2    1    2    0    0  0.35213163345E+03 -0.78276373446E+02 -0.20441908181E+03  0.72938351680E+03  0.60007439177E+03 0.  0.
        -24    2    4    4    0    0  0.42909777856E+03 -0.62866804106E+02  0.57316469544E+02  0.44473008751E+03  0.80140716399E+02 0.  0.
         24    2    4    4    0    0 -0.76966145118E+02 -0.15409569341E+02 -0.26173555135E+03  0.28465342929E+03  0.79754834619E+02 0.  0.
         13    1    5    5    0    0  0.49261974759E+02  0.36781252051E+00  0.32189678185E+02  0.58847708748E+02  0.00000000000E+00 0. -1.
        -14    1    5    5    0    0  0.37983580381E+03 -0.63234616626E+02  0.25126791359E+02  0.38588237876E+03  0.00000000000E+00 0.  1.
         15    1    3    3    0    0 -0.12475358069E+03  0.63453306249E+02 -0.51986778061E+03  0.53838224805E+03  0.17770000000E+01 0. -1.
        -16    1    3    3    0    0 -0.22737805276E+03  0.14823067197E+02 -0.10186047797E+04  0.10437797658E+04  0.00000000000E+00 0.  1.
          4    1    6    6  502    0 -0.77523899472E+02  0.14491972243E+02 -0.21657575337E+03  0.23048867477E+03  0.00000000000E+00 0. -1.
         -3    1    6    6    0  502  0.55775435374E+00 -0.29901541583E+02 -0.45159797987E+02  0.54164754529E+02  0.00000000000E+00 0.  1.
<mgrwt>
<rscale>  0 0.45546790E+03</rscale>
<asrwt>0</asrwt>
<pdfrwt beam="1">  1        1 0.31187978E+00 0.45546790E+03</pdfrwt>
<pdfrwt beam="2">  1       -4 0.43742607E-01 0.45546790E+03</pdfrwt>
<totfact> 0.75401892E+00</totfact>
</mgrwt>
</event>
<event>
12    3  0.1176505E-007  0.4209873E+03  0.7818608E-02  0.1036745E+00
          1   -1    0    0  501    0  0.00000000000E+00  0.00000000000E+00  0.10369324203E+04  0.10369324203E+04  0.00000000000E+00 0. -1.
         -2   -1    0    0    0  501 -0.00000000000E+00 -0.00000000000E+00 -0.75352461706E+03  0.75352461706E+03  0.00000000000E+00 0.  1.
        -24    2    1    2    0    0  0.28770420994E+03 -0.76277792237E+02  0.85557054105E+03  0.90967666255E+03  0.83178516801E+02 0.  0.
    5000000    2    1    2    0    0 -0.28770420994E+03  0.76277792237E+02 -0.57216273785E+03  0.88078037478E+03  0.59984319285E+03 0.  0.
        -24    2    4    4    0    0 -0.39673741546E+03  0.13179814741E+03 -0.17819040395E+03  0.46066818007E+03  0.75445500718E+02 0.  0.
         24    2    4    4    0    0  0.10903320553E+03 -0.55520355174E+02 -0.39397233389E+03  0.42011219471E+03  0.79431143273E+02 0.  0.
         13    1    5    5    0    0 -0.32570623115E+03  0.11039257805E+03 -0.11324725736E+03  0.36207183209E+03  0.00000000000E+00 0. -1.
        -14    1    5    5    0    0 -0.71031184317E+02  0.21405569364E+02 -0.64943146590E+02  0.98596347977E+02  0.00000000000E+00 0.  1.
         15    1    3    3    0    0  0.26444498004E+03 -0.55264214603E+02  0.68692067489E+03  0.73813850476E+03  0.17770000000E+01 0. -1.
        -16    1    3    3    0    0  0.23259229894E+02 -0.21013577634E+02  0.16864986616E+03  0.17153815779E+03  0.00000000000E+00 0.  1.
          4    1    6    6  502    0  0.72059062126E+02 -0.35573667190E+02 -0.13011347631E+03  0.15292975822E+03  0.00000000000E+00 0. -1.
         -3    1    6    6    0  502  0.36974143401E+02 -0.19946687984E+02 -0.26385885758E+03  0.26718243648E+03  0.00000000000E+00 0.  1.
<mgrwt>
<rscale>  0 0.42098733E+03</rscale>
<asrwt>0</asrwt>
<pdfrwt beam="1">  1        1 0.15952806E+00 0.42098733E+03</pdfrwt>
<pdfrwt beam="2">  1       -2 0.11592686E+00 0.42098733E+03</pdfrwt>
<totfact> 0.77770768E+00</totfact>
</mgrwt>
</event>
<event>
12    3  0.1176505E-007  0.8119560E+03  0.7818608E-02  0.9542871E-01
          1   -1    0    0  501    0  0.00000000000E+00  0.00000000000E+00  0.22405158151E+04  0.22405158151E+04  0.00000000000E+00 0. -1.
         -2   -1    0    0    0  501 -0.00000000000E+00 -0.00000000000E+00 -0.36370030102E+03  0.36370030102E+03  0.00000000000E+00 0.  1.
        -24    2    1    2    0    0  0.17293282415E+03 -0.76899229122E+03  0.10409735409E+04  0.13081401897E+04  0.79686494365E+02 0.  0.
    5000000    2    1    2    0    0 -0.17293282415E+03  0.76899229122E+03  0.83584197326E+03  0.12960759265E+04  0.59993841132E+03 0.  0.
        -24    2    4    4    0    0 -0.22691574521E+03  0.52191981358E+03  0.20189123393E+03  0.60922119464E+03  0.80618524076E+02 0.  0.
         24    2    4    4    0    0  0.53982921057E+02  0.24707247764E+03  0.63395073933E+03  0.68685473187E+03  0.76921504260E+02 0.  0.
         13    1    5    5    0    0 -0.19012475125E+03  0.40708776630E+03  0.19079565842E+03  0.48812995583E+03  0.00000000000E+00 0. -1.
        -14    1    5    5    0    0 -0.36790993962E+02  0.11483204728E+03  0.11095575510E+02  0.12109123881E+03  0.00000000000E+00 0.  1.
         15    1    3    3    0    0  0.12041345814E+03 -0.65712185188E+03  0.86002559429E+03  0.10890159364E+04  0.17770000000E+01 0. -1.
        -16    1    3    3    0    0  0.52519366017E+02 -0.11187043934E+03  0.18094794658E+03  0.21912425328E+03  0.00000000000E+00 0.  1.
          2    1    6    6  502    0 -0.11000234145E+02  0.11149078273E+03  0.31264995725E+03  0.33211623802E+03  0.00000000000E+00 0. -1.
         -1    1    6    6    0  502  0.64983155202E+02  0.13558169491E+03  0.32130078208E+03  0.35473849385E+03  0.00000000000E+00 0.  1.
<mgrwt>
<rscale>  0 0.81195603E+03</rscale>
<asrwt>0</asrwt>
<pdfrwt beam="1">  1        1 0.34469473E+00 0.81195603E+03</pdfrwt>
<pdfrwt beam="2">  1       -2 0.55953894E-01 0.81195603E+03</pdfrwt>
<totfact> 0.55891294E+00</totfact>
</mgrwt>
</event>
<event>
12    3  0.1176505E-007  0.4666970E+03  0.7818608E-02  0.1022857E+00
         -2   -1    0    0    0  501 -0.00000000000E+00  0.00000000000E+00  0.28955261137E+03  0.28955261137E+03  0.00000000000E+00 0.  1.
          1   -1    0    0  501    0  0.00000000000E+00 -0.00000000000E+00 -0.14897259538E+04  0.14897259538E+04  0.00000000000E+00 0. -1.
        -24    2    1    2    0    0 -0.22029173874E+03  0.38399234395E+03 -0.11892953167E+03  0.46585224030E+03  0.83039183049E+02 0.  0.
    5000000    2    1    2    0    0  0.22029173874E+03 -0.38399234395E+03 -0.10812438107E+04  0.13134263248E+04  0.60001830155E+03 0.  0.
        -24    2    4    4    0    0  0.23118983634E+03 -0.21786475626E+03 -0.14234078649E+03  0.35672369763E+03  0.77955785589E+02 0.  0.
         24    2    4    4    0    0 -0.10898097595E+02 -0.16612758769E+03 -0.93890302424E+03  0.95670262721E+03  0.77613684829E+02 0.  0.
         11    1    5    5    0    0  0.14820177740E+03 -0.15073850158E+03 -0.13261262746E+03  0.24954352655E+03  0.00000000000E+00 0. -1.
        -12    1    5    5    0    0  0.82988058935E+02 -0.67126254685E+02 -0.97281590245E+01  0.10718017108E+03  0.00000000000E+00 0.  1.
         15    1    3    3    0    0 -0.94503169480E+02  0.16604966336E+03 -0.94129372542E+02  0.21299492071E+03  0.17770000000E+01 0. -1.
        -16    1    3    3    0    0 -0.12578856926E+03  0.21794268058E+03 -0.24800159133E+02  0.25285731959E+03  0.00000000000E+00 0.  1.
          2    1    6    6  502    0  0.68291295315E+01 -0.14421045379E+03 -0.87538727998E+03  0.88721259118E+03  0.00000000000E+00 0. -1.
         -1    1    6    6    0  502 -0.17727227126E+02 -0.21917133892E+02 -0.63515744259E+02  0.69490036037E+02  0.00000000000E+00 0.  1.
<mgrwt>
<rscale>  0 0.46669699E+03</rscale>
<asrwt>0</asrwt>
<pdfrwt beam="1">  1        1 0.22918860E+00 0.46669699E+03</pdfrwt>
<pdfrwt beam="2">  1       -2 0.44546557E-01 0.46669699E+03</pdfrwt>
<totfact> 0.29886308E+01</totfact>
</mgrwt>
</event>
<event>
12    3  0.1176505E-007  0.1464775E+04  0.7818608E-02  0.8908221E-01
         -2   -1    0    0    0  501 -0.00000000000E+00  0.00000000000E+00  0.43009211569E+04  0.43009211569E+04  0.00000000000E+00 0.  1.
          1   -1    0    0  501    0  0.00000000000E+00 -0.00000000000E+00 -0.80857743561E+03  0.80857743561E+03  0.00000000000E+00 0. -1.
        -24    2    1    2    0    0 -0.13937524201E+04  0.40010019514E+03  0.20465893173E+03  0.14664819328E+04  0.77833194382E+02 0.  0.
    5000000    2    1    2    0    0  0.13937524201E+04 -0.40010019514E+03  0.32876847896E+04  0.36430166597E+04  0.60006094064E+03 0.  0.
        -24    2    4    4    0    0  0.30195998240E+03  0.87692023876E+01  0.28442406660E+03  0.42040030479E+03  0.67695175041E+02 0.  0.
         24    2    4    4    0    0  0.10917924377E+04 -0.40886939753E+03  0.30032607230E+04  0.32226163549E+04  0.80599562531E+02 0.  0.
         13    1    5    5    0    0  0.29361248867E+03 -0.45451351867E+01  0.26633157904E+03  0.39643594912E+03  0.00000000000E+00 0. -1.
        -14    1    5    5    0    0  0.83474937228E+01  0.13314337574E+02  0.18092487563E+02  0.23964355671E+02  0.00000000000E+00 0.  1.
         15    1    3    3    0    0 -0.93218737009E+03  0.30183707777E+03  0.12231164907E+03  0.98744225740E+03  0.17770000000E+01 0. -1.
        -16    1    3    3    0    0 -0.46156505005E+03  0.98263117368E+02  0.82347282661E+02  0.47903967542E+03  0.00000000000E+00 0.  1.
          2    1    6    6  502    0  0.69784501813E+03 -0.22110047918E+03  0.18539000877E+04  0.19931930730E+04  0.00000000000E+00 0. -1.
         -1    1    6    6    0  502  0.39394741961E+03 -0.18776891835E+03  0.11493606353E+04  0.12294232819E+04  0.00000000000E+00 0.  1.
<mgrwt>
<rscale>  0 0.14647751E+04</rscale>
<asrwt>0</asrwt>
<pdfrwt beam="1">  1        1 0.12439653E+00 0.14647751E+04</pdfrwt>
<pdfrwt beam="2">  1       -2 0.66168016E+00 0.14647751E+04</pdfrwt>
<totfact> 0.54485132E-03</totfact>
</mgrwt>
</event>
<event>
12    3  0.1176505E-007  0.2806882E+03  0.7818608E-02  0.1095314E+00
         -2   -1    0    0    0  501 -0.00000000000E+00  0.00000000000E+00  0.10969865497E+03  0.10969865497E+03  0.00000000000E+00 0.  1.
          1   -1    0    0  501    0  0.00000000000E+00 -0.00000000000E+00 -0.11909761646E+04  0.11909761646E+04  0.00000000000E+00 0. -1.
        -24    2    1    2    0    0  0.57056020150E+02  0.36166229805E+02 -0.74493922064E+02  0.12666107693E+03  0.77008430521E+02 0.  0.
    5000000    2    1    2    0    0 -0.57056020150E+02 -0.36166229805E+02 -0.10067835875E+04  0.11740137426E+04  0.60010973169E+03 0.  0.
        -24    2    4    4    0    0 -0.14641026955E+03 -0.20970821991E+03 -0.18352955444E+03  0.32410479144E+03  0.77118830101E+02 0.  0.
         24    2    4    4    0    0  0.89354249395E+02  0.17354199011E+03 -0.82325403308E+03  0.84990895115E+03  0.80604082010E+02 0.  0.
         11    1    5    5    0    0 -0.10442721347E+03 -0.16041931129E+03 -0.17396523061E+03  0.25865672194E+03  0.00000000000E+00 0. -1.
        -12    1    5    5    0    0 -0.41983056079E+02 -0.49288908624E+02 -0.95643238379E+01  0.65448069502E+02  0.00000000000E+00 0.  1.
         15    1    3    3    0    0  0.11701557867E+01  0.45695690102E+02 -0.32991277204E+02  0.56400775341E+02  0.17770000000E+01 0. -1.
        -16    1    3    3    0    0  0.55885864364E+02 -0.95294602979E+01 -0.41502644860E+02  0.70260301591E+02  0.00000000000E+00 0.  1.
          4    1    6    6  502    0  0.30750840677E+01 -0.41985119759E+01 -0.10055484564E+03  0.10068942658E+03  0.00000000000E+00 0. -1.
         -3    1    6    6    0  502  0.86279165328E+02  0.17774050208E+03 -0.72269918745E+03  0.74921952456E+03  0.00000000000E+00 0.  1.
<mgrwt>
<rscale>  0 0.28068815E+03</rscale>
<asrwt>0</asrwt>
<pdfrwt beam="1">  1        1 0.18322711E+00 0.28068815E+03</pdfrwt>
<pdfrwt beam="2">  1       -2 0.16876715E-01 0.28068815E+03</pdfrwt>
<totfact> 0.28807290E+02</totfact>
</mgrwt>
</event>
<event>
12    3  0.1176505E-007  0.6672102E+03  0.7818608E-02  0.9775011E-01
          1   -1    0    0  501    0  0.00000000000E+00  0.00000000000E+00  0.17249578120E+04  0.17249578120E+04  0.00000000000E+00 0. -1.
         -2   -1    0    0    0  501 -0.00000000000E+00 -0.00000000000E+00 -0.28420908849E+03  0.28420908849E+03  0.00000000000E+00 0.  1.
        -24    2    1    2    0    0 -0.34307406086E+03  0.41464655464E+03  0.32892575686E+03  0.63586307722E+03  0.80610935637E+02 0.  0.
    5000000    2    1    2    0    0  0.34307406086E+03 -0.41464655464E+03  0.11118229667E+04  0.13733038233E+04  0.60015123536E+03 0.  0.
        -24    2    4    4    0    0 -0.15381307787E+03 -0.99169638113E+02  0.39279624049E+03  0.44087699338E+03  0.81182243745E+02 0.  0.
         24    2    4    4    0    0  0.49688713873E+03 -0.31547691652E+03  0.71902672617E+03  0.93242682989E+03  0.77445765878E+02 0.  0.
         13    1    5    5    0    0 -0.11901844320E+03 -0.11101052067E+03  0.30524140574E+03  0.34592057080E+03  0.00000000000E+00 0. -1.
        -14    1    5    5    0    0 -0.34794634672E+02  0.11840882557E+02  0.87554834748E+02  0.94956422582E+02  0.00000000000E+00 0.  1.
         15    1    3    3    0    0 -0.18730185197E+03  0.18027468321E+03  0.12587342259E+03  0.28883943879E+03  0.17770000000E+01 0. -1.
        -16    1    3    3    0    0 -0.15577220889E+03  0.23437187143E+03  0.20305233427E+03  0.34702363843E+03  0.00000000000E+00 0.  1.
          2    1    6    6  502    0  0.26423189689E+03 -0.21259637315E+03  0.40143107809E+03  0.52551177310E+03  0.00000000000E+00 0. -1.
         -1    1    6    6    0  502  0.23265524184E+03 -0.10288054337E+03  0.31759564808E+03  0.40691505679E+03  0.00000000000E+00 0.  1.
<mgrwt>
<rscale>  0 0.66721023E+03</rscale>
<asrwt>0</asrwt>
<pdfrwt beam="1">  1        1 0.26537812E+00 0.66721023E+03</pdfrwt>
<pdfrwt beam="2">  1       -2 0.43724476E-01 0.66721023E+03</pdfrwt>
<totfact> 0.20856188E+01</totfact>
</mgrwt>
</event>
<event>
12    3  0.1176505E-007  0.3948670E+03  0.7818608E-02  0.1045572E+00
         -2   -1    0    0    0  501 -0.00000000000E+00  0.00000000000E+00  0.38404799353E+03  0.38404799353E+03  0.00000000000E+00 0.  1.
          1   -1    0    0  501    0  0.00000000000E+00 -0.00000000000E+00 -0.21926085468E+04  0.21926085468E+04  0.00000000000E+00 0. -1.
        -24    2    1    2    0    0 -0.25250644971E+03  0.28834952738E+03  0.20403849272E+03  0.44186174809E+03  0.81884924323E+02 0.  0.
    5000000    2    1    2    0    0  0.25250644971E+03 -0.28834952738E+03 -0.20125990460E+04  0.21347947923E+04  0.59990743285E+03 0.  0.
        -24    2    4    4    0    0  0.11293997808E+03 -0.61279949368E+02 -0.60130570915E+02  0.16256703983E+03  0.79383159656E+02 0.  0.
         24    2    4    4    0    0  0.13956647163E+03 -0.22706957801E+03 -0.19524684751E+04  0.19722277524E+04  0.80683133119E+02 0.  0.
         11    1    5    5    0    0  0.66231146698E+02 -0.87953299056E+01  0.46857964617E+01  0.66976707216E+02  0.00000000000E+00 0. -1.
        -12    1    5    5    0    0  0.46708831383E+02 -0.52484619462E+02 -0.64816367376E+02  0.95590332613E+02  0.00000000000E+00 0.  1.
         15    1    3    3    0    0 -0.88113912022E+02  0.86255340920E+02  0.10890480137E+03  0.16452190985E+03  0.17770000000E+01 0. -1.
        -16    1    3    3    0    0 -0.16439253768E+03  0.20209418646E+03  0.95133691342E+02  0.27733983824E+03  0.00000000000E+00 0.  1.
          4    1    6    6  502    0  0.19987786954E+01 -0.20803955059E+02 -0.35689158484E+03  0.35750301117E+03  0.00000000000E+00 0. -1.
         -3    1    6    6    0  502  0.13756769293E+03 -0.20626562295E+03 -0.15955768902E+04  0.16147247413E+04  0.00000000000E+00 0.  1.
<mgrwt>
<rscale>  0 0.39486705E+03</rscale>
<asrwt>0</asrwt>
<pdfrwt beam="1">  1        1 0.33732440E+00 0.39486705E+03</pdfrwt>
<pdfrwt beam="2">  1       -2 0.59084306E-01 0.39486705E+03</pdfrwt>
<totfact> 0.58745838E+00</totfact>
</mgrwt>
</event>
<event>
12    3  0.1176505E-007  0.4136851E+03  0.7818608E-02  0.1039141E+00
          1   -1    0    0  501    0  0.00000000000E+00  0.00000000000E+00  0.58329360777E+03  0.58329360777E+03  0.00000000000E+00 0. -1.
         -2   -1    0    0    0  501 -0.00000000000E+00 -0.00000000000E+00 -0.53181253128E+03  0.53181253128E+03  0.00000000000E+00 0.  1.
        -24    2    1    2    0    0 -0.26582835017E+03  0.27424894628E+03  0.96229725260E+02  0.40224746248E+03  0.81643522454E+02 0.  0.
    5000000    2    1    2    0    0  0.26582835017E+03 -0.27424894628E+03 -0.44748648769E+02  0.71285867657E+03  0.60023983115E+03 0.  0.
        -24    2    4    4    0    0  0.86379506563E+01 -0.63491783469E+02  0.24429623758E+03  0.26522321992E+03  0.80974588150E+02 0.  0.
         24    2    4    4    0    0  0.25719039952E+03 -0.21075716281E+03 -0.28904488635E+03  0.44763545665E+03  0.79152210597E+02 0.  0.
         13    1    5    5    0    0  0.34812728437E+02 -0.68286188361E+02  0.18060898758E+03  0.19620024459E+03  0.00000000000E+00 0. -1.
        -14    1    5    5    0    0 -0.26174777781E+02  0.47944048914E+01  0.63687250004E+02  0.69022975329E+02  0.00000000000E+00 0.  1.
         15    1    3    3    0    0 -0.11820416009E+03  0.93439590127E+02  0.24863938316E+01  0.15070673624E+03  0.17770000000E+01 0. -1.
        -16    1    3    3    0    0 -0.14762419009E+03  0.18080935615E+03  0.93743331429E+02  0.25154072624E+03  0.00000000000E+00 0.  1.
          4    1    6    6  502    0  0.43226972227E+02 -0.56194425974E+01 -0.53619588274E+02  0.69102890748E+02  0.00000000000E+00 0. -1.
         -3    1    6    6    0  502  0.21396342729E+03 -0.20513772021E+03 -0.23542529808E+03  0.37853256590E+03  0.00000000000E+00 0.  1.
<mgrwt>
<rscale>  0 0.41368515E+03</rscale>
<asrwt>0</asrwt>
<pdfrwt beam="1">  1        1 0.89737478E-01 0.41368515E+03</pdfrwt>
<pdfrwt beam="2">  1       -2 0.81817313E-01 0.41368515E+03</pdfrwt>
<totfact> 0.43177466E+01</totfact>
</mgrwt>
</event>
<event>
12    3  0.1176505E-007  0.6706081E+03  0.7818608E-02  0.9768860E-01
         -2   -1    0    0    0  501 -0.00000000000E+00  0.00000000000E+00  0.49672575448E+03  0.49672575448E+03  0.00000000000E+00 0.  1.
          1   -1    0    0  501    0  0.00000000000E+00 -0.00000000000E+00 -0.12936220712E+04  0.12936220712E+04  0.00000000000E+00 0. -1.
        -24    2    1    2    0    0 -0.28681846198E+03 -0.59269056212E+03 -0.56131275508E+03  0.86887798888E+03  0.79561410201E+02 0.  0.
    5000000    2    1    2    0    0  0.28681846198E+03  0.59269056212E+03 -0.23558356165E+03  0.92146983681E+03  0.60005009214E+03 0.  0.
        -24    2    4    4    0    0  0.19078556993E+03  0.25675494644E+03 -0.40796630291E+03  0.52455802222E+03  0.80014862098E+02 0.  0.
         24    2    4    4    0    0  0.96032892049E+02  0.33593561568E+03  0.17238274126E+03  0.39691181458E+03  0.75816388942E+02 0.  0.
         11    1    5    5    0    0  0.68945797420E+02  0.51350868397E+02 -0.15093767008E+03  0.17370266237E+03  0.00000000000E+00 0. -1.
        -12    1    5    5    0    0  0.12183977251E+03  0.20540407804E+03 -0.25702863283E+03  0.35085535985E+03  0.00000000000E+00 0.  1.
         15    1    3    3    0    0 -0.15075801355E+03 -0.33944540754E+03 -0.36510133064E+03  0.52081983710E+03  0.17770000000E+01 0. -1.
        -16    1    3    3    0    0 -0.13606044842E+03 -0.25324515458E+03 -0.19621142444E+03  0.34805815179E+03  0.00000000000E+00 0.  1.
          2    1    6    6  502    0  0.10853515945E+03  0.28218552338E+03  0.14560434897E+03  0.33557290845E+03  0.00000000000E+00 0. -1.
         -1    1    6    6    0  502 -0.12502267403E+02  0.53750092299E+02  0.26778392294E+02  0.61338906138E+02  0.00000000000E+00 0.  1.
<mgrwt>
<rscale>  0 0.67060805E+03</rscale>
<asrwt>0</asrwt>
<pdfrwt beam="1">  1        1 0.19901878E+00 0.67060805E+03</pdfrwt>
<pdfrwt beam="2">  1       -2 0.76419348E-01 0.67060805E+03</pdfrwt>
<totfact> 0.12762477E+01</totfact>
</mgrwt>
</event>
<event>
12    3  0.1176505E-007  0.1061072E+04  0.7818608E-02  0.9243987E-01
          1   -1    0    0  501    0  0.00000000000E+00  0.00000000000E+00  0.13135624672E+04  0.13135624672E+04  0.00000000000E+00 0. -1.
         -4   -1    0    0    0  501 -0.00000000000E+00 -0.00000000000E+00 -0.14445421728E+04  0.14445421728E+04  0.00000000000E+00 0.  1.
        -24    2    1    2    0    0  0.28154161035E+03 -0.95874449092E+03  0.78710677766E+03  0.12745126312E+04  0.79929284533E+02 0.  0.
    5000000    2    1    2    0    0 -0.28154161035E+03  0.95874449092E+03 -0.91808648320E+03  0.14835920088E+04  0.59975476711E+03 0.  0.
        -24    2    4    4    0    0 -0.36512973315E+03  0.35934653225E+03 -0.23947839591E+03  0.57087714194E+03  0.78109902105E+02 0.  0.
         24    2    4    4    0    0  0.83588122802E+02  0.59939795867E+03 -0.67860808729E+03  0.91271486685E+03  0.79212403729E+02 0.  0.
         11    1    5    5    0    0 -0.15085158481E+03  0.13036525079E+03 -0.13309636763E+03  0.23972055049E+03  0.00000000000E+00 0. -1.
        -12    1    5    5    0    0 -0.21427814834E+03  0.22898128146E+03 -0.10638202829E+03  0.33115659144E+03  0.00000000000E+00 0.  1.
         15    1    3    3    0    0  0.14864876732E+03 -0.63231343271E+03  0.52778267617E+03  0.83694351315E+03  0.17770000000E+01 0. -1.
        -16    1    3    3    0    0  0.13289284303E+03 -0.32643105822E+03  0.25932410148E+03  0.43756911809E+03  0.00000000000E+00 0.  1.
          2    1    6    6  502    0 -0.54864985543E+01  0.79614399788E+02 -0.12352019441E+03  0.14705710709E+03  0.00000000000E+00 0. -1.
         -1    1    6    6    0  502  0.89074621356E+02  0.51978355888E+03 -0.55508789288E+03  0.76565775976E+03  0.00000000000E+00 0.  1.
<mgrwt>
<rscale>  0 0.10610721E+04</rscale>
<asrwt>0</asrwt>
<pdfrwt beam="1">  1        1 0.20208653E+00 0.10610721E+04</pdfrwt>
<pdfrwt beam="2">  1       -4 0.22223726E+00 0.10610721E+04</pdfrwt>
<totfact> 0.39304843E-01</totfact>
</mgrwt>
</event>
<event>
12    3  0.1176505E-007  0.7541940E+03  0.7818608E-02  0.9628794E-01
          3   -1    0    0  501    0  0.00000000000E+00  0.00000000000E+00  0.72420351854E+03  0.72420351854E+03  0.00000000000E+00 0. -1.
         -4   -1    0    0    0  501 -0.00000000000E+00 -0.00000000000E+00 -0.85103572704E+03  0.85103572704E+03  0.00000000000E+00 0.  1.
        -24    2    1    2    0    0 -0.40312347564E+03 -0.52150077269E+03  0.53006759712E+02  0.66612109750E+03  0.80224730809E+02 0.  0.
    5000000    2    1    2    0    0  0.40312347564E+03  0.52150077269E+03 -0.17983896821E+03  0.90911814808E+03  0.59973507498E+03 0.  0.
        -24    2    4    4    0    0  0.17385993047E+03 -0.83612880418E+02 -0.14741792329E+03  0.25571079972E+03  0.80234529908E+02 0.  0.
         24    2    4    4    0    0  0.22926354517E+03  0.60511365311E+03 -0.32421044917E+02  0.65340734837E+03  0.84650649277E+02 0.  0.
         13    1    5    5    0    0  0.29385894998E+02 -0.35549563433E+02 -0.72725124568E+02  0.86117629024E+02  0.00000000000E+00 0. -1.
        -14    1    5    5    0    0  0.14447403547E+03 -0.48063316985E+02 -0.74692798727E+02  0.16959317069E+03  0.00000000000E+00 0.  1.
         15    1    3    3    0    0 -0.35017630829E+03 -0.44255692972E+03  0.17386913013E+02  0.56461096819E+03  0.17770000000E+01 0. -1.
        -16    1    3    3    0    0 -0.52947167342E+02 -0.78943842975E+02  0.35619846699E+02  0.10151012931E+03  0.00000000000E+00 0.  1.
          4    1    6    6  502    0  0.63605215568E+02  0.26180406781E+03 -0.38591369046E+02  0.27216959260E+03  0.00000000000E+00 0. -1.
         -3    1    6    6    0  502  0.16565832960E+03  0.34330958530E+03  0.61703241295E+01  0.38123775577E+03  0.00000000000E+00 0.  1.
<mgrwt>
<rscale>  0 0.75419397E+03</rscale>
<asrwt>0</asrwt>
<pdfrwt beam="1">  1        3 0.11141593E+00 0.75419397E+03</pdfrwt>
<pdfrwt beam="2">  1       -4 0.13092857E+00 0.75419397E+03</pdfrwt>
<totfact> 0.64727181E-01</totfact>
</mgrwt>
</event>
<event>
12    3  0.1176505E-007  0.6224892E+03  0.7818608E-02  0.9859816E-01
         -2   -1    0    0    0  501 -0.00000000000E+00  0.00000000000E+00  0.77496590385E+03  0.77496590385E+03  0.00000000000E+00 0.  1.
          1   -1    0    0  501    0  0.00000000000E+00 -0.00000000000E+00 -0.63666707892E+03  0.63666707892E+03  0.00000000000E+00 0. -1.
        -24    2    1    2    0    0  0.40129684045E+03 -0.40133758882E+03 -0.57382368308E+01  0.57329588888E+03  0.80772733565E+02 0.  0.
    5000000    2    1    2    0    0 -0.40129684045E+03  0.40133758882E+03  0.14403706176E+03  0.83833709389E+03  0.59995949320E+03 0.  0.
        -24    2    4    4    0    0 -0.18509090399E+03 -0.18504103948E+02 -0.17333751891E+03  0.26400373163E+03  0.71070600480E+02 0.  0.
         24    2    4    4    0    0 -0.21620593646E+03  0.41984169277E+03  0.31737458067E+03  0.57433336226E+03  0.78231276353E+02 0.  0.
         13    1    5    5    0    0 -0.14978859064E+03  0.13917708595E+02 -0.12121338915E+03  0.19319164115E+03  0.00000000000E+00 0. -1.
        -14    1    5    5    0    0 -0.35302313346E+02 -0.32421812543E+02 -0.52124129759E+02  0.70812090488E+02  0.00000000000E+00 0.  1.
         15    1    3    3    0    0  0.15408957406E+03 -0.18421975814E+03  0.31285098889E+02  0.24220328500E+03  0.17770000000E+01 0. -1.
        -16    1    3    3    0    0  0.24720726639E+03 -0.21711783068E+03 -0.37023335719E+02  0.33109260388E+03  0.00000000000E+00 0.  1.
          4    1    6    6  502    0 -0.16156570805E+03  0.36885851206E+03  0.25198932363E+03  0.47503547148E+03  0.00000000000E+00 0. -1.
         -1    1    6    6    0  502 -0.54640228406E+02  0.50983180711E+02  0.65385257040E+02  0.99297890782E+02  0.00000000000E+00 0.  1.
<mgrwt>
<rscale>  0 0.62248922E+03</rscale>
<asrwt>0</asrwt>
<pdfrwt beam="1">  1        1 0.97948781E-01 0.62248922E+03</pdfrwt>
<pdfrwt beam="2">  1       -2 0.11922552E+00 0.62248922E+03</pdfrwt>
<totfact> 0.15336607E+01</totfact>
</mgrwt>
</event>
<event>
12    3  0.1176505E-007  0.5308229E+03  0.7818608E-02  0.1006033E+00
          1   -1    0    0  501    0  0.00000000000E+00  0.00000000000E+00  0.72168097863E+03  0.72168097863E+03  0.00000000000E+00 0. -1.
         -2   -1    0    0    0  501 -0.00000000000E+00 -0.00000000000E+00 -0.53705874252E+03  0.53705874252E+03  0.00000000000E+00 0.  1.
        -24    2    1    2    0    0 -0.94523180981E+02  0.44498623114E+03 -0.62777580478E+02  0.46620244984E+03  0.80351241293E+02 0.  0.
    5000000    2    1    2    0    0  0.94523180981E+02 -0.44498623114E+03  0.24739981659E+03  0.79253727131E+03  0.59996773207E+03 0.  0.
        -24    2    4    4    0    0 -0.14518832128E+03 -0.21906126465E+03 -0.11395448929E+03  0.29735209315E+03  0.79781923796E+02 0.  0.
         24    2    4    4    0    0  0.23971150227E+03 -0.22592496649E+03  0.36135430588E+03  0.49518517817E+03  0.78279828156E+02 0.  0.
         11    1    5    5    0    0 -0.76170174075E+02 -0.81795576756E+02 -0.86376583983E+02  0.14125624254E+03  0.00000000000E+00 0. -1.
        -12    1    5    5    0    0 -0.69018147209E+02 -0.13726568789E+03 -0.27577905303E+02  0.15609585061E+03  0.00000000000E+00 0.  1.
         15    1    3    3    0    0 -0.76556221974E+02  0.18940555847E+03 -0.95666218917E+01  0.20452383403E+03  0.17770000000E+01 0. -1.
        -16    1    3    3    0    0 -0.17966959007E+02  0.25558067267E+03 -0.53210958587E+02  0.26167861581E+03  0.00000000000E+00 0.  1.
          4    1    6    6  502    0  0.18167848232E+03 -0.20527826824E+03  0.26819288674E+03  0.38350184204E+03  0.00000000000E+00 0. -1.
         -3    1    6    6    0  502  0.58033019943E+02 -0.20646698254E+02  0.93161419140E+02  0.11168333613E+03  0.00000000000E+00 0.  1.
<mgrwt>
<rscale>  0 0.53082290E+03</rscale>
<asrwt>0</asrwt>
<pdfrwt beam="1">  1        1 0.11102784E+00 0.53082290E+03</pdfrwt>
<pdfrwt beam="2">  1       -2 0.82624422E-01 0.53082290E+03</pdfrwt>
<totfact> 0.30525480E+01</totfact>
</mgrwt>
</event>
<event>
12    3  0.1176505E-007  0.6403978E+03  0.7818608E-02  0.9824966E-01
         -2   -1    0    0    0  501 -0.00000000000E+00  0.00000000000E+00  0.54628810544E+03  0.54628810544E+03  0.00000000000E+00 0.  1.
          1   -1    0    0  501    0  0.00000000000E+00 -0.00000000000E+00 -0.89427635370E+03  0.89427635370E+03  0.00000000000E+00 0. -1.
        -24    2    1    2    0    0 -0.34405908302E+03 -0.41919256299E+03  0.28015201487E+02  0.54884155237E+03  0.79643836062E+02 0.  0.
    5000000    2    1    2    0    0  0.34405908302E+03  0.41919256299E+03 -0.37600344975E+03  0.89172290677E+03  0.59974335409E+03 0.  0.
        -24    2    4    4    0    0  0.15813988831E+03 -0.83618104348E+02 -0.27832174320E+03  0.34053332026E+03  0.80620951508E+02 0.  0.
         24    2    4    4    0    0  0.18591919470E+03  0.50281066734E+03 -0.97681706549E+02  0.55118958651E+03  0.82968248955E+02 0.  0.
         13    1    5    5    0    0  0.52536771259E+02 -0.71110732062E+02 -0.10589547054E+03  0.13795180038E+03  0.00000000000E+00 0. -1.
        -14    1    5    5    0    0  0.10560311706E+03 -0.12507372286E+02 -0.17242627266E+03  0.20258151988E+03  0.00000000000E+00 0.  1.
         15    1    3    3    0    0 -0.23341564631E+03 -0.31410519558E+03  0.50544877987E+02  0.39459204282E+03  0.17770000000E+01 0. -1.
        -16    1    3    3    0    0 -0.11064343671E+03 -0.10508736741E+03 -0.22529676500E+02  0.15424950956E+03  0.00000000000E+00 0.  1.
          4    1    6    6  502    0  0.10771812866E+03  0.39164593573E+03 -0.64451686298E+02  0.41127090109E+03  0.00000000000E+00 0. -1.
         -3    1    6    6    0  502  0.78201066044E+02  0.11116473160E+03 -0.33230020251E+02  0.13991868542E+03  0.00000000000E+00 0.  1.
<mgrwt>
<rscale>  0 0.64039778E+03</rscale>
<asrwt>0</asrwt>
<pdfrwt beam="1">  1        1 0.13758098E+00 0.64039778E+03</pdfrwt>
<pdfrwt beam="2">  1       -2 0.84044325E-01 0.64039778E+03</pdfrwt>
<totfact> 0.20617907E+01</totfact>
</mgrwt>
</event>
<event>
12    3  0.1527488E-007  0.1128595E+04  0.7818608E-02  0.9177761E-01
          1   -1    0    0  501    0  0.00000000000E+00  0.00000000000E+00  0.18134875937E+04  0.18134875937E+04  0.00000000000E+00 0. -1.
         -2   -1    0    0    0  501 -0.00000000000E+00 -0.00000000000E+00 -0.78205997674E+03  0.78205997674E+03  0.00000000000E+00 0.  1.
        -24    2    1    2    0    0  0.13906293760E+03 -0.11048894903E+04  0.50991580724E+03  0.12273289251E+04  0.78758323336E+02 0.  0.
    5000000    2    1    2    0    0 -0.13906293760E+03  0.11048894903E+04  0.52151180972E+03  0.13682186453E+04  0.59994033645E+03 0.  0.
        -24    2    4    4    0    0  0.50512015797E+02  0.41621388394E+03  0.48857476004E+03  0.64867644494E+03  0.79311872658E+02 0.  0.
         24    2    4    4    0    0 -0.18957495340E+03  0.68867560638E+03  0.32937049677E+02  0.71954220039E+03  0.80270636700E+02 0.  0.
         11    1    5    5    0    0  0.60711633710E+02  0.19379668740E+03  0.25492929026E+03  0.32593251073E+03  0.00000000000E+00 0. -1.
        -12    1    5    5    0    0 -0.10199617913E+02  0.22241719654E+03  0.23364546978E+03  0.32274393421E+03  0.00000000000E+00 0.  1.
         15    1    3    3    0    0  0.11523338103E+02 -0.38887365840E+03  0.17198936001E+03  0.42536925983E+03  0.17770000000E+01 0. -1.
        -16    1    3    3    0    0  0.12753959950E+03 -0.71601583193E+03  0.33792644723E+03  0.80195966528E+03  0.00000000000E+00 0.  1.
          4    1    6    6  502    0 -0.10535310628E+03  0.44499203258E+03 -0.13854596633E+02  0.45750315399E+03  0.00000000000E+00 0. -1.
         -3    1    6    6    0  502 -0.84221847119E+02  0.24368357380E+03  0.46791646310E+02  0.26203904640E+03  0.00000000000E+00 0.  1.
<mgrwt>
<rscale>  0 0.11285950E+04</rscale>
<asrwt>0</asrwt>
<pdfrwt beam="1">  1        1 0.27899809E+00 0.11285950E+04</pdfrwt>
<pdfrwt beam="2">  1       -2 0.12031692E+00 0.11285950E+04</pdfrwt>
<totfact> 0.18223273E+00</totfact>
</mgrwt>
</event>
<event>
12    3  0.1176505E-007  0.9422799E+03  0.7818608E-02  0.9374220E-01
          1   -1    0    0  501    0  0.00000000000E+00  0.00000000000E+00  0.61554545789E+03  0.61554545789E+03  0.00000000000E+00 0. -1.
         -2   -1    0    0    0  501 -0.00000000000E+00 -0.00000000000E+00 -0.15662109708E+04  0.15662109708E+04  0.00000000000E+00 0.  1.
        -24    2    1    2    0    0  0.94942448629E+02 -0.87291570581E+03 -0.58179056682E+03  0.10563325366E+04  0.79763815555E+02 0.  0.
    5000000    2    1    2    0    0 -0.94942448629E+02  0.87291570581E+03 -0.36887494610E+03  0.11254238921E+04  0.59959512426E+03 0.  0.
        -24    2    4    4    0    0 -0.16094034597E+03  0.90537274047E+03 -0.40873696863E+03  0.10095155461E+04  0.80337625702E+02 0.  0.
         24    2    4    4    0    0  0.65997897340E+02 -0.32457034658E+02  0.39862022528E+02  0.11590834602E+03  0.80228313485E+02 0.  0.
         13    1    5    5    0    0 -0.96564035805E+02  0.72795774159E+03 -0.32560746289E+03  0.80328532070E+03  0.00000000000E+00 0. -1.
        -14    1    5    5    0    0 -0.64376310164E+02  0.17741499888E+03 -0.83129505736E+02  0.20623022538E+03  0.00000000000E+00 0.  1.
         15    1    3    3    0    0  0.94181365313E+02 -0.72311688029E+03 -0.45063907926E+03  0.85723210953E+03  0.17770000000E+01 0. -1.
        -16    1    3    3    0    0  0.76108331658E+00 -0.14979882552E+03 -0.13115148756E+03  0.19910042708E+03  0.00000000000E+00 0.  1.
          2    1    6    6  502    0  0.53274240693E+02 -0.66454621666E+01  0.60205872306E+02  0.80666312355E+02  0.00000000000E+00 0. -1.
         -1    1    6    6    0  502  0.12723656647E+02 -0.25811572491E+02 -0.20343849778E+02  0.35242033663E+02  0.00000000000E+00 0.  1.
<mgrwt>
<rscale>  0 0.94227986E+03</rscale>
<asrwt>0</asrwt>
<pdfrwt beam="1">  1        1 0.94699302E-01 0.94227986E+03</pdfrwt>
<pdfrwt beam="2">  1       -2 0.24095553E+00 0.94227986E+03</pdfrwt>
<totfact> 0.21288337E+00</totfact>
</mgrwt>
</event>
<event>
12    3  0.1176505E-007  0.4989079E+03  0.7818608E-02  0.1014064E+00
         -2   -1    0    0    0  501 -0.00000000000E+00  0.00000000000E+00  0.23051566083E+04  0.23051566083E+04  0.00000000000E+00 0.  1.
          1   -1    0    0  501    0  0.00000000000E+00 -0.00000000000E+00 -0.12934222274E+03  0.12934222274E+03  0.00000000000E+00 0. -1.
        -24    2    1    2    0    0  0.85688278047E+02 -0.32987261916E+03  0.11190908575E+04  0.11725149933E+04  0.79174719743E+02 0.  0.
    5000000    2    1    2    0    0 -0.85688278047E+02  0.32987261916E+03  0.10567235281E+04  0.12619838378E+04  0.59981677715E+03 0.  0.
        -24    2    4    4    0    0 -0.79437242136E+02 -0.14566428341E+03  0.16216388890E+03  0.24563600108E+03  0.80694233175E+02 0.  0.
         24    2    4    4    0    0 -0.62510359112E+01  0.47553690256E+03  0.89455963916E+03  0.10163478367E+04  0.80941682425E+02 0.  0.
         11    1    5    5    0    0 -0.43078895337E+02 -0.84569422990E+02  0.37350200348E+02  0.10199419589E+03  0.00000000000E+00 0. -1.
        -12    1    5    5    0    0 -0.36358346799E+02 -0.61094860416E+02  0.12481368855E+03  0.14364180520E+03  0.00000000000E+00 0.  1.
         15    1    3    3    0    0  0.10818012156E+02 -0.19626728564E+03  0.61085747457E+03  0.64170701162E+03  0.17770000000E+01 0. -1.
        -16    1    3    3    0    0  0.74870265892E+02 -0.13360533352E+03  0.50823338292E+03  0.53080798164E+03  0.00000000000E+00 0.  1.
          2    1    6    6  502    0  0.34102551731E+02  0.13831559593E+03  0.28179956047E+03  0.31576127120E+03  0.00000000000E+00 0. -1.
         -1    1    6    6    0  502 -0.40353587642E+02  0.33722130663E+03  0.61276007869E+03  0.70058656547E+03  0.00000000000E+00 0.  1.
<mgrwt>
<rscale>  0 0.49890791E+03</rscale>
<asrwt>0</asrwt>
<pdfrwt beam="1">  1        1 0.19898805E-01 0.49890791E+03</pdfrwt>
<pdfrwt beam="2">  1       -2 0.35463945E+00 0.49890791E+03</pdfrwt>
<totfact> 0.36784128E+00</totfact>
</mgrwt>
</event>
<event>
12    3  0.1176505E-007  0.1021579E+04  0.7818608E-02  0.9285189E-01
         -2   -1    0    0    0  501 -0.00000000000E+00  0.00000000000E+00  0.49807511986E+03  0.49807511986E+03  0.00000000000E+00 0.  1.
          1   -1    0    0  501    0  0.00000000000E+00 -0.00000000000E+00 -0.25515298978E+04  0.25515298978E+04  0.00000000000E+00 0. -1.
        -24    2    1    2    0    0 -0.88469401655E+03 -0.31027958267E+03 -0.32842707504E+03  0.99666725041E+03  0.80773399611E+02 0.  0.
    5000000    2    1    2    0    0  0.88469401655E+03  0.31027958267E+03 -0.17250277029E+04  0.20529377673E+04  0.59989663950E+03 0.  0.
        -24    2    4    4    0    0  0.79812107270E+03  0.45647370147E+03 -0.14866586487E+04  0.17499596528E+04  0.82700433977E+02 0.  0.
         24    2    4    4    0    0  0.86572943850E+02 -0.14619411880E+03 -0.23836905423E+03  0.30297811449E+03  0.78155849885E+02 0.  0.
         11    1    5    5    0    0  0.16463408536E+03  0.10144242140E+03 -0.37884205930E+03  0.42534251236E+03  0.00000000000E+00 0. -1.
        -12    1    5    5    0    0  0.63348698733E+03  0.35503128007E+03 -0.11078165894E+04  0.13246171404E+04  0.00000000000E+00 0.  1.
         15    1    3    3    0    0 -0.24920455253E+03 -0.70629510852E+02 -0.56746956339E+02  0.26516940168E+03  0.17770000000E+01 0. -1.
        -16    1    3    3    0    0 -0.63548946402E+03 -0.23965007182E+03 -0.27168011870E+03  0.73149784873E+03  0.00000000000E+00 0.  1.
          2    1    6    6  502    0  0.45286201863E+02 -0.13531377119E+03 -0.19922610811E+03  0.24505448151E+03  0.00000000000E+00 0. -1.
         -1    1    6    6    0  502  0.41286741987E+02 -0.10880347609E+02 -0.39142946114E+02  0.57923632987E+02  0.00000000000E+00 0.  1.
<mgrwt>
<rscale>  0 0.10215785E+04</rscale>
<asrwt>0</asrwt>
<pdfrwt beam="1">  1        1 0.39254306E+00 0.10215785E+04</pdfrwt>
<pdfrwt beam="2">  1       -2 0.76626942E-01 0.10215785E+04</pdfrwt>
<totfact> 0.16886504E+00</totfact>
</mgrwt>
</event>
<event>
12    3  0.1176505E-007  0.5520024E+03  0.7818608E-02  0.1001032E+00
         -2   -1    0    0    0  501 -0.00000000000E+00  0.00000000000E+00  0.30991681561E+03  0.30991681561E+03  0.00000000000E+00 0.  1.
          1   -1    0    0  501    0  0.00000000000E+00 -0.00000000000E+00 -0.10502966864E+04  0.10502966864E+04  0.00000000000E+00 0. -1.
        -24    2    1    2    0    0  0.53954496602E+02 -0.39576266806E+03 -0.36655010764E+03  0.54826060287E+03  0.81801773273E+02 0.  0.
    5000000    2    1    2    0    0 -0.53954496602E+02  0.39576266806E+03 -0.37382976310E+03  0.81195289910E+03  0.59998303430E+03 0.  0.
        -24    2    4    4    0    0 -0.28031947316E+03  0.64751065838E+02 -0.83808993464E+02  0.31039945000E+03  0.80945436017E+02 0.  0.
         24    2    4    4    0    0  0.22636497656E+03  0.33101160222E+03 -0.29002076963E+03  0.50155344910E+03  0.81449567616E+02 0.  0.
         13    1    5    5    0    0 -0.19375552984E+03  0.69180657733E+02 -0.87669974992E+02  0.22363629684E+03  0.00000000000E+00 0. -1.
        -14    1    5    5    0    0 -0.86563943325E+02 -0.44295918958E+01  0.38609815274E+01  0.86763153162E+02  0.00000000000E+00 0.  1.
         15    1    3    3    0    0  0.63018870295E+02 -0.29352039887E+03 -0.30792921751E+03  0.43005716282E+03  0.17770000000E+01 0. -1.
        -16    1    3    3    0    0 -0.90643736933E+01 -0.10224226919E+03 -0.58620890131E+02  0.11820344005E+03  0.00000000000E+00 0.  1.
          2    1    6    6  502    0  0.17499685919E+03  0.30381641887E+03 -0.24018659904E+03  0.42499166987E+03  0.00000000000E+00 0. -1.
         -1    1    6    6    0  502  0.51368117367E+02  0.27195183350E+02 -0.49834170596E+02  0.76561779226E+02  0.00000000000E+00 0.  1.
<mgrwt>
<rscale>  0 0.55200243E+03</rscale>
<asrwt>0</asrwt>
<pdfrwt beam="1">  1        1 0.16158411E+00 0.55200243E+03</pdfrwt>
<pdfrwt beam="2">  1       -2 0.47679509E-01 0.55200243E+03</pdfrwt>
<totfact> 0.52706717E+01</totfact>
</mgrwt>
</event>
<event>
12    3  0.1176505E-007  0.6201841E+03  0.7818608E-02  0.9864393E-01
         -2   -1    0    0    0  501 -0.00000000000E+00  0.00000000000E+00  0.18514950198E+03  0.18514950198E+03  0.00000000000E+00 0.  1.
          1   -1    0    0  501    0  0.00000000000E+00 -0.00000000000E+00 -0.37503163063E+04  0.37503163063E+04  0.00000000000E+00 0. -1.
        -24    2    1    2    0    0  0.21031967801E+03  0.45693273200E+03 -0.33041038628E+03  0.60734713378E+03  0.81716760954E+02 0.  0.
    5000000    2    1    2    0    0 -0.21031967801E+03 -0.45693273200E+03 -0.32347564181E+04  0.33281186745E+04  0.59975239806E+03 0.  0.
        -24    2    4    4    0    0 -0.30210647574E+03 -0.54484841357E+02 -0.86242433607E+03  0.91891210603E+03  0.79917473253E+02 0.  0.
         24    2    4    4    0    0  0.91786797727E+02 -0.40244789065E+03 -0.23723320820E+04  0.24092065685E+04  0.76991308146E+02 0.  0.
         11    1    5    5    0    0 -0.21449476573E+03 -0.50870050366E+01 -0.63414694270E+03  0.66945965306E+03  0.00000000000E+00 0. -1.
        -12    1    5    5    0    0 -0.87611710007E+02 -0.49397836320E+02 -0.22827739338E+03  0.24945245296E+03  0.00000000000E+00 0.  1.
         15    1    3    3    0    0  0.23739825583E+02  0.13731231561E+03 -0.97061248214E+02  0.16983019452E+03  0.17770000000E+01 0. -1.
        -16    1    3    3    0    0  0.18657985243E+03  0.31962041639E+03 -0.23334913806E+03  0.43751693926E+03  0.00000000000E+00 0.  1.
          2    1    6    6  502    0  0.85763349922E+02 -0.27214786342E+03 -0.14629893668E+04  0.14905561710E+04  0.00000000000E+00 0. -1.
         -1    1    6    6    0  502  0.60234478052E+01 -0.13030002723E+03 -0.90934271523E+03  0.91865039747E+03  0.00000000000E+00 0.  1.
<mgrwt>
<rscale>  0 0.62018412E+03</rscale>
<asrwt>0</asrwt>
<pdfrwt beam="1">  1        1 0.57697176E+00 0.62018412E+03</pdfrwt>
<pdfrwt beam="2">  1       -2 0.28484538E-01 0.62018412E+03</pdfrwt>
<totfact> 0.17486636E+00</totfact>
</mgrwt>
</event>
<event>
12    3  0.1176505E-007  0.5633962E+03  0.7818608E-02  0.9984399E-01
         -2   -1    0    0    0  501 -0.00000000000E+00  0.00000000000E+00  0.23260847385E+03  0.23260847385E+03  0.00000000000E+00 0.  1.
          1   -1    0    0  501    0  0.00000000000E+00 -0.00000000000E+00 -0.17861099777E+04  0.17861099777E+04  0.00000000000E+00 0. -1.
        -24    2    1    2    0    0 -0.28982200213E+03  0.28971750894E+03 -0.10621544511E+04  0.11415440797E+04  0.83772191512E+02 0.  0.
    5000000    2    1    2    0    0  0.28982200213E+03 -0.28971750894E+03 -0.49134705270E+03  0.87717437177E+03  0.60006659996E+03 0.  0.
        -24    2    4    4    0    0  0.27072310773E+03  0.11962832780E+03 -0.24811207865E+03  0.39416897678E+03  0.78788582984E+02 0.  0.
         24    2    4    4    0    0  0.19098894395E+02 -0.40934583674E+03 -0.24323497405E+03  0.48300539499E+03  0.78753902541E+02 0.  0.
         11    1    5    5    0    0  0.33239369680E+02 -0.45674173219E+01 -0.83540139632E+01  0.34576097915E+02  0.00000000000E+00 0. -1.
        -12    1    5    5    0    0  0.23748373805E+03  0.12419574512E+03 -0.23975806469E+03  0.35959287886E+03  0.00000000000E+00 0.  1.
         15    1    3    3    0    0 -0.12971700999E+03  0.15268772932E+03 -0.62335577245E+03  0.65476379111E+03  0.17770000000E+01 0. -1.
        -16    1    3    3    0    0 -0.16010499213E+03  0.13702977962E+03 -0.43879867867E+03  0.48678028864E+03  0.00000000000E+00 0.  1.
          2    1    6    6  502    0  0.26856837558E+02 -0.74208600228E+02 -0.24130096744E+02  0.82525557498E+02  0.00000000000E+00 0. -1.
         -1    1    6    6    0  502 -0.77579431638E+01 -0.33513723651E+03 -0.21910487731E+03  0.40047983750E+03  0.00000000000E+00 0.  1.
<mgrwt>
<rscale>  0 0.56339618E+03</rscale>
<asrwt>0</asrwt>
<pdfrwt beam="1">  1        1 0.27478615E+00 0.56339618E+03</pdfrwt>
<pdfrwt beam="2">  1       -2 0.35785919E-01 0.56339618E+03</pdfrwt>
<totfact> 0.28453217E+01</totfact>
</mgrwt>
</event>
<event>
12    3  0.1176505E-007  0.4793770E+03  0.7818608E-02  0.1019307E+00
         -2   -1    0    0    0  501 -0.00000000000E+00  0.00000000000E+00  0.76860818730E+03  0.76860818730E+03  0.00000000000E+00 0.  1.
          1   -1    0    0  501    0  0.00000000000E+00 -0.00000000000E+00 -0.52508695950E+03  0.52508695950E+03  0.00000000000E+00 0. -1.
        -24    2    1    2    0    0  0.14420516836E+02 -0.31049827276E+03  0.48049115168E+03  0.57774426509E+03  0.79369769537E+02 0.  0.
    5000000    2    1    2    0    0 -0.14420516836E+02  0.31049827276E+03 -0.23696992387E+03  0.71595088171E+03  0.59984480618E+03 0.  0.
        -24    2    4    4    0    0 -0.28716166320E+03  0.10869390452E+03 -0.17180610629E+03  0.36091871291E+03  0.80428810006E+02 0.  0.
         24    2    4    4    0    0  0.27274114636E+03  0.20180436824E+03 -0.65163817583E+02  0.35503216880E+03  0.81784972963E+02 0.  0.
         13    1    5    5    0    0 -0.15061754017E+03  0.70995224038E+02 -0.49343023265E+02  0.17366835978E+03  0.00000000000E+00 0. -1.
        -14    1    5    5    0    0 -0.13654412303E+03  0.37698680481E+02 -0.12246308303E+03  0.18725035313E+03  0.00000000000E+00 0.  1.
         15    1    3    3    0    0  0.49541892880E+01 -0.64741783185E+02  0.16772997958E+03  0.17986813576E+03  0.17770000000E+01 0. -1.
        -16    1    3    3    0    0  0.94663275481E+01 -0.24575648957E+03  0.31276117210E+03  0.39787612933E+03  0.00000000000E+00 0.  1.
          4    1    6    6  502    0  0.14716724621E+03  0.11924036005E+03 -0.76597788862E+02  0.20431270905E+03  0.00000000000E+00 0. -1.
         -1    1    6    6    0  502  0.12557390015E+03  0.82564008184E+02  0.11433971280E+02  0.15071945974E+03  0.00000000000E+00 0.  1.
<mgrwt>
<rscale>  0 0.47937696E+03</rscale>
<asrwt>0</asrwt>
<pdfrwt beam="1">  1        1 0.80782609E-01 0.47937696E+03</pdfrwt>
<pdfrwt beam="2">  1       -2 0.11824741E+00 0.47937696E+03</pdfrwt>
<totfact> 0.20917839E+01</totfact>
</mgrwt>
</event>
<event>
12    3  0.1176505E-007  0.1089747E+04  0.7818608E-02  0.9215243E-01
          1   -1    0    0  501    0  0.00000000000E+00  0.00000000000E+00  0.85863565101E+03  0.85863565101E+03  0.00000000000E+00 0. -1.
         -2   -1    0    0    0  501 -0.00000000000E+00 -0.00000000000E+00 -0.16818882110E+04  0.16818882110E+04  0.00000000000E+00 0.  1.
        -24    2    1    2    0    0  0.10522118569E+04 -0.15894702739E+02  0.34727401165E+02  0.10560912905E+04  0.81977972375E+02 0.  0.
    5000000    2    1    2    0    0 -0.10522118569E+04  0.15894702739E+02 -0.85797996118E+03  0.14844325716E+04  0.60000667690E+03 0.  0.
        -24    2    4    4    0    0 -0.94231467312E+03  0.12708147596E+03 -0.89100072428E+03  0.13055344290E+04  0.80194825439E+02 0.  0.
         24    2    4    4    0    0 -0.10989718382E+03 -0.11118677322E+03  0.33020763103E+02  0.17889814254E+03  0.80462942139E+02 0.  0.
         11    1    5    5    0    0 -0.55627666160E+03  0.60454576608E+02 -0.47334119569E+03  0.73290542883E+03  0.00000000000E+00 0. -1.
        -12    1    5    5    0    0 -0.38603801152E+03  0.66626899351E+02 -0.41765952859E+03  0.57262900021E+03  0.00000000000E+00 0.  1.
         15    1    3    3    0    0  0.55473383944E+03 -0.38893217923E+02  0.45584244887E+02  0.55796361542E+03  0.17770000000E+01 0. -1.
        -16    1    3    3    0    0  0.49747801749E+03  0.22998515184E+02 -0.10856843722E+02  0.49812767504E+03  0.00000000000E+00 0.  1.
          4    1    6    6  502    0 -0.12158581994E+03 -0.95948950754E+02  0.21153290724E+02  0.15632266140E+03  0.00000000000E+00 0. -1.
         -3    1    6    6    0  502  0.11688636117E+02 -0.15237822467E+02  0.11867472379E+02  0.22575481135E+02  0.00000000000E+00 0.  1.
<mgrwt>
<rscale>  0 0.10897473E+04</rscale>
<asrwt>0</asrwt>
<pdfrwt beam="1">  1        1 0.13209779E+00 0.10897473E+04</pdfrwt>
<pdfrwt beam="2">  1       -2 0.25875203E+00 0.10897473E+04</pdfrwt>
<totfact> 0.97174940E-01</totfact>
</mgrwt>
</event>
<event>
12    3  0.1176505E-007  0.8786299E+03  0.7818608E-02  0.9452696E-01
          1   -1    0    0  501    0  0.00000000000E+00  0.00000000000E+00  0.12121988103E+04  0.12121988103E+04  0.00000000000E+00 0. -1.
         -2   -1    0    0    0  501 -0.00000000000E+00 -0.00000000000E+00 -0.77828231450E+03  0.77828231450E+03  0.00000000000E+00 0.  1.
        -24    2    1    2    0    0 -0.52627644618E+03 -0.69202370551E+03  0.81623387010E+02  0.87699436247E+03  0.81197461135E+02 0.  0.
    5000000    2    1    2    0    0  0.52627644618E+03  0.69202370551E+03  0.35229310882E+03  0.11134867624E+04  0.59989884868E+03 0.  0.
        -24    2    4    4    0    0  0.13154829931E+03  0.29387685672E+03  0.42853105697E+03  0.54189371549E+03  0.79632720277E+02 0.  0.
         24    2    4    4    0    0  0.39472814687E+03  0.39814684879E+03 -0.76237948143E+02  0.57159304688E+03  0.81087381033E+02 0.  0.
         11    1    5    5    0    0  0.12123620588E+03  0.25888692175E+03  0.32876790978E+03  0.43567074078E+03  0.00000000000E+00 0. -1.
        -12    1    5    5    0    0  0.10312093427E+02  0.34989934965E+02  0.99763147189E+02  0.10622297471E+03  0.00000000000E+00 0.  1.
         15    1    3    3    0    0 -0.15520445373E+03 -0.24355225778E+03  0.57083220095E+02  0.29439391378E+03  0.17770000000E+01 0. -1.
        -16    1    3    3    0    0 -0.37107199246E+03 -0.44847144773E+03  0.24540166915E+02  0.58260044868E+03  0.00000000000E+00 0.  1.
          2    1    6    6  502    0  0.22142143255E+02  0.47401730986E+02  0.82338508907E+01  0.52962202644E+02  0.00000000000E+00 0. -1.
         -1    1    6    6    0  502  0.37258600362E+03  0.35074511781E+03 -0.84471799034E+02  0.51863084423E+03  0.00000000000E+00 0.  1.
<mgrwt>
<rscale>  0 0.87862992E+03</rscale>
<asrwt>0</asrwt>
<pdfrwt beam="1">  1        1 0.18649212E+00 0.87862992E+03</pdfrwt>
<pdfrwt beam="2">  1       -2 0.11973574E+00 0.87862992E+03</pdfrwt>
<totfact> 0.49569245E+00</totfact>
</mgrwt>
</event>
<event>
12    3  0.1176505E-007  0.6938173E+03  0.7818608E-02  0.9727864E-01
         -2   -1    0    0    0  501 -0.00000000000E+00  0.00000000000E+00  0.96544262608E+03  0.96544262608E+03  0.00000000000E+00 0.  1.
          1   -1    0    0  501    0  0.00000000000E+00 -0.00000000000E+00 -0.10813893513E+04  0.10813893513E+04  0.00000000000E+00 0. -1.
        -24    2    1    2    0    0  0.56197307941E+03 -0.25369796963E+03 -0.75288645746E+03  0.97641651676E+03  0.79842310804E+02 0.  0.
    5000000    2    1    2    0    0 -0.56197307941E+03  0.25369796963E+03  0.63693973225E+03  0.10704154606E+04  0.59993385802E+03 0.  0.
        -24    2    4    4    0    0 -0.21533031390E+03  0.33857029796E+03  0.10124201263E+03  0.42175636582E+03  0.81433999300E+02 0.  0.
         24    2    4    4    0    0 -0.34664276552E+03 -0.84872328328E+02  0.53569771963E+03  0.64865909479E+03  0.80137727932E+02 0.  0.
         13    1    5    5    0    0 -0.27063510718E+02  0.83327095104E+02  0.48797886909E+02  0.10028495479E+03  0.00000000000E+00 0. -1.
        -14    1    5    5    0    0 -0.18826680318E+03  0.25524320286E+03  0.52444125716E+02  0.32147141102E+03  0.00000000000E+00 0.  1.
         15    1    3    3    0    0  0.27307205907E+03 -0.84548678144E+02 -0.31808992027E+03  0.42766947930E+03  0.17770000000E+01 0. -1.
        -16    1    3    3    0    0  0.28890102035E+03 -0.16914929149E+03 -0.43479653719E+03  0.54874703746E+03  0.00000000000E+00 0.  1.
          4    1    6    6  502    0 -0.58165267595E+02 -0.39205824937E+02  0.14276634071E+03  0.15906766832E+03  0.00000000000E+00 0. -1.
         -3    1    6    6    0  502 -0.28847749792E+03 -0.45666503391E+02  0.39293137891E+03  0.48959142647E+03  0.00000000000E+00 0.  1.
<mgrwt>
<rscale>  0 0.69381733E+03</rscale>
<asrwt>0</asrwt>
<pdfrwt beam="1">  1        1 0.16636759E+00 0.69381733E+03</pdfrwt>
<pdfrwt beam="2">  1       -2 0.14852963E+00 0.69381733E+03</pdfrwt>
<totfact> 0.36584471E+00</totfact>
</mgrwt>
</event>
<event>
12    3  0.1176505E-007  0.8825916E+03  0.7818608E-02  0.9447608E-01
          1   -1    0    0  501    0  0.00000000000E+00  0.00000000000E+00  0.26645301668E+03  0.26645301668E+03  0.00000000000E+00 0. -1.
         -2   -1    0    0    0  501 -0.00000000000E+00 -0.00000000000E+00 -0.29719964800E+04  0.29719964800E+04  0.00000000000E+00 0.  1.
        -24    2    1    2    0    0  0.51835563258E+03 -0.58842257419E+03 -0.12877005004E+04  0.15106814743E+04  0.95143314502E+02 0.  0.
    5000000    2    1    2    0    0 -0.51835563258E+03  0.58842257419E+03 -0.14178429629E+04  0.17277680224E+04  0.59997498626E+03 0.  0.
        -24    2    4    4    0    0  0.85728617607E+02  0.26472933057E+03 -0.51872123902E+03  0.59432096627E+03  0.81943107106E+02 0.  0.
         24    2    4    4    0    0 -0.60408425019E+03  0.32369324362E+03 -0.89912172387E+03  0.11334470561E+04  0.81161920850E+02 0.  0.
         13    1    5    5    0    0  0.50420698193E+02  0.48309353639E+02 -0.14697933635E+03  0.16272358701E+03  0.00000000000E+00 0. -1.
        -14    1    5    5    0    0  0.35307919414E+02  0.21641997693E+03 -0.37174190267E+03  0.43159737926E+03  0.00000000000E+00 0.  1.
         15    1    3    3    0    0  0.40253917179E+03 -0.39194601905E+03 -0.92050559977E+03  0.10784216168E+04  0.17770000000E+01 0. -1.
        -16    1    3    3    0    0  0.11581646079E+03 -0.19647655514E+03 -0.36719490063E+03  0.43225985744E+03  0.00000000000E+00 0.  1.
          4    1    6    6  502    0 -0.41092117141E+03  0.20226264605E+03 -0.54119618329E+03  0.70898497580E+03  0.00000000000E+00 0. -1.
         -3    1    6    6    0  502 -0.19316307877E+03  0.12143059757E+03 -0.35792554057E+03  0.42446208031E+03  0.00000000000E+00 0.  1.
<mgrwt>
<rscale>  0 0.88259158E+03</rscale>
<asrwt>0</asrwt>
<pdfrwt beam="1">  1        1 0.40992772E-01 0.88259158E+03</pdfrwt>
<pdfrwt beam="2">  1       -2 0.45723023E+00 0.88259158E+03</pdfrwt>
<totfact> 0.29017607E-01</totfact>
</mgrwt>
</event>
<event>
12    3  0.1176505E-007  0.3711779E+03  0.7818608E-02  0.1054243E+00
          1   -1    0    0  501    0  0.00000000000E+00  0.00000000000E+00  0.11870311832E+04  0.11870311832E+04  0.00000000000E+00 0. -1.
         -2   -1    0    0    0  501 -0.00000000000E+00 -0.00000000000E+00 -0.29993495762E+03  0.29993495762E+03  0.00000000000E+00 0.  1.
        -24    2    1    2    0    0  0.22580882278E+03  0.26500395011E+03  0.67093308340E+03  0.76036756547E+03  0.82407003337E+02 0.  0.
    5000000    2    1    2    0    0 -0.22580882278E+03 -0.26500395011E+03  0.21616314222E+03  0.72659857540E+03  0.60000188974E+03 0.  0.
        -24    2    4    4    0    0 -0.17039996382E+03 -0.19198772434E+03 -0.17311031360E+03  0.31879870702E+03  0.75960522368E+02 0.  0.
         24    2    4    4    0    0 -0.55408858955E+02 -0.73016225768E+02  0.38927345582E+03  0.40779986837E+03  0.79783446660E+02 0.  0.
         13    1    5    5    0    0 -0.31537858946E+02 -0.90014449168E+02 -0.64403559624E+02  0.11508716739E+03  0.00000000000E+00 0. -1.
        -14    1    5    5    0    0 -0.13886210488E+03 -0.10197327517E+03 -0.10870675398E+03  0.20371153963E+03  0.00000000000E+00 0.  1.
         15    1    3    3    0    0  0.10364654871E+03  0.18402529799E+03  0.39777528606E+03  0.45037345979E+03  0.17770000000E+01 0. -1.
        -16    1    3    3    0    0  0.12216227406E+03  0.80978652117E+02  0.27315779734E+03  0.30999410567E+03  0.00000000000E+00 0.  1.
          4    1    6    6  502    0 -0.33038772538E+02 -0.85243642722E+02  0.24953820389E+03  0.26575807479E+03  0.00000000000E+00 0. -1.
         -3    1    6    6    0  502 -0.22370086417E+02  0.12227416954E+02  0.13973525193E+03  0.14204179358E+03  0.00000000000E+00 0.  1.
<mgrwt>
<rscale>  0 0.37117789E+03</rscale>
<asrwt>0</asrwt>
<pdfrwt beam="1">  1        1 0.18262018E+00 0.37117789E+03</pdfrwt>
<pdfrwt beam="2">  1       -2 0.46143840E-01 0.37117789E+03</pdfrwt>
<totfact> 0.45947986E+01</totfact>
</mgrwt>
</event>
<event>
12    3  0.1176505E-007  0.1654917E+04  0.7818608E-02  0.8787503E-01
         -2   -1    0    0    0  501 -0.00000000000E+00  0.00000000000E+00  0.18978015792E+04  0.18978015792E+04  0.00000000000E+00 0.  1.
          1   -1    0    0  501    0  0.00000000000E+00 -0.00000000000E+00 -0.18286713370E+04  0.18286713370E+04  0.00000000000E+00 0. -1.
        -24    2    1    2    0    0 -0.15239572785E+04  0.62523748071E+03  0.79264957827E+03  0.18299470946E+04  0.83936411477E+02 0.  0.
    5000000    2    1    2    0    0  0.15239572785E+04 -0.62523748071E+03 -0.72351933614E+03  0.18965258216E+04  0.59996855618E+03 0.  0.
        -24    2    4    4    0    0  0.26564212642E+03 -0.95501870796E+02  0.88051107048E+02  0.30619206894E+03  0.79462185801E+02 0.  0.
         24    2    4    4    0    0  0.12583151520E+04 -0.52973560991E+03 -0.81157044319E+03  0.15903337527E+04  0.80858038393E+02 0.  0.
         11    1    5    5    0    0  0.20125501371E+03 -0.10674138268E+03  0.65283240501E+02  0.23697933414E+03  0.00000000000E+00 0. -1.
        -12    1    5    5    0    0  0.64387112709E+02  0.11239511885E+02  0.22767866547E+02  0.69212734793E+02  0.00000000000E+00 0.  1.
         15    1    3    3    0    0 -0.48847529531E+03  0.15994116360E+03  0.23558557559E+03  0.56541401743E+03  0.17770000000E+01 0. -1.
        -16    1    3    3    0    0 -0.10354819831E+04  0.46529631710E+03  0.55706400268E+03  0.12645330771E+04  0.00000000000E+00 0.  1.
          2    1    6    6  502    0  0.10335198231E+04 -0.46651403603E+03 -0.66214199055E+03  0.13130996102E+04  0.00000000000E+00 0. -1.
         -1    1    6    6    0  502  0.22479532890E+03 -0.63221573879E+02 -0.14942845264E+03  0.27723414248E+03  0.00000000000E+00 0.  1.
<mgrwt>
<rscale>  0 0.16549168E+04</rscale>
<asrwt>0</asrwt>
<pdfrwt beam="1">  1        1 0.28133405E+00 0.16549168E+04</pdfrwt>
<pdfrwt beam="2">  1       -2 0.29196947E+00 0.16549168E+04</pdfrwt>
<totfact> 0.11236307E-01</totfact>
</mgrwt>
</event>
<event>
12    3  0.1176505E-007  0.9710594E+03  0.7818608E-02  0.9340869E-01
          1   -1    0    0  501    0  0.00000000000E+00  0.00000000000E+00  0.60041530216E+03  0.60041530216E+03  0.00000000000E+00 0. -1.
         -2   -1    0    0    0  501 -0.00000000000E+00 -0.00000000000E+00 -0.18646893234E+04  0.18646893234E+04  0.00000000000E+00 0.  1.
        -24    2    1    2    0    0 -0.77592038138E+03  0.53159599399E+03 -0.86479490667E+03  0.12801652646E+04  0.79411176943E+02 0.  0.
    5000000    2    1    2    0    0  0.77592038138E+03 -0.53159599399E+03 -0.39947911454E+03  0.11849393609E+04  0.59987580967E+03 0.  0.
        -24    2    4    4    0    0  0.22525612656E+03 -0.35304222202E+03 -0.42259596596E+03  0.60025126351E+03  0.79593315163E+02 0.  0.
         24    2    4    4    0    0  0.55066425482E+03 -0.17855377196E+03  0.23116851422E+02  0.58468809741E+03  0.78823926625E+02 0.  0.
         13    1    5    5    0    0  0.14760948417E+03 -0.22929605438E+03 -0.32644035297E+03  0.42535696117E+03  0.00000000000E+00 0. -1.
        -14    1    5    5    0    0  0.77646642392E+02 -0.12374616764E+03 -0.96155612986E+02  0.17489430234E+03  0.00000000000E+00 0.  1.
         15    1    3    3    0    0 -0.63331863910E+03  0.42702905936E+03 -0.65893354548E+03  0.10087828762E+04  0.17770000000E+01 0. -1.
        -16    1    3    3    0    0 -0.14260174228E+03  0.10456693463E+03 -0.20586136119E+03  0.27138238843E+03  0.00000000000E+00 0.  1.
          4    1    6    6  502    0  0.47955337856E+03 -0.13103823329E+03  0.34888747598E+02  0.49835698669E+03  0.00000000000E+00 0. -1.
         -3    1    6    6    0  502  0.71110876260E+02 -0.47515538676E+02 -0.11771896177E+02  0.86331110717E+02  0.00000000000E+00 0.  1.
<mgrwt>
<rscale>  0 0.97105940E+03</rscale>
<asrwt>0</asrwt>
<pdfrwt beam="1">  1        1 0.92371586E-01 0.97105940E+03</pdfrwt>
<pdfrwt beam="2">  1       -2 0.28687528E+00 0.97105940E+03</pdfrwt>
<totfact> 0.11586706E+00</totfact>
</mgrwt>
</event>
<event>
12    3  0.1176505E-007  0.9318217E+03  0.7818608E-02  0.9386654E-01
          1   -1    0    0  501    0  0.00000000000E+00  0.00000000000E+00  0.22915644128E+04  0.22915644128E+04  0.00000000000E+00 0. -1.
         -2   -1    0    0    0  501 -0.00000000000E+00 -0.00000000000E+00 -0.44816268497E+03  0.44816268497E+03  0.00000000000E+00 0.  1.
        -24    2    1    2    0    0 -0.78994820727E+03  0.45849897190E+03  0.66614614553E+03  0.11334260511E+04  0.81636075011E+02 0.  0.
    5000000    2    1    2    0    0  0.78994820727E+03 -0.45849897190E+03  0.11772555823E+04  0.16063010467E+04  0.60002739025E+03 0.  0.
        -24    2    4    4    0    0  0.11499378413E+03  0.22111853405E+02 -0.28874549381E+02  0.14076817034E+03  0.72590865330E+02 0.  0.
         24    2    4    4    0    0  0.67495442315E+03 -0.48061082531E+03  0.12061301317E+04  0.14655328764E+04  0.80538675833E+02 0.  0.
         13    1    5    5    0    0  0.83987298811E+02  0.14803390356E+02 -0.53350764573E+02  0.10059478519E+03  0.00000000000E+00 0. -1.
        -14    1    5    5    0    0  0.31006485317E+02  0.73084630495E+01  0.24476215192E+02  0.40173385145E+02  0.00000000000E+00 0.  1.
         15    1    3    3    0    0 -0.60361209890E+03  0.36821943572E+03  0.55181048369E+03  0.89690082306E+03  0.17770000000E+01 0. -1.
        -16    1    3    3    0    0 -0.18633610837E+03  0.90279536186E+02  0.11433566184E+03  0.23652522805E+03  0.00000000000E+00 0.  1.
          4    1    6    6  502    0  0.32912104663E+03 -0.28311208870E+03  0.64034864396E+03  0.77364042288E+03  0.00000000000E+00 0. -1.
         -3    1    6    6    0  502  0.34583337651E+03 -0.19749873661E+03  0.56578148777E+03  0.69189245348E+03  0.00000000000E+00 0.  1.
<mgrwt>
<rscale>  0 0.93182172E+03</rscale>
<asrwt>0</asrwt>
<pdfrwt beam="1">  1        1 0.35254836E+00 0.93182172E+03</pdfrwt>
<pdfrwt beam="2">  1       -2 0.68948107E-01 0.93182172E+03</pdfrwt>
<totfact> 0.32504665E+00</totfact>
</mgrwt>
</event>
<event>
12    3  0.1176505E-007  0.7507003E+03  0.7818608E-02  0.9634252E-01
          1   -1    0    0  501    0  0.00000000000E+00  0.00000000000E+00  0.87346492815E+03  0.87346492815E+03  0.00000000000E+00 0. -1.
         -2   -1    0    0    0  501 -0.00000000000E+00 -0.00000000000E+00 -0.87440839540E+03  0.87440839540E+03  0.00000000000E+00 0.  1.
        -24    2    1    2    0    0 -0.31261535207E+03  0.57190131039E+03  0.40694463870E+03  0.77255935068E+03  0.80277918458E+02 0.  0.
    5000000    2    1    2    0    0  0.31261535207E+03 -0.57190131039E+03 -0.40788810595E+03  0.97531397286E+03  0.60005430714E+03 0.  0.
        -24    2    4    4    0    0  0.41487989216E+03 -0.57906148684E+03 -0.44023253733E+03  0.84137124511E+03  0.81629374074E+02 0.  0.
         24    2    4    4    0    0 -0.10226454009E+03  0.71601764486E+01  0.32344431382E+02  0.13394272776E+03  0.79907370068E+02 0.  0.
         11    1    5    5    0    0  0.85696842595E+02 -0.18147599789E+03 -0.13079428018E+03  0.23955089307E+03  0.00000000000E+00 0. -1.
        -12    1    5    5    0    0  0.32918304956E+03 -0.39758548894E+03 -0.30943825715E+03  0.60182035204E+03  0.00000000000E+00 0.  1.
         15    1    3    3    0    0 -0.41301982312E+02  0.13841697499E+03  0.10615646020E+03  0.17926925135E+03  0.17770000000E+01 0. -1.
        -16    1    3    3    0    0 -0.27131336975E+03  0.43348433540E+03  0.30078817849E+03  0.59329009933E+03  0.00000000000E+00 0.  1.
          4    1    6    6  502    0  0.28530844968E+01 -0.19930033068E+02 -0.16272052588E+01  0.20198863982E+02  0.00000000000E+00 0. -1.
         -3    1    6    6    0  502 -0.10511762459E+03  0.27090209516E+02  0.33971636641E+02  0.11374386378E+03  0.00000000000E+00 0.  1.
<mgrwt>
<rscale>  0 0.75070026E+03</rscale>
<asrwt>0</asrwt>
<pdfrwt beam="1">  1        1 0.13437922E+00 0.75070026E+03</pdfrwt>
<pdfrwt beam="2">  1       -2 0.13452437E+00 0.75070026E+03</pdfrwt>
<totfact> 0.68320462E+00</totfact>
</mgrwt>
</event>
<event>
12    3  0.1176505E-007  0.2309225E+04  0.7818608E-02  0.8474293E-01
         -2   -1    0    0    0  501 -0.00000000000E+00  0.00000000000E+00  0.17168743245E+04  0.17168743245E+04  0.00000000000E+00 0.  1.
          1   -1    0    0  501    0  0.00000000000E+00 -0.00000000000E+00 -0.31934361653E+04  0.31934361653E+04  0.00000000000E+00 0. -1.
        -24    2    1    2    0    0 -0.22760016211E+04  0.30295569052E+03 -0.54757577564E+03  0.23618021921E+04  0.79402991130E+02 0.  0.
    5000000    2    1    2    0    0  0.22760016211E+04 -0.30295569052E+03 -0.92898606520E+03  0.25485082976E+04  0.59992824897E+03 0.  0.
        -24    2    4    4    0    0  0.14270904388E+04 -0.34068490697E+03 -0.33422904704E+03  0.15069617939E+04  0.81064579953E+02 0.  0.
         24    2    4    4    0    0  0.84891118233E+03  0.37729216449E+02 -0.59475701816E+03  0.10415465037E+04  0.94918488467E+02 0.  0.
         11    1    5    5    0    0  0.11682349091E+04 -0.26643615150E+03 -0.30233386001E+03  0.12357858991E+04  0.00000000000E+00 0. -1.
        -12    1    5    5    0    0  0.25885552971E+03 -0.74248755478E+02 -0.31895187034E+02  0.27117589478E+03  0.00000000000E+00 0.  1.
         15    1    3    3    0    0 -0.46593822976E+03  0.57323255013E+02 -0.14468433848E+03  0.49124444531E+03  0.17770000000E+01 0. -1.
        -16    1    3    3    0    0 -0.18100633913E+04  0.24563243551E+03 -0.40289143716E+03  0.18705577468E+04  0.00000000000E+00 0.  1.
          2    1    6    6  502    0  0.54196231012E+03 -0.20692284216E+02 -0.38863602709E+03  0.66722505781E+03  0.00000000000E+00 0. -1.
         -1    1    6    6    0  502  0.30694887221E+03  0.58421500665E+02 -0.20612099106E+03  0.37432144588E+03  0.00000000000E+00 0.  1.
<mgrwt>
<rscale>  0 0.23092254E+04</rscale>
<asrwt>0</asrwt>
<pdfrwt beam="1">  1        1 0.49129787E+00 0.23092254E+04</pdfrwt>
<pdfrwt beam="2">  1       -2 0.26413451E+00 0.23092254E+04</pdfrwt>
<totfact> 0.17059992E-02</totfact>
</mgrwt>
</event>
<event>
12    3  0.1176505E-007  0.8489903E+03  0.7818608E-02  0.9491693E-01
          1   -1    0    0  501    0  0.00000000000E+00  0.00000000000E+00  0.56233213026E+03  0.56233213026E+03  0.00000000000E+00 0. -1.
         -2   -1    0    0    0  501 -0.00000000000E+00 -0.00000000000E+00 -0.16247783857E+04  0.16247783857E+04  0.00000000000E+00 0.  1.
        -24    2    1    2    0    0 -0.80853956877E+03  0.11901420894E+03 -0.78514597865E+03  0.11361104347E+04  0.79950583030E+02 0.  0.
    5000000    2    1    2    0    0  0.80853956877E+03 -0.11901420894E+03 -0.27730027679E+03  0.10510000813E+04  0.59983757069E+03 0.  0.
        -24    2    4    4    0    0  0.40530655686E+03  0.88950993244E+02 -0.39194444519E+03  0.57626802785E+03  0.79238296132E+02 0.  0.
         24    2    4    4    0    0  0.40323301191E+03 -0.20796520219E+03  0.11464416839E+03  0.47473205346E+03  0.79880222981E+02 0.  0.
         11    1    5    5    0    0  0.67987268685E+02 -0.14607214298E+02 -0.67974048693E+02  0.97242535490E+02  0.00000000000E+00 0. -1.
        -12    1    5    5    0    0  0.33731928818E+03  0.10355820754E+03 -0.32397039650E+03  0.47902549236E+03  0.00000000000E+00 0.  1.
         15    1    3    3    0    0 -0.97350653280E+02  0.19668878434E+02 -0.62567788439E+02  0.11739633875E+03  0.17770000000E+01 0. -1.
        -16    1    3    3    0    0 -0.71118891549E+03  0.99345330507E+02 -0.72257819022E+03  0.10187140959E+04  0.00000000000E+00 0.  1.
          4    1    6    6  502    0  0.32105820927E+03 -0.19308000489E+03  0.74114698160E+02  0.38190476628E+03  0.00000000000E+00 0. -1.
         -3    1    6    6    0  502  0.82174802645E+02 -0.14885197300E+02  0.40529470234E+02  0.92827287183E+02  0.00000000000E+00 0.  1.
<mgrwt>
<rscale>  0 0.84899028E+03</rscale>
<asrwt>0</asrwt>
<pdfrwt beam="1">  1        1 0.86512636E-01 0.84899028E+03</pdfrwt>
<pdfrwt beam="2">  1       -2 0.24996590E+00 0.84899028E+03</pdfrwt>
<totfact> 0.21609684E+00</totfact>
</mgrwt>
</event>
<event>
12    3  0.1176505E-007  0.5515715E+03  0.7818608E-02  0.1001131E+00
          3   -1    0    0  501    0  0.00000000000E+00  0.00000000000E+00  0.82453217798E+03  0.82453217798E+03  0.00000000000E+00 0. -1.
         -4   -1    0    0    0  501 -0.00000000000E+00 -0.00000000000E+00 -0.42153286645E+03  0.42153286645E+03  0.00000000000E+00 0.  1.
        -24    2    1    2    0    0  0.33970951064E+03 -0.26581803628E+03  0.17910167955E+03  0.47393330873E+03  0.80458619644E+02 0.  0.
    5000000    2    1    2    0    0 -0.33970951064E+03  0.26581803628E+03  0.22389763198E+03  0.77213173570E+03  0.59999623969E+03 0.  0.
        -24    2    4    4    0    0  0.55531169221E+02  0.25981043424E+03  0.24270399875E+03  0.36847266785E+03  0.79257198083E+02 0.  0.
         24    2    4    4    0    0 -0.39524067986E+03  0.60076020438E+01 -0.18806366776E+02  0.40365906785E+03  0.79596968105E+02 0.  0.
         13    1    5    5    0    0  0.58972696989E+02  0.16867884266E+03  0.19864975470E+03  0.26719291905E+03  0.00000000000E+00 0. -1.
        -14    1    5    5    0    0 -0.34415277684E+01  0.91131591577E+02  0.44054244057E+02  0.10127974880E+03  0.00000000000E+00 0.  1.
         15    1    3    3    0    0  0.11374499743E+03 -0.13327697359E+03  0.52119838310E+02  0.18281222991E+03  0.17770000000E+01 0. -1.
        -16    1    3    3    0    0  0.22596451321E+03 -0.13254106269E+03  0.12698184124E+03  0.29112107882E+03  0.00000000000E+00 0.  1.
          2    1    6    6  502    0 -0.21509109768E+03 -0.90798696224E+01  0.27527806277E+02  0.21703549123E+03  0.00000000000E+00 0. -1.
         -1    1    6    6    0  502 -0.18014958218E+03  0.15087471666E+02 -0.46334173053E+02  0.18662357662E+03  0.00000000000E+00 0.  1.
<mgrwt>
<rscale>  0 0.55157145E+03</rscale>
<asrwt>0</asrwt>
<pdfrwt beam="1">  1        3 0.12685110E+00 0.55157145E+03</pdfrwt>
<pdfrwt beam="2">  1       -4 0.64851211E-01 0.55157145E+03</pdfrwt>
<totfact> 0.24778861E+00</totfact>
</mgrwt>
</event>
<event>
12    3  0.1176505E-007  0.1021009E+04  0.7818608E-02  0.9285798E-01
         -2   -1    0    0    0  501 -0.00000000000E+00  0.00000000000E+00  0.69386406699E+03  0.69386406699E+03  0.00000000000E+00 0.  1.
          1   -1    0    0  501    0  0.00000000000E+00 -0.00000000000E+00 -0.15299302107E+04  0.15299302107E+04  0.00000000000E+00 0. -1.
        -24    2    1    2    0    0 -0.49948195906E+01  0.93703239090E+03 -0.28715461342E+03  0.98342618069E+03  0.81330382058E+02 0.  0.
    5000000    2    1    2    0    0  0.49948195906E+01 -0.93703239090E+03 -0.54891153025E+03  0.12403680970E+04  0.59929500091E+03 0.  0.
        -24    2    4    4    0    0 -0.24498391734E+03 -0.20405330067E+03 -0.21799415337E+03  0.39444167734E+03  0.80049463778E+02 0.  0.
         24    2    4    4    0    0  0.24997873693E+03 -0.73297909023E+03 -0.33091737689E+03  0.84592641963E+03  0.79608300300E+02 0.  0.
         13    1    5    5    0    0 -0.48434168679E+02 -0.74027655004E+01 -0.47806760975E+02  0.68455503998E+02  0.00000000000E+00 0. -1.
        -14    1    5    5    0    0 -0.19654974866E+03 -0.19665053517E+03 -0.17018739239E+03  0.32598617334E+03  0.00000000000E+00 0.  1.
         15    1    3    3    0    0 -0.38252790591E+02  0.27174136512E+03 -0.80835980618E+02  0.28608435644E+03  0.17770000000E+01 0. -1.
        -16    1    3    3    0    0  0.33257971000E+02  0.66529102578E+03 -0.20631863281E+03  0.69734182426E+03  0.00000000000E+00 0.  1.
          4    1    6    6  502    0  0.38563232248E+02 -0.11011335636E+03 -0.19982194612E+02  0.11836960011E+03  0.00000000000E+00 0. -1.
         -3    1    6    6    0  502  0.21141550468E+03 -0.62286573387E+03 -0.31093518227E+03  0.72755681952E+03  0.00000000000E+00 0.  1.
<mgrwt>
<rscale>  0 0.10210089E+04</rscale>
<asrwt>0</asrwt>
<pdfrwt beam="1">  1        1 0.23537388E+00 0.10210089E+04</pdfrwt>
<pdfrwt beam="2">  1       -2 0.10674832E+00 0.10210089E+04</pdfrwt>
<totfact> 0.38587465E+00</totfact>
</mgrwt>
</event>
<event>
12    3  0.1176505E-007  0.6050525E+03  0.7818608E-02  0.9894979E-01
         -2   -1    0    0    0  501 -0.00000000000E+00  0.00000000000E+00  0.27769538518E+03  0.27769538518E+03  0.00000000000E+00 0.  1.
          1   -1    0    0  501    0  0.00000000000E+00 -0.00000000000E+00 -0.20616605000E+04  0.20616605000E+04  0.00000000000E+00 0. -1.
        -24    2    1    2    0    0 -0.57883039854E+03 -0.11394653165E+03 -0.39251886615E+03  0.71322947337E+03  0.81220558121E+02 0.  0.
    5000000    2    1    2    0    0  0.57883039854E+03  0.11394653165E+03 -0.13914462487E+04  0.16261264119E+04  0.60011332421E+03 0.  0.
        -24    2    4    4    0    0  0.12063452697E+03 -0.44137436070E+02 -0.96073585551E+03  0.97252918604E+03  0.79365176721E+02 0.  0.
         24    2    4    4    0    0  0.45819587157E+03  0.15808396772E+03 -0.43071039321E+03  0.65359722581E+03  0.82121210398E+02 0.  0.
         11    1    5    5    0    0  0.42956600350E+02 -0.15851491045E-01 -0.57419306912E+03  0.57579766446E+03  0.00000000000E+00 0. -1.
        -12    1    5    5    0    0  0.77677926618E+02 -0.44121584579E+02 -0.38654278639E+03  0.39673152159E+03  0.00000000000E+00 0.  1.
         15    1    3    3    0    0 -0.74491917752E+02 -0.16458069826E+02 -0.86333133240E+02  0.11522361519E+03  0.17770000000E+01 0. -1.
        -16    1    3    3    0    0 -0.50433848078E+03 -0.97488461821E+02 -0.30618573291E+03  0.59800585819E+03  0.00000000000E+00 0.  1.
          4    1    6    6  502    0  0.34865353613E+03  0.94755913160E+02 -0.28188772761E+03  0.45825610996E+03  0.00000000000E+00 0. -1.
         -3    1    6    6    0  502  0.10954233543E+03  0.63328054557E+02 -0.14882266559E+03  0.19534111585E+03  0.00000000000E+00 0.  1.
<mgrwt>
<rscale>  0 0.60505246E+03</rscale>
<asrwt>0</asrwt>
<pdfrwt beam="1">  1        1 0.31717855E+00 0.60505246E+03</pdfrwt>
<pdfrwt beam="2">  1       -2 0.42722366E-01 0.60505246E+03</pdfrwt>
<totfact> 0.13154022E+01</totfact>
</mgrwt>
</event>
<event>
12    3  0.1176505E-007  0.8864367E+03  0.7818608E-02  0.9442697E-01
          1   -1    0    0  501    0  0.00000000000E+00  0.00000000000E+00  0.15000399868E+04  0.15000399868E+04  0.00000000000E+00 0. -1.
         -2   -1    0    0    0  501 -0.00000000000E+00 -0.00000000000E+00 -0.69566469507E+03  0.69566469507E+03  0.00000000000E+00 0.  1.
        -24    2    1    2    0    0  0.33222680397E+03 -0.71155714234E+03  0.90624041985E+03  0.12018008014E+04  0.79782526658E+02 0.  0.
    5000000    2    1    2    0    0 -0.33222680397E+03  0.71155714234E+03 -0.10186512815E+03  0.99390388045E+03  0.60064981740E+03 0.  0.
        -24    2    4    4    0    0 -0.23571210793E+03  0.79853780616E+03 -0.11029137467E+03  0.84293670680E+03  0.71800269274E+02 0.  0.
         24    2    4    4    0    0 -0.96514696039E+02 -0.86980663815E+02  0.84262465197E+01  0.15096717364E+03  0.76415727818E+02 0.  0.
         11    1    5    5    0    0 -0.20346170772E+03  0.61827510486E+03 -0.63862326102E+02  0.65401771268E+03  0.00000000000E+00 0. -1.
        -12    1    5    5    0    0 -0.32250400211E+02  0.18026270129E+03 -0.46429048566E+02  0.18891899413E+03  0.00000000000E+00 0.  1.
         15    1    3    3    0    0  0.14227499333E+03 -0.38353166033E+03  0.43711439617E+03  0.59867425306E+03  0.17770000000E+01 0. -1.
        -16    1    3    3    0    0  0.18995181064E+03 -0.32802548201E+03  0.46912602367E+03  0.60312654833E+03  0.00000000000E+00 0.  1.
          4    1    6    6  502    0 -0.71459485565E+02 -0.13017464215E+02  0.34695846645E+01  0.72718295288E+02  0.00000000000E+00 0. -1.
         -3    1    6    6    0  502 -0.25055210475E+02 -0.73963199601E+02  0.49566618552E+01  0.78248878355E+02  0.00000000000E+00 0.  1.
<mgrwt>
<rscale>  0 0.88643671E+03</rscale>
<asrwt>0</asrwt>
<pdfrwt beam="1">  1        1 0.23077538E+00 0.88643671E+03</pdfrwt>
<pdfrwt beam="2">  1       -2 0.10702534E+00 0.88643671E+03</pdfrwt>
<totfact> 0.40853045E+00</totfact>
</mgrwt>
</event>
<event>
12    3  0.1176505E-007  0.7985977E+03  0.7818608E-02  0.9562049E-01
          1   -1    0    0  501    0  0.00000000000E+00  0.00000000000E+00  0.13588915917E+04  0.13588915917E+04  0.00000000000E+00 0. -1.
         -2   -1    0    0    0  501 -0.00000000000E+00 -0.00000000000E+00 -0.19064829519E+04  0.19064829519E+04  0.00000000000E+00 0.  1.
        -24    2    1    2    0    0 -0.75634154078E+03  0.16254540507E+03  0.11010934642E+04  0.13479027372E+04  0.77210342867E+02 0.  0.
    5000000    2    1    2    0    0  0.75634154078E+03 -0.16254540507E+03 -0.16486848244E+04  0.19174718064E+04  0.60005245030E+03 0.  0.
        -24    2    4    4    0    0  0.70996323819E+03 -0.15351185429E+03 -0.88284739986E+03  0.11463267779E+04  0.83856193889E+02 0.  0.
         24    2    4    4    0    0  0.46378302589E+02 -0.90335507812E+01 -0.76583742457E+03  0.77114502854E+03  0.76974945219E+02 0.  0.
         11    1    5    5    0    0  0.23356135620E+03 -0.14149746804E+02 -0.25760608039E+03  0.34801151576E+03  0.00000000000E+00 0. -1.
        -12    1    5    5    0    0  0.47640188199E+03 -0.13936210749E+03 -0.62524131946E+03  0.79831526212E+03  0.00000000000E+00 0.  1.
         15    1    3    3    0    0 -0.33957759195E+03  0.36475118566E+02  0.46002509180E+03  0.57294818094E+03  0.17770000000E+01 0. -1.
        -16    1    3    3    0    0 -0.41676394882E+03  0.12607028651E+03  0.64106837245E+03  0.77495455630E+03  0.00000000000E+00 0.  1.
          2    1    6    6  502    0 -0.21362590602E+02 -0.54798977509E+01 -0.15730222915E+03  0.15884074053E+03  0.00000000000E+00 0. -1.
         -1    1    6    6    0  502  0.67740893191E+02 -0.35536530303E+01 -0.60853519542E+03  0.61230428802E+03  0.00000000000E+00 0.  1.
<mgrwt>
<rscale>  0 0.79859770E+03</rscale>
<asrwt>0</asrwt>
<pdfrwt beam="1">  1        1 0.20906024E+00 0.79859770E+03</pdfrwt>
<pdfrwt beam="2">  1       -2 0.29330507E+00 0.79859770E+03</pdfrwt>
<totfact> 0.26366174E-01</totfact>
</mgrwt>
</event>
<event>
12    3  0.1176505E-007  0.1573021E+04  0.7818608E-02  0.8837296E-01
         -4   -1    0    0    0  501 -0.00000000000E+00  0.00000000000E+00  0.13728910504E+04  0.13728910504E+04  0.00000000000E+00 0.  1.
          3   -1    0    0  501    0  0.00000000000E+00 -0.00000000000E+00 -0.18697018213E+04  0.18697018213E+04  0.00000000000E+00 0. -1.
        -24    2    1    2    0    0  0.14131081288E+04  0.55094820200E+03  0.57085163921E+02  0.15200409793E+04  0.82748764472E+02 0.  0.
    5000000    2    1    2    0    0 -0.14131081288E+04 -0.55094820200E+03 -0.55389593485E+03  0.17225518923E+04  0.59997150772E+03 0.  0.
        -24    2    4    4    0    0 -0.52790402745E+03 -0.51264751659E+03 -0.27075623468E+03  0.78908386996E+03  0.88624357580E+02 0.  0.
         24    2    4    4    0    0 -0.88520410134E+03 -0.38300685407E+02 -0.28313970017E+03  0.93346802233E+03  0.78365906925E+02 0.  0.
         11    1    5    5    0    0 -0.20327482254E+03 -0.24077568740E+03 -0.14852842840E+03  0.34835941090E+03  0.00000000000E+00 0. -1.
        -12    1    5    5    0    0 -0.32462920490E+03 -0.27187182920E+03 -0.12222780627E+03  0.44072445906E+03  0.00000000000E+00 0.  1.
         15    1    3    3    0    0  0.83116266375E+03  0.35847293606E+03  0.91348586055E+01  0.90521866025E+03  0.17770000000E+01 0. -1.
        -16    1    3    3    0    0  0.58194546504E+03  0.19247526594E+03  0.47950305316E+02  0.61482231910E+03  0.00000000000E+00 0.  1.
          2    1    6    6  502    0 -0.68979656025E+03  0.22693901301E+01 -0.22587763804E+03  0.72584099639E+03  0.00000000000E+00 0. -1.
         -1    1    6    6    0  502 -0.19540754109E+03 -0.40570075538E+02 -0.57262062129E+02  0.20762702595E+03  0.00000000000E+00 0.  1.
<mgrwt>
<rscale>  0 0.15730212E+04</rscale>
<asrwt>0</asrwt>
<pdfrwt beam="1">  1        3 0.28764643E+00 0.15730212E+04</pdfrwt>
<pdfrwt beam="2">  1       -4 0.21121401E+00 0.15730212E+04</pdfrwt>
<totfact> 0.10493062E-02</totfact>
</mgrwt>
</event>
<event>
12    3  0.1176505E-007  0.4301744E+03  0.7818608E-02  0.1033805E+00
          1   -1    0    0  501    0  0.00000000000E+00  0.00000000000E+00  0.45965888735E+03  0.45965888735E+03  0.00000000000E+00 0. -1.
         -2   -1    0    0    0  501 -0.00000000000E+00 -0.00000000000E+00 -0.11248286218E+04  0.11248286218E+04  0.00000000000E+00 0.  1.
        -24    2    1    2    0    0  0.54148748934E+02  0.22724440192E+03  0.32221697121E+03  0.40564604611E+03  0.78439995992E+02 0.  0.
    5000000    2    1    2    0    0 -0.54148748934E+02 -0.22724440192E+03 -0.98738670566E+03  0.11788414631E+04  0.60013547078E+03 0.  0.
        -24    2    4    4    0    0  0.14115427716E+03  0.14146277831E+03 -0.40405301985E+03  0.45718582514E+03  0.76313748803E+02 0.  0.
         24    2    4    4    0    0 -0.19530302610E+03 -0.36870718023E+03 -0.58333368581E+03  0.72165563791E+03  0.80127485689E+02 0.  0.
         13    1    5    5    0    0  0.27153501570E+02  0.41869682746E+02 -0.17999124114E+03  0.18678123532E+03  0.00000000000E+00 0. -1.
        -14    1    5    5    0    0  0.11400077559E+03  0.99593095567E+02 -0.22406177870E+03  0.27040458982E+03  0.00000000000E+00 0.  1.
         15    1    3    3    0    0  0.47057490131E+02  0.16595663662E+03  0.28630157084E+03  0.33425702657E+03  0.17770000000E+01 0. -1.
        -16    1    3    3    0    0  0.70912588028E+01  0.61287765302E+02  0.35915400370E+02  0.71389019540E+02  0.00000000000E+00 0.  1.
          4    1    6    6  502    0 -0.10997215463E+03 -0.12418161337E+03 -0.22800885982E+03  0.28196274231E+03  0.00000000000E+00 0. -1.
         -3    1    6    6    0  502 -0.85330871465E+02 -0.24452556686E+03 -0.35532482599E+03  0.43969289560E+03  0.00000000000E+00 0.  1.
<mgrwt>
<rscale>  0 0.43017437E+03</rscale>
<asrwt>0</asrwt>
<pdfrwt beam="1">  1        1 0.70716753E-01 0.43017437E+03</pdfrwt>
<pdfrwt beam="2">  1       -2 0.17305055E+00 0.43017437E+03</pdfrwt>
<totfact> 0.94117015E+00</totfact>
</mgrwt>
</event>
<event>
12    3  0.1176505E-007  0.8827594E+03  0.7818608E-02  0.9447393E-01
          1   -1    0    0  501    0  0.00000000000E+00  0.00000000000E+00  0.13227030535E+04  0.13227030535E+04  0.00000000000E+00 0. -1.
         -2   -1    0    0    0  501 -0.00000000000E+00 -0.00000000000E+00 -0.88981289540E+03  0.88981289540E+03  0.00000000000E+00 0.  1.
        -24    2    1    2    0    0 -0.48901456902E+03  0.71232553181E+03 -0.31368288222E+03  0.92263436520E+03  0.79462628214E+02 0.  0.
    5000000    2    1    2    0    0  0.48901456902E+03 -0.71232553181E+03  0.74657304037E+03  0.12898815837E+04  0.59990022795E+03 0.  0.
        -24    2    4    4    0    0  0.17497013659E+03 -0.43855063424E+03  0.57708043260E+02  0.48087134797E+03  0.70468628177E+02 0.  0.
         24    2    4    4    0    0  0.31404443242E+03 -0.27377489757E+03  0.68886499711E+03  0.80901023577E+03  0.79912309814E+02 0.  0.
         11    1    5    5    0    0  0.13614063779E+03 -0.39790199398E+03  0.42838910641E+02  0.42272383696E+03  0.00000000000E+00 0. -1.
        -12    1    5    5    0    0  0.38829498806E+02 -0.40648640258E+02  0.14869132620E+02  0.58147511015E+02  0.00000000000E+00 0.  1.
         15    1    3    3    0    0 -0.19096662322E+03  0.25206890785E+03 -0.15256146871E+03  0.35111984414E+03  0.17770000000E+01 0. -1.
        -16    1    3    3    0    0 -0.29804794580E+03  0.46025662396E+03 -0.16112141351E+03  0.57151452106E+03  0.00000000000E+00 0.  1.
          4    1    6    6  502    0  0.15960832236E+03 -0.19117208567E+03  0.40986112911E+03  0.47959120932E+03  0.00000000000E+00 0. -1.
         -3    1    6    6    0  502  0.15443611006E+03 -0.82602811905E+02  0.27900386800E+03  0.32941902645E+03  0.00000000000E+00 0.  1.
<mgrwt>
<rscale>  0 0.88275942E+03</rscale>
<asrwt>0</asrwt>
<pdfrwt beam="1">  1        1 0.20349278E+00 0.88275942E+03</pdfrwt>
<pdfrwt beam="2">  1       -2 0.13689429E+00 0.88275942E+03</pdfrwt>
<totfact> 0.29436266E+00</totfact>
</mgrwt>
</event>
<event>
12    3  0.1176505E-007  0.3475597E+03  0.7818608E-02  0.1063621E+00
         -2   -1    0    0    0  501 -0.00000000000E+00  0.00000000000E+00  0.26251603827E+03  0.26251603827E+03  0.00000000000E+00 0.  1.
          1   -1    0    0  501    0  0.00000000000E+00 -0.00000000000E+00 -0.75854100165E+03  0.75854100165E+03  0.00000000000E+00 0. -1.
        -24    2    1    2    0    0  0.18497141257E+02  0.13444441491E+03  0.71261465809E+02  0.18455337179E+03  0.10278280787E+03 0.  0.
    5000000    2    1    2    0    0 -0.18497141257E+02 -0.13444441491E+03 -0.56728642919E+03  0.83650366813E+03  0.59958906688E+03 0.  0.
        -24    2    4    4    0    0  0.23858755100E+03 -0.10915103411E+03 -0.89159532827E+02  0.28725085298E+03  0.75668107580E+02 0.  0.
         24    2    4    4    0    0 -0.25708469226E+03 -0.25293380800E+02 -0.47812689636E+03  0.54925281515E+03  0.79630596015E+02 0.  0.
         13    1    5    5    0    0  0.18371066793E+03 -0.50207075903E+02 -0.78587189337E+02  0.20602501379E+03  0.00000000000E+00 0. -1.
        -14    1    5    5    0    0  0.54876883074E+02 -0.58943958205E+02 -0.10572343490E+02  0.81225839187E+02  0.00000000000E+00 0.  1.
         15    1    3    3    0    0 -0.29224808110E+02  0.21096140634E+02 -0.96306455920E+01  0.37350282760E+02  0.17770000000E+01 0. -1.
        -16    1    3    3    0    0  0.47721949367E+02  0.11334827427E+03  0.80892111401E+02  0.14720308903E+03  0.00000000000E+00 0.  1.
          4    1    6    6  502    0 -0.41939480929E+02 -0.27061423450E+02 -0.13842245728E+03  0.14714624487E+03  0.00000000000E+00 0. -1.
         -3    1    6    6    0  502 -0.21514521133E+03  0.17680426498E+01 -0.33970443909E+03  0.40210657028E+03  0.00000000000E+00 0.  1.
<mgrwt>
<rscale>  0 0.34755969E+03</rscale>
<asrwt>0</asrwt>
<pdfrwt beam="1">  1        1 0.11669861E+00 0.34755969E+03</pdfrwt>
<pdfrwt beam="2">  1       -2 0.40387083E-01 0.34755969E+03</pdfrwt>
<totfact> 0.12858454E+02</totfact>
</mgrwt>
</event>
<event>
12    3  0.1176505E-007  0.6777749E+03  0.7818608E-02  0.9756013E-01
         -2   -1    0    0    0  501 -0.00000000000E+00  0.00000000000E+00  0.47937021926E+03  0.47937021926E+03  0.00000000000E+00 0.  1.
          1   -1    0    0  501    0  0.00000000000E+00 -0.00000000000E+00 -0.10587193432E+04  0.10587193432E+04  0.00000000000E+00 0. -1.
        -24    2    1    2    0    0  0.50855810362E+03  0.20539137568E+03 -0.45173278788E+03  0.71522149750E+03  0.81623016920E+02 0.  0.
    5000000    2    1    2    0    0 -0.50855810362E+03 -0.20539137568E+03 -0.12761633607E+03  0.82286806497E+03  0.60000746758E+03 0.  0.
        -24    2    4    4    0    0  0.95161567670E+02 -0.15522294675E+03  0.10280067460E+00  0.20047787483E+03  0.83913530293E+02 0.  0.
         24    2    4    4    0    0 -0.60371967129E+03 -0.50168428922E+02 -0.12771913674E+03  0.62239019014E+03  0.63742122107E+02 0.  0.
         13    1    5    5    0    0  0.60153462189E+02 -0.29000853437E+02  0.15600104085E+02  0.68577341454E+02  0.00000000000E+00 0. -1.
        -14    1    5    5    0    0  0.35008105481E+02 -0.12622209332E+03 -0.15497303411E+02  0.13190053337E+03  0.00000000000E+00 0.  1.
         15    1    3    3    0    0  0.40504227370E+03  0.15370791220E+03 -0.39537903553E+03  0.58652630395E+03  0.17770000000E+01 0. -1.
        -16    1    3    3    0    0  0.10351582992E+03  0.51683463477E+02 -0.56353752342E+02  0.12869519355E+03  0.00000000000E+00 0.  1.
          4    1    6    6  502    0 -0.32644415812E+03  0.33381671944E+01 -0.78096185264E+02  0.33567237879E+03  0.00000000000E+00 0. -1.
         -3    1    6    6    0  502 -0.27727551317E+03 -0.53506596116E+02 -0.49622951480E+02  0.28671781135E+03  0.00000000000E+00 0.  1.
<mgrwt>
<rscale>  0 0.67777492E+03</rscale>
<asrwt>0</asrwt>
<pdfrwt beam="1">  1        1 0.16287990E+00 0.67777492E+03</pdfrwt>
<pdfrwt beam="2">  1       -2 0.73749265E-01 0.67777492E+03</pdfrwt>
<totfact> 0.20450016E+01</totfact>
</mgrwt>
</event>
<event>
12    3  0.1176505E-007  0.1098658E+04  0.7818608E-02  0.9206501E-01
          1   -1    0    0  501    0  0.00000000000E+00  0.00000000000E+00  0.27274000772E+04  0.27274000772E+04  0.00000000000E+00 0. -1.
         -2   -1    0    0    0  501 -0.00000000000E+00 -0.00000000000E+00 -0.56624704205E+03  0.56624704205E+03  0.00000000000E+00 0.  1.
        -24    2    1    2    0    0 -0.55588730370E+03  0.90997219057E+03  0.16523137471E+04  0.19682111636E+04  0.81574405285E+02 0.  0.
    5000000    2    1    2    0    0  0.55588730370E+03 -0.90997219057E+03  0.50883928805E+03  0.13254359556E+04  0.60066876848E+03 0.  0.
        -24    2    4    4    0    0  0.21413805020E+03 -0.67204466139E+03  0.67235961300E+02  0.71314095602E+03  0.80933412146E+02 0.  0.
         24    2    4    4    0    0  0.34174925350E+03 -0.23792752918E+03  0.44160332675E+03  0.61229499963E+03  0.80558096860E+02 0.  0.
         11    1    5    5    0    0  0.15951953201E+03 -0.55369781332E+03  0.81766781916E+02  0.58199102758E+03  0.00000000000E+00 0. -1.
        -12    1    5    5    0    0  0.54618518196E+02 -0.11834684808E+03 -0.14530820616E+02  0.13114992843E+03  0.00000000000E+00 0.  1.
         15    1    3    3    0    0 -0.34106407073E+03  0.51351348951E+03  0.89339681477E+03  0.10854408462E+04  0.17770000000E+01 0. -1.
        -16    1    3    3    0    0 -0.21482323297E+03  0.39645870107E+03  0.75891693229E+03  0.88277031735E+03  0.00000000000E+00 0.  1.
          4    1    6    6  502    0  0.18103954687E+03 -0.17183305634E+03  0.27826403998E+03  0.37380849740E+03  0.00000000000E+00 0. -1.
         -3    1    6    6    0  502  0.16070970663E+03 -0.66094472839E+02  0.16333928677E+03  0.23848650223E+03  0.00000000000E+00 0.  1.
<mgrwt>
<rscale>  0 0.10986576E+04</rscale>
<asrwt>0</asrwt>
<pdfrwt beam="1">  1        1 0.41960001E+00 0.10986576E+04</pdfrwt>
<pdfrwt beam="2">  1       -2 0.87114931E-01 0.10986576E+04</pdfrwt>
<totfact> 0.94217901E-01</totfact>
</mgrwt>
</event>
<event>
12    3  0.1176505E-007  0.8799275E+03  0.7818608E-02  0.9451027E-01
          1   -1    0    0  501    0  0.00000000000E+00  0.00000000000E+00  0.37920283142E+04  0.37920283142E+04  0.00000000000E+00 0. -1.
         -2   -1    0    0    0  501 -0.00000000000E+00 -0.00000000000E+00 -0.24335343937E+03  0.24335343937E+03  0.00000000000E+00 0.  1.
        -24    2    1    2    0    0 -0.69611575035E+03 -0.37815770053E+03  0.87646988563E+03  0.11844252600E+04  0.84162651269E+02 0.  0.
    5000000    2    1    2    0    0  0.69611575035E+03  0.37815770053E+03  0.26722049892E+04  0.28509564936E+04  0.59974414483E+03 0.  0.
        -24    2    4    4    0    0  0.45850537512E+03 -0.56979164348E+02  0.15957580868E+04  0.16631264491E+04  0.77922460713E+02 0.  0.
         24    2    4    4    0    0  0.23761037523E+03  0.43513686487E+03  0.10764469025E+04  0.11878300445E+04  0.79996869788E+02 0.  0.
         11    1    5    5    0    0  0.75430361916E+02  0.65069349548E+01  0.35683876713E+03  0.36478210678E+03  0.00000000000E+00 0. -1.
        -12    1    5    5    0    0  0.38307501320E+03 -0.63486099303E+02  0.12389193196E+04  0.12983443423E+04  0.00000000000E+00 0.  1.
         15    1    3    3    0    0 -0.47893198404E+03 -0.21824352761E+03  0.60166539272E+03  0.79938131402E+03  0.17770000000E+01 0. -1.
        -16    1    3    3    0    0 -0.21718376631E+03 -0.15991417291E+03  0.27480449291E+03  0.38504394603E+03  0.00000000000E+00 0.  1.
          4    1    6    6  502    0  0.14572694946E+02  0.73548187136E+02  0.12363866124E+03  0.14459674209E+03  0.00000000000E+00 0. -1.
         -3    1    6    6    0  502  0.22303768029E+03  0.36158867774E+03  0.95280824124E+03  0.10432333024E+04  0.00000000000E+00 0.  1.
<mgrwt>
<rscale>  0 0.87992748E+03</rscale>
<asrwt>0</asrwt>
<pdfrwt beam="1">  1        1 0.58338893E+00 0.87992748E+03</pdfrwt>
<pdfrwt beam="2">  1       -2 0.37438993E-01 0.87992748E+03</pdfrwt>
<totfact> 0.91293129E-01</totfact>
</mgrwt>
</event>
<event>
12    3  0.1176505E-007  0.1152278E+04  0.7818608E-02  0.9155684E-01
          1   -1    0    0  501    0  0.00000000000E+00  0.00000000000E+00  0.14614106397E+04  0.14614106397E+04  0.00000000000E+00 0. -1.
         -2   -1    0    0    0  501 -0.00000000000E+00 -0.00000000000E+00 -0.94720144177E+03  0.94720144177E+03  0.00000000000E+00 0.  1.
        -24    2    1    2    0    0  0.84848610015E+03 -0.68758063240E+03  0.36191798626E+03  0.11530933838E+04  0.77096917382E+02 0.  0.
    5000000    2    1    2    0    0 -0.84848610015E+03  0.68758063240E+03  0.15229121171E+03  0.12555186978E+04  0.60036555452E+03 0.  0.
        -24    2    4    4    0    0 -0.83557720709E+03  0.75820406840E+03  0.10815156348E+03  0.11363009014E+04  0.80126771336E+02 0.  0.
         24    2    4    4    0    0 -0.12908893056E+02 -0.70623435998E+02  0.44139648227E+02  0.11921779636E+03  0.84322388433E+02 0.  0.
         13    1    5    5    0    0 -0.48414586153E+03  0.46233862540E+03  0.99740586908E+02  0.67683262661E+03  0.00000000000E+00 0. -1.
        -14    1    5    5    0    0 -0.35143134557E+03  0.29586544300E+03  0.84109765713E+01  0.45946827479E+03  0.00000000000E+00 0.  1.
         15    1    3    3    0    0  0.15880531588E+03 -0.15965805736E+03  0.53931039120E+02  0.23156324911E+03  0.17770000000E+01 0. -1.
        -16    1    3    3    0    0  0.68968078428E+03 -0.52792257504E+03  0.30798694714E+03  0.92153013464E+03  0.00000000000E+00 0.  1.
          4    1    6    6  502    0 -0.24821386885E+02 -0.63326133273E+02  0.65019989359E+02  0.94095161504E+02  0.00000000000E+00 0. -1.
         -3    1    6    6    0  502  0.11912493829E+02 -0.72973027251E+01 -0.20880341132E+02  0.25122634855E+02  0.00000000000E+00 0.  1.
<mgrwt>
<rscale>  0 0.11522784E+04</rscale>
<asrwt>0</asrwt>
<pdfrwt beam="1">  1        1 0.22483241E+00 0.11522784E+04</pdfrwt>
<pdfrwt beam="2">  1       -2 0.14572330E+00 0.11522784E+04</pdfrwt>
<totfact> 0.19364748E+00</totfact>
</mgrwt>
</event>
<event>
12    3  0.1176505E-007  0.4189540E+03  0.7818608E-02  0.1037407E+00
          1   -1    0    0  501    0  0.00000000000E+00  0.00000000000E+00  0.95965256336E+03  0.95965256336E+03  0.00000000000E+00 0. -1.
         -2   -1    0    0    0  501 -0.00000000000E+00 -0.00000000000E+00 -0.25617750776E+03  0.25617750776E+03  0.00000000000E+00 0.  1.
        -24    2    1    2    0    0 -0.23833380992E+03  0.82287608513E+02  0.10176735284E+02  0.26492519930E+03  0.80669323886E+02 0.  0.
    5000000    2    1    2    0    0  0.23833380992E+03 -0.82287608513E+02  0.69329832032E+03  0.95090487183E+03  0.59998604887E+03 0.  0.
        -24    2    4    4    0    0 -0.10588809116E+03  0.12520562319E+03  0.42078596044E+03  0.45848049473E+03  0.79087316393E+02 0.  0.
         24    2    4    4    0    0  0.34422190108E+03 -0.20749323170E+03  0.27251235987E+03  0.49242437710E+03  0.81710602075E+02 0.  0.
         11    1    5    5    0    0 -0.81279446071E+02  0.36430563379E+02  0.22914196196E+03  0.24584461156E+03  0.00000000000E+00 0. -1.
        -12    1    5    5    0    0 -0.24608645088E+02  0.88775059808E+02  0.19164399848E+03  0.21263588317E+03  0.00000000000E+00 0.  1.
         15    1    3    3    0    0 -0.99348890920E+02  0.18730212835E+02  0.40841285579E+02  0.10905132432E+03  0.17770000000E+01 0. -1.
        -16    1    3    3    0    0 -0.13898491900E+03  0.63557395678E+02 -0.30664550295E+02  0.15587387498E+03  0.00000000000E+00 0.  1.
          2    1    6    6  502    0  0.22079078362E+03 -0.11829017652E+03  0.21341192828E+03  0.32906805850E+03  0.00000000000E+00 0. -1.
         -1    1    6    6    0  502  0.12343111746E+03 -0.89203055179E+02  0.59100431591E+02  0.16335631860E+03  0.00000000000E+00 0.  1.
<mgrwt>
<rscale>  0 0.41895403E+03</rscale>
<asrwt>0</asrwt>
<pdfrwt beam="1">  1        1 0.14763885E+00 0.41895403E+03</pdfrwt>
<pdfrwt beam="2">  1       -2 0.39411925E-01 0.41895403E+03</pdfrwt>
<totfact> 0.91409365E+01</totfact>
</mgrwt>
</event>
<event>
12    3  0.1176505E-007  0.5128212E+03  0.7818608E-02  0.1010486E+00
         -2   -1    0    0    0  501 -0.00000000000E+00  0.00000000000E+00  0.78017323681E+03  0.78017323681E+03  0.00000000000E+00 0.  1.
          1   -1    0    0  501    0  0.00000000000E+00 -0.00000000000E+00 -0.39945794291E+03  0.39945794291E+03  0.00000000000E+00 0. -1.
        -24    2    1    2    0    0  0.68538450331E+01  0.38663029785E+03  0.69309296068E+02  0.40085657010E+03  0.79700996617E+02 0.  0.
    5000000    2    1    2    0    0 -0.68538450331E+01 -0.38663029785E+03  0.31140599783E+03  0.77877460962E+03  0.59998852881E+03 0.  0.
        -24    2    4    4    0    0 -0.13015582493E+03 -0.44835146140E+03  0.55514080552E+02  0.47713753905E+03  0.81356292487E+02 0.  0.
         24    2    4    4    0    0  0.12330197990E+03  0.61721163554E+02  0.25589191728E+03  0.30163707057E+03  0.80569030869E+02 0.  0.
         13    1    5    5    0    0 -0.43824642423E+02 -0.27068029985E+03  0.97913080112E+01  0.27437983476E+03  0.00000000000E+00 0. -1.
        -14    1    5    5    0    0 -0.86331182511E+02 -0.17767116156E+03  0.45722772541E+02  0.20275770430E+03  0.00000000000E+00 0.  1.
         15    1    3    3    0    0  0.33853900115E+02  0.32874946038E+03  0.50912677004E+02  0.33439131667E+03  0.17770000000E+01 0. -1.
        -16    1    3    3    0    0 -0.27000055082E+02  0.57880837466E+02  0.18396619064E+02  0.66465253427E+02  0.00000000000E+00 0.  1.
          4    1    6    6  502    0  0.46604494226E+02  0.68164251043E+02  0.12569578454E+03  0.15039206845E+03  0.00000000000E+00 0. -1.
         -3    1    6    6    0  502  0.76697485675E+02 -0.64430874888E+01  0.13019613274E+03  0.15124500212E+03  0.00000000000E+00 0.  1.
<mgrwt>
<rscale>  0 0.51282120E+03</rscale>
<asrwt>0</asrwt>
<pdfrwt beam="1">  1        1 0.61455068E-01 0.51282120E+03</pdfrwt>
<pdfrwt beam="2">  1       -2 0.12002665E+00 0.51282120E+03</pdfrwt>
<totfact> 0.28960894E+01</totfact>
</mgrwt>
</event>
<event>
12    3  0.1176505E-007  0.5639885E+03  0.7818608E-02  0.9983070E-01
          1   -1    0    0  501    0  0.00000000000E+00  0.00000000000E+00  0.19662837780E+04  0.19662837780E+04  0.00000000000E+00 0. -1.
         -2   -1    0    0    0  501 -0.00000000000E+00 -0.00000000000E+00 -0.28692449526E+03  0.28692449526E+03  0.00000000000E+00 0.  1.
        -24    2    1    2    0    0  0.43232707250E+03 -0.56610877806E+02  0.29548821545E+02  0.44427348660E+03  0.79964422943E+02 0.  0.
    5000000    2    1    2    0    0 -0.43232707250E+03  0.56610877806E+02  0.16498104612E+04  0.18089347867E+04  0.60021580736E+03 0.  0.
        -24    2    4    4    0    0 -0.23436700350E+03 -0.23218208308E+03  0.50123141544E+03  0.60520570847E+03  0.78769319556E+02 0.  0.
         24    2    4    4    0    0 -0.19796006900E+03  0.28879296088E+03  0.11485790457E+04  0.12037290782E+04  0.84500332317E+02 0.  0.
         13    1    5    5    0    0 -0.10525901693E+03 -0.65444352244E+02  0.14050018381E+03  0.18735721373E+03  0.00000000000E+00 0. -1.
        -14    1    5    5    0    0 -0.12910798657E+03 -0.16673773083E+03  0.36073123163E+03  0.41784849474E+03  0.00000000000E+00 0.  1.
         15    1    3    3    0    0  0.31417821626E+03 -0.62336673370E+02  0.50136517932E+02  0.32420771209E+03  0.17770000000E+01 0. -1.
        -16    1    3    3    0    0  0.11814885624E+03  0.57257955637E+01 -0.20587696387E+02  0.12006577451E+03  0.00000000000E+00 0.  1.
          2    1    6    6  502    0 -0.15392477947E+03  0.17793906290E+03  0.65605667215E+03  0.69696879766E+03  0.00000000000E+00 0. -1.
         -1    1    6    6    0  502 -0.44035289533E+02  0.11085389798E+03  0.49252237360E+03  0.50676028053E+03  0.00000000000E+00 0.  1.
<mgrwt>
<rscale>  0 0.56398848E+03</rscale>
<asrwt>0</asrwt>
<pdfrwt beam="1">  1        1 0.30250519E+00 0.56398848E+03</pdfrwt>
<pdfrwt beam="2">  1       -2 0.44142231E-01 0.56398848E+03</pdfrwt>
<totfact> 0.14377701E+01</totfact>
</mgrwt>
</event>
<event>
12    3  0.1176505E-007  0.7189994E+03  0.7818608E-02  0.9685281E-01
         -2   -1    0    0    0  501 -0.00000000000E+00  0.00000000000E+00  0.25378989115E+03  0.25378989115E+03  0.00000000000E+00 0.  1.
          1   -1    0    0  501    0  0.00000000000E+00 -0.00000000000E+00 -0.23587800604E+04  0.23587800604E+04  0.00000000000E+00 0. -1.
        -24    2    1    2    0    0 -0.56621761057E+03  0.29940197618E+03 -0.11275244019E+04  0.12989674469E+04  0.75902735027E+02 0.  0.
    5000000    2    1    2    0    0  0.56621761057E+03 -0.29940197618E+03 -0.97746576730E+03  0.13136025047E+04  0.59989023013E+03 0.  0.
        -24    2    4    4    0    0  0.16669117006E+03  0.12098317639E+03 -0.65612601235E+02  0.22992802090E+03  0.78351810501E+02 0.  0.
         24    2    4    4    0    0  0.39952644051E+03 -0.42038515257E+03 -0.91185316606E+03  0.10836744838E+04  0.80803076531E+02 0.  0.
         11    1    5    5    0    0  0.78545315133E+02  0.24966494117E+02  0.33130131886E+01  0.82484352542E+02  0.00000000000E+00 0. -1.
        -12    1    5    5    0    0  0.88145854929E+02  0.96016682270E+02 -0.68925614424E+02  0.14744366836E+03  0.00000000000E+00 0.  1.
         15    1    3    3    0    0 -0.49418652924E+03  0.23048955149E+03 -0.95409156393E+03  0.10989265804E+04  0.17770000000E+01 0. -1.
        -16    1    3    3    0    0 -0.72031081329E+02  0.68912424685E+02 -0.17343283802E+03  0.20004086646E+03  0.00000000000E+00 0.  1.
          4    1    6    6  502    0  0.26971729947E+03 -0.29638428143E+03 -0.55927761555E+03  0.68802799011E+03  0.00000000000E+00 0. -1.
         -3    1    6    6    0  502  0.12980914104E+03 -0.12400087114E+03 -0.35257555051E+03  0.39564649367E+03  0.00000000000E+00 0.  1.
<mgrwt>
<rscale>  0 0.71899938E+03</rscale>
<asrwt>0</asrwt>
<pdfrwt beam="1">  1        1 0.36288925E+00 0.71899938E+03</pdfrwt>
<pdfrwt beam="2">  1       -2 0.39044598E-01 0.71899938E+03</pdfrwt>
<totfact> 0.97270514E+00</totfact>
</mgrwt>
</event>
<event>
12    3  0.1176505E-007  0.9572446E+03  0.7818608E-02  0.9356723E-01
          1   -1    0    0  501    0  0.00000000000E+00  0.00000000000E+00  0.15377992376E+04  0.15377992376E+04  0.00000000000E+00 0. -1.
         -2   -1    0    0    0  501 -0.00000000000E+00 -0.00000000000E+00 -0.88317760481E+03  0.88317760481E+03  0.00000000000E+00 0.  1.
        -24    2    1    2    0    0 -0.50457082329E+03 -0.78606810480E+03 -0.27042517489E+03  0.97576023618E+03  0.80520073178E+02 0.  0.
    5000000    2    1    2    0    0  0.50457082329E+03  0.78606810480E+03  0.92504680765E+03  0.14452166062E+04  0.60037043681E+03 0.  0.
        -24    2    4    4    0    0  0.12879068628E+03  0.30455116742E+02 -0.29796689098E+02  0.16832956454E+03  0.99661650631E+02 0.  0.
         24    2    4    4    0    0  0.37578013700E+03  0.75561298806E+03  0.95484349675E+03  0.12768870417E+04  0.80948840621E+02 0.  0.
         13    1    5    5    0    0  0.63341193154E+02  0.17205366799E+02 -0.65397597719E+02  0.92655151958E+02  0.00000000000E+00 0. -1.
        -14    1    5    5    0    0  0.65449493129E+02  0.13249749943E+02  0.35600908621E+02  0.75674412578E+02  0.00000000000E+00 0.  1.
         15    1    3    3    0    0 -0.20353972167E+03 -0.34306149284E+03 -0.15433249308E+03  0.42771635732E+03  0.17770000000E+01 0. -1.
        -16    1    3    3    0    0 -0.30103110162E+03 -0.44300661196E+03 -0.11609268181E+03  0.54804387886E+03  0.00000000000E+00 0.  1.
          4    1    6    6  502    0  0.37053126492E+03  0.75638100354E+03  0.95086700117E+03  0.12702573341E+04  0.00000000000E+00 0. -1.
         -3    1    6    6    0  502  0.52488720844E+01 -0.76801548074E+00  0.39764955753E+01  0.66297076102E+01  0.00000000000E+00 0.  1.
<mgrwt>
<rscale>  0 0.95724460E+03</rscale>
<asrwt>0</asrwt>
<pdfrwt beam="1">  1        1 0.23658450E+00 0.95724460E+03</pdfrwt>
<pdfrwt beam="2">  1       -2 0.13587348E+00 0.95724460E+03</pdfrwt>
<totfact> 0.21058928E+00</totfact>
</mgrwt>
</event>
<event>
12    3  0.1176505E-007  0.1133079E+04  0.7818608E-02  0.9173537E-01
         -2   -1    0    0    0  501 -0.00000000000E+00  0.00000000000E+00  0.28206673799E+04  0.28206673799E+04  0.00000000000E+00 0.  1.
          1   -1    0    0  501    0  0.00000000000E+00 -0.00000000000E+00 -0.45980702539E+03  0.45980702539E+03  0.00000000000E+00 0. -1.
        -24    2    1    2    0    0 -0.10244895871E+04  0.26375230750E+03  0.11334572815E+04  0.15525140769E+04  0.80189501698E+02 0.  0.
    5000000    2    1    2    0    0  0.10244895871E+04 -0.26375230750E+03  0.12274030731E+04  0.17279603285E+04  0.60015364632E+03 0.  0.
        -24    2    4    4    0    0  0.10249481231E+03  0.14947990353E+03  0.26702869942E+03  0.33143422156E+03  0.75464487020E+02 0.  0.
         24    2    4    4    0    0  0.92199477478E+03 -0.41323221102E+03  0.96037437365E+03  0.13965261069E+04  0.84445276554E+02 0.  0.
         11    1    5    5    0    0  0.81646153849E+02  0.59151995463E+02  0.16683324148E+03  0.19493174054E+03  0.00000000000E+00 0. -1.
        -12    1    5    5    0    0  0.20848658460E+02  0.90327908065E+02  0.10019545793E+03  0.13650248102E+03  0.00000000000E+00 0.  1.
         15    1    3    3    0    0 -0.21710718913E+03  0.77182497335E+02  0.28553590031E+03  0.36691494595E+03  0.17770000000E+01 0. -1.
        -16    1    3    3    0    0 -0.80738239796E+03  0.18656981016E+03  0.84792138117E+03  0.11855991309E+04  0.00000000000E+00 0.  1.
          2    1    6    6  502    0  0.51963303260E+03 -0.27631855190E+03  0.53985763926E+03  0.79863427260E+03  0.00000000000E+00 0. -1.
         -1    1    6    6    0  502  0.40236174218E+03 -0.13691365912E+03  0.42051673439E+03  0.59789183430E+03  0.00000000000E+00 0.  1.
<mgrwt>
<rscale>  0 0.11330794E+04</rscale>
<asrwt>0</asrwt>
<pdfrwt beam="1">  1        1 0.70739544E-01 0.11330794E+04</pdfrwt>
<pdfrwt beam="2">  1       -2 0.43394882E+00 0.11330794E+04</pdfrwt>
<totfact> 0.19401415E-01</totfact>
</mgrwt>
</event>
<event>
12    3  0.1176505E-007  0.5747607E+03  0.7818608E-02  0.9959199E-01
          1   -1    0    0  501    0  0.00000000000E+00  0.00000000000E+00  0.15980017861E+04  0.15980017861E+04  0.00000000000E+00 0. -1.
         -2   -1    0    0    0  501 -0.00000000000E+00 -0.00000000000E+00 -0.21741735548E+03  0.21741735548E+03  0.00000000000E+00 0.  1.
        -24    2    1    2    0    0  0.13666983656E+03 -0.41001537365E+03  0.50290098960E+03  0.66775612001E+03  0.78724707787E+02 0.  0.
    5000000    2    1    2    0    0 -0.13666983656E+03  0.41001537365E+03  0.87768344100E+03  0.11476630215E+04  0.60000911455E+03 0.  0.
        -24    2    4    4    0    0  0.28788042844E+01 -0.13819965481E+03  0.26845251777E+03  0.31244370506E+03  0.80292480561E+02 0.  0.
         24    2    4    4    0    0 -0.13954864084E+03  0.54821502847E+03  0.60923092323E+03  0.83521931647E+03  0.80096492971E+02 0.  0.
         11    1    5    5    0    0 -0.96609209699E+01 -0.71506589302E+02  0.62034360672E+02  0.95156647753E+02  0.00000000000E+00 0. -1.
        -12    1    5    5    0    0  0.12539725254E+02 -0.66693065510E+02  0.20641815709E+03  0.21728705731E+03  0.00000000000E+00 0.  1.
         15    1    3    3    0    0  0.67882954283E+02 -0.31231697292E+03  0.35684388635E+03  0.47905188029E+03  0.17770000000E+01 0. -1.
        -16    1    3    3    0    0  0.68786882277E+02 -0.97698400736E+02  0.14605710325E+03  0.18870423972E+03  0.00000000000E+00 0.  1.
          4    1    6    6  502    0 -0.87882058608E+02  0.45875329007E+03  0.47983789637E+03  0.66964337089E+03  0.00000000000E+00 0. -1.
         -3    1    6    6    0  502 -0.51666582236E+02  0.89461738398E+02  0.12939302686E+03  0.16557594559E+03  0.00000000000E+00 0.  1.
<mgrwt>
<rscale>  0 0.57476066E+03</rscale>
<asrwt>0</asrwt>
<pdfrwt beam="1">  1        1 0.24584642E+00 0.57476066E+03</pdfrwt>
<pdfrwt beam="2">  1       -2 0.33448825E-01 0.57476066E+03</pdfrwt>
<totfact> 0.43114972E+01</totfact>
</mgrwt>
</event>
<event>
12    3  0.1176505E-007  0.4029738E+03  0.7818608E-02  0.1042755E+00
         -2   -1    0    0    0  501 -0.00000000000E+00  0.00000000000E+00  0.21319105432E+03  0.21319105432E+03  0.00000000000E+00 0.  1.
          1   -1    0    0  501    0  0.00000000000E+00 -0.00000000000E+00 -0.89490123989E+03  0.89490123989E+03  0.00000000000E+00 0. -1.
        -24    2    1    2    0    0 -0.20276009884E+03 -0.60892378125E+02 -0.10247713332E+03  0.24770917115E+03  0.77709273723E+02 0.  0.
    5000000    2    1    2    0    0  0.20276009884E+03  0.60892378125E+02 -0.57923305225E+03  0.86038312307E+03  0.59994053892E+03 0.  0.
        -24    2    4    4    0    0 -0.11191958870E+03  0.20452651995E+03 -0.10445579061E+03  0.26758098463E+03  0.79570594121E+02 0.  0.
         24    2    4    4    0    0  0.31467968754E+03 -0.14363414182E+03 -0.47477726164E+03  0.59280213844E+03  0.79667149519E+02 0.  0.
         13    1    5    5    0    0 -0.10204468493E+03  0.12046227071E+03 -0.89961244571E+02  0.18170663695E+03  0.00000000000E+00 0. -1.
        -14    1    5    5    0    0 -0.98749037615E+01  0.84064249240E+02 -0.14494546037E+02  0.85874347680E+02  0.00000000000E+00 0.  1.
         15    1    3    3    0    0 -0.35918897286E+02 -0.19509808879E+02  0.10209938511E+02  0.42168713499E+02  0.17770000000E+01 0. -1.
        -16    1    3    3    0    0 -0.16684120156E+03 -0.41382569246E+02 -0.11268707183E+03  0.20554045765E+03  0.00000000000E+00 0.  1.
          4    1    6    6  502    0  0.27097811273E+03 -0.14411224622E+03 -0.38023700513E+03  0.48864880759E+03  0.00000000000E+00 0. -1.
         -3    1    6    6    0  502  0.43701574811E+02  0.47810439490E+00 -0.94540256512E+02  0.10415333084E+03  0.00000000000E+00 0.  1.
<mgrwt>
<rscale>  0 0.40297379E+03</rscale>
<asrwt>0</asrwt>
<pdfrwt beam="1">  1        1 0.13767712E+00 0.40297379E+03</pdfrwt>
<pdfrwt beam="2">  1       -2 0.32798623E-01 0.40297379E+03</pdfrwt>
<totfact> 0.14588242E+02</totfact>
</mgrwt>
</event>
<event>
12    3  0.1176505E-007  0.8375536E+03  0.7818608E-02  0.9507196E-01
         -2   -1    0    0    0  501 -0.00000000000E+00  0.00000000000E+00  0.77616960584E+03  0.77616960584E+03  0.00000000000E+00 0.  1.
          1   -1    0    0  501    0  0.00000000000E+00 -0.00000000000E+00 -0.10761009957E+04  0.10761009957E+04  0.00000000000E+00 0. -1.
        -24    2    1    2    0    0  0.18325535166E+03  0.73231428753E+03  0.17266368543E+03  0.77851987747E+03  0.80085652397E+02 0.  0.
    5000000    2    1    2    0    0 -0.18325535166E+03 -0.73231428753E+03 -0.47259507531E+03  0.10737507241E+04  0.59977310096E+03 0.  0.
        -24    2    4    4    0    0  0.18214209848E+03 -0.17866216038E+03 -0.23055914847E+02  0.26852406628E+03  0.80484081454E+02 0.  0.
         24    2    4    4    0    0 -0.36539745014E+03 -0.55365212715E+03 -0.44953916046E+03  0.80522665781E+03  0.79110929653E+02 0.  0.
         13    1    5    5    0    0  0.15751822489E+03 -0.15234997566E+03 -0.48457846680E+02  0.22443410873E+03  0.00000000000E+00 0. -1.
        -14    1    5    5    0    0  0.24623873590E+02 -0.26312184723E+02  0.25401931833E+02  0.44089957546E+02  0.00000000000E+00 0.  1.
         15    1    3    3    0    0  0.10678904771E+03  0.32687086411E+03  0.46103010675E+02  0.34695404283E+03  0.17770000000E+01 0. -1.
        -16    1    3    3    0    0  0.76466303951E+02  0.40544342342E+03  0.12656067476E+03  0.43156583464E+03  0.00000000000E+00 0.  1.
          2    1    6    6  502    0 -0.78026715893E+02 -0.12702942835E+03 -0.63224134693E+02  0.16193188465E+03  0.00000000000E+00 0. -1.
         -1    1    6    6    0  502 -0.28737073425E+03 -0.42662269879E+03 -0.38631502577E+03  0.64329477315E+03  0.00000000000E+00 0.  1.
<mgrwt>
<rscale>  0 0.83755361E+03</rscale>
<asrwt>0</asrwt>
<pdfrwt beam="1">  1        1 0.16555400E+00 0.83755361E+03</pdfrwt>
<pdfrwt beam="2">  1       -2 0.11941071E+00 0.83755361E+03</pdfrwt>
<totfact> 0.63216936E+00</totfact>
</mgrwt>
</event>
<event>
12    3  0.1176505E-007  0.4545389E+03  0.7818608E-02  0.1026377E+00
         -2   -1    0    0    0  501 -0.00000000000E+00  0.00000000000E+00  0.18160517475E+03  0.18160517475E+03  0.00000000000E+00 0.  1.
          1   -1    0    0  501    0  0.00000000000E+00 -0.00000000000E+00 -0.19545439727E+04  0.19545439727E+04  0.00000000000E+00 0. -1.
        -24    2    1    2    0    0  0.43397565498E+03 -0.68428483414E+02 -0.66381691415E+03  0.80070241132E+03  0.86337300831E+02 0.  0.
    5000000    2    1    2    0    0 -0.43397565498E+03  0.68428483414E+02 -0.11091218838E+04  0.13354467362E+04  0.60020771863E+03 0.  0.
        -24    2    4    4    0    0 -0.32293616217E+03  0.10166507364E+03 -0.11398104529E+04  0.11917882883E+04  0.81042602982E+02 0.  0.
         24    2    4    4    0    0 -0.11103949281E+03 -0.33236590228E+02  0.30688569118E+02  0.14365844785E+03  0.79129776128E+02 0.  0.
         13    1    5    5    0    0 -0.16175368464E+03  0.59744466704E+02 -0.71497179689E+03  0.73547149921E+03  0.00000000000E+00 0. -1.
        -14    1    5    5    0    0 -0.16118247753E+03  0.41920606937E+02 -0.42483865605E+03  0.45631678911E+03  0.00000000000E+00 0.  1.
         15    1    3    3    0    0  0.28861334272E+03 -0.55869302964E+02 -0.51023103099E+03  0.58886153153E+03  0.17770000000E+01 0. -1.
        -16    1    3    3    0    0  0.14536231226E+03 -0.12559180450E+02 -0.15358588317E+03  0.21184087978E+03  0.00000000000E+00 0.  1.
          4    1    6    6  502    0 -0.27643523193E+01  0.12410339158E+02 -0.13104779308E+02  0.18259063571E+02  0.00000000000E+00 0. -1.
         -3    1    6    6    0  502 -0.10827514049E+03 -0.45646929386E+02  0.43793348427E+02  0.12539938428E+03  0.00000000000E+00 0.  1.
<mgrwt>
<rscale>  0 0.45453893E+03</rscale>
<asrwt>0</asrwt>
<pdfrwt beam="1">  1        1 0.30069907E+00 0.45453893E+03</pdfrwt>
<pdfrwt beam="2">  1       -2 0.27939258E-01 0.45453893E+03</pdfrwt>
<totfact> 0.35580731E+01</totfact>
</mgrwt>
</event>
<event>
12    3  0.1176505E-007  0.8482499E+03  0.7818608E-02  0.9492689E-01
          1   -1    0    0  501    0  0.00000000000E+00  0.00000000000E+00  0.17447772016E+04  0.17447772016E+04  0.00000000000E+00 0. -1.
         -2   -1    0    0    0  501 -0.00000000000E+00 -0.00000000000E+00 -0.47928900726E+03  0.47928900726E+03  0.00000000000E+00 0.  1.
        -24    2    1    2    0    0  0.61036255172E+03 -0.43851245328E+03  0.94810095702E+03  0.12117963250E+04  0.68697105203E+02 0.  0.
    5000000    2    1    2    0    0 -0.61036255172E+03  0.43851245328E+03  0.31738723729E+03  0.10122698839E+04  0.59926625398E+03 0.  0.
        -24    2    4    4    0    0 -0.69411647430E+03  0.29338354908E+03  0.32701105443E+03  0.82533365593E+03  0.79798666146E+02 0.  0.
         24    2    4    4    0    0  0.83753922584E+02  0.14512890420E+03 -0.96238171404E+01  0.18693622793E+03  0.82312921688E+02 0.  0.
         11    1    5    5    0    0 -0.51538730299E+03  0.24863109053E+03  0.26793933566E+03  0.63184885760E+03  0.00000000000E+00 0. -1.
        -12    1    5    5    0    0 -0.17872917131E+03  0.44752458557E+02  0.59071718772E+02  0.19348479833E+03  0.00000000000E+00 0.  1.
         15    1    3    3    0    0  0.15694000603E+03 -0.14149106048E+03  0.29898972409E+03  0.36612552291E+03  0.17770000000E+01 0. -1.
        -16    1    3    3    0    0  0.45342254568E+03 -0.29702139280E+03  0.64911123293E+03  0.84567080205E+03  0.00000000000E+00 0.  1.
          4    1    6    6  502    0  0.10057513007E+03  0.12493439121E+03 -0.91934674525E+01  0.16065017504E+03  0.00000000000E+00 0. -1.
         -3    1    6    6    0  502 -0.16821207487E+02  0.20194512988E+02 -0.43034968784E+00  0.26286052899E+02  0.00000000000E+00 0.  1.
<mgrwt>
<rscale>  0 0.84824992E+03</rscale>
<asrwt>0</asrwt>
<pdfrwt beam="1">  1        1 0.26842726E+00 0.84824992E+03</pdfrwt>
<pdfrwt beam="2">  1       -2 0.73736771E-01 0.84824992E+03</pdfrwt>
<totfact> 0.66165333E+00</totfact>
</mgrwt>
</event>
<event>
12    3  0.1176505E-007  0.9202007E+03  0.7818608E-02  0.9400676E-01
          1   -1    0    0  501    0  0.00000000000E+00  0.00000000000E+00  0.34225971863E+04  0.34225971863E+04  0.00000000000E+00 0. -1.
         -2   -1    0    0    0  501 -0.00000000000E+00 -0.00000000000E+00 -0.30359148072E+03  0.30359148072E+03  0.00000000000E+00 0.  1.
        -24    2    1    2    0    0 -0.57573625627E+03 -0.68160543433E+03  0.95281244308E+03  0.13078302658E+04  0.80686105474E+02 0.  0.
    5000000    2    1    2    0    0  0.57573625627E+03  0.68160543433E+03  0.21661932625E+04  0.24183584011E+04  0.60000491764E+03 0.  0.
        -24    2    4    4    0    0 -0.54364556571E+01  0.63308777485E+02  0.81049528783E+03  0.81701998598E+03  0.81126380028E+02 0.  0.
         24    2    4    4    0    0  0.58117271193E+03  0.61829665685E+03  0.13556979746E+04  0.16013384152E+04  0.79468512796E+02 0.  0.
         13    1    5    5    0    0  0.14862569460E+02 -0.12956478149E+02  0.27917255950E+03  0.27986797651E+03  0.00000000000E+00 0. -1.
        -14    1    5    5    0    0 -0.20299025117E+02  0.76265255634E+02  0.53132272833E+03  0.53715200947E+03  0.00000000000E+00 0.  1.
         15    1    3    3    0    0 -0.27566709519E+03 -0.35489983010E+03  0.53184228964E+03  0.69627983997E+03  0.17770000000E+01 0. -1.
        -16    1    3    3    0    0 -0.30006916108E+03 -0.32670560423E+03  0.42097015344E+03  0.61155042585E+03  0.00000000000E+00 0.  1.
          4    1    6    6  502    0  0.30175930509E+03  0.33512293114E+03  0.79221530648E+03  0.91157618936E+03  0.00000000000E+00 0. -1.
         -3    1    6    6    0  502  0.27941340684E+03  0.28317372570E+03  0.56348266815E+03  0.68976222581E+03  0.00000000000E+00 0.  1.
<mgrwt>
<rscale>  0 0.92020073E+03</rscale>
<asrwt>0</asrwt>
<pdfrwt beam="1">  1        1 0.52655339E+00 0.92020073E+03</pdfrwt>
<pdfrwt beam="2">  1       -2 0.46706384E-01 0.92020073E+03</pdfrwt>
<totfact> 0.11504689E+00</totfact>
</mgrwt>
</event>
<event>
12    3  0.1674974E-007  0.9021188E+03  0.7818608E-02  0.9422937E-01
          1   -1    0    0  501    0  0.00000000000E+00  0.00000000000E+00  0.79937484602E+03  0.79937484602E+03  0.00000000000E+00 0. -1.
         -2   -1    0    0    0  501 -0.00000000000E+00 -0.00000000000E+00 -0.12373245029E+04  0.12373245029E+04  0.00000000000E+00 0.  1.
        -24    2    1    2    0    0 -0.60884360485E+03 -0.64432579344E+03 -0.28134170357E+02  0.89050884323E+03  0.79801034368E+02 0.  0.
    5000000    2    1    2    0    0  0.60884360485E+03  0.64432579344E+03 -0.40981548649E+03  0.11461905056E+04  0.59996473148E+03 0.  0.
        -24    2    4    4    0    0  0.40808809979E+03  0.28991545635E+03 -0.50862581460E+03  0.71863443552E+03  0.84547995932E+02 0.  0.
         24    2    4    4    0    0  0.20075550505E+03  0.35441033709E+03  0.98810328112E+02  0.42755607013E+03  0.84446742478E+02 0.  0.
         13    1    5    5    0    0  0.10908789407E+03  0.94338357957E+02 -0.19957747971E+03  0.24623376053E+03  0.00000000000E+00 0. -1.
        -14    1    5    5    0    0  0.29900020572E+03  0.19557709839E+03 -0.30904833489E+03  0.47240067499E+03  0.00000000000E+00 0.  1.
         15    1    3    3    0    0 -0.34018220180E+03 -0.34419512813E+03  0.22877232916E+02  0.48447986766E+03  0.17770000000E+01 0. -1.
        -16    1    3    3    0    0 -0.26866140304E+03 -0.30013066531E+03 -0.51011403272E+02  0.40602897557E+03  0.00000000000E+00 0.  1.
          4    1    6    6  502    0  0.57179666279E+02  0.18643553889E+03  0.46663632873E+02  0.20051239122E+03  0.00000000000E+00 0. -1.
         -3    1    6    6    0  502  0.14357583877E+03  0.16797479820E+03  0.52146695239E+02  0.22704367891E+03  0.00000000000E+00 0.  1.
<mgrwt>
<rscale>  0 0.90211878E+03</rscale>
<asrwt>0</asrwt>
<pdfrwt beam="1">  1        1 0.12298075E+00 0.90211878E+03</pdfrwt>
<pdfrwt beam="2">  1       -2 0.19035762E+00 0.90211878E+03</pdfrwt>
<totfact> 0.30124013E+00</totfact>
</mgrwt>
</event>
<event>
12    3  0.1176505E-007  0.1015067E+04  0.7818608E-02  0.9292172E-01
          1   -1    0    0  501    0  0.00000000000E+00  0.00000000000E+00  0.29578262276E+04  0.29578262276E+04  0.00000000000E+00 0. -1.
         -2   -1    0    0    0  501 -0.00000000000E+00 -0.00000000000E+00 -0.46368101954E+03  0.46368101954E+03  0.00000000000E+00 0.  1.
        -24    2    1    2    0    0  0.31481864331E+03  0.91024486952E+03  0.41273377497E+03  0.10509089250E+04  0.80024364924E+02 0.  0.
    5000000    2    1    2    0    0 -0.31481864331E+03 -0.91024486952E+03  0.20814114331E+04  0.23705983222E+04  0.59983860371E+03 0.  0.
        -24    2    4    4    0    0  0.96842560442E+02 -0.75472235778E+02  0.93189648592E+02  0.17385836561E+03  0.80423135992E+02 0.  0.
         24    2    4    4    0    0 -0.41166120376E+03 -0.83477263374E+03  0.19882217845E+04  0.21967399566E+04  0.79563028808E+02 0.  0.
         13    1    5    5    0    0  0.96859770505E+02 -0.52760350783E+02  0.10128500305E+03  0.14974685840E+03  0.00000000000E+00 0. -1.
        -14    1    5    5    0    0 -0.17210062919E-01 -0.22711884996E+02 -0.80953544622E+01  0.24111507214E+02  0.00000000000E+00 0.  1.
         15    1    3    3    0    0  0.91133565394E+02  0.36243540031E+03  0.18347623122E+03  0.41633091561E+03  0.17770000000E+01 0. -1.
        -16    1    3    3    0    0  0.22368507792E+03  0.54780946921E+03  0.22925754376E+03  0.63457800940E+03  0.00000000000E+00 0.  1.
          2    1    6    6  502    0 -0.14677009402E+03 -0.34368071198E+03  0.72033051388E+03  0.81150104221E+03  0.00000000000E+00 0. -1.
         -3    1    6    6    0  502 -0.26489110974E+03 -0.49109192176E+03  0.12678912706E+04  0.13852389143E+04  0.00000000000E+00 0.  1.
<mgrwt>
<rscale>  0 0.10150672E+04</rscale>
<asrwt>0</asrwt>
<pdfrwt beam="1">  1        1 0.45505018E+00 0.10150672E+04</pdfrwt>
<pdfrwt beam="2">  1       -2 0.71335543E-01 0.10150672E+04</pdfrwt>
<totfact> 0.10262691E+00</totfact>
</mgrwt>
</event>
<event>
12    3  0.1176505E-007  0.4718017E+03  0.7818608E-02  0.1021413E+00
          1   -1    0    0  501    0  0.00000000000E+00  0.00000000000E+00  0.72574395421E+03  0.72574395421E+03  0.00000000000E+00 0. -1.
         -2   -1    0    0    0  501 -0.00000000000E+00 -0.00000000000E+00 -0.56438884816E+03  0.56438884816E+03  0.00000000000E+00 0.  1.
        -24    2    1    2    0    0  0.43123214308E+03 -0.18457029192E+03  0.22483686006E+03  0.52593261243E+03  0.77628250570E+02 0.  0.
    5000000    2    1    2    0    0 -0.43123214308E+03  0.18457029192E+03 -0.63481754008E+02  0.76420018995E+03  0.59995386768E+03 0.  0.
        -24    2    4    4    0    0 -0.26756213740E+03  0.11554317128E+03  0.25241947834E+03  0.39315251573E+03  0.76899842536E+02 0.  0.
         24    2    4    4    0    0 -0.16367000568E+03  0.69027120642E+02 -0.31590123235E+03  0.37104767422E+03  0.79562389362E+02 0.  0.
         11    1    5    5    0    0 -0.13886238452E+03  0.76993916804E+02  0.90520912650E+02  0.18276996659E+03  0.00000000000E+00 0. -1.
        -12    1    5    5    0    0 -0.12869975288E+03  0.38549254471E+02  0.16189856569E+03  0.21038254914E+03  0.00000000000E+00 0.  1.
         15    1    3    3    0    0  0.31965869162E+03 -0.11367149867E+03  0.19155062116E+03  0.38961222636E+03  0.17770000000E+01 0. -1.
        -16    1    3    3    0    0  0.11157345146E+03 -0.70898793251E+02  0.33286238895E+02  0.13632038606E+03  0.00000000000E+00 0.  1.
          4    1    6    6  502    0 -0.13936250379E+03  0.49720456761E+02 -0.18699117967E+03  0.23845278895E+03  0.00000000000E+00 0. -1.
         -3    1    6    6    0  502 -0.24307501889E+02  0.19306663881E+02 -0.12891005268E+03  0.13259488527E+03  0.00000000000E+00 0.  1.
<mgrwt>
<rscale>  0 0.47180169E+03</rscale>
<asrwt>0</asrwt>
<pdfrwt beam="1">  1        1 0.11165292E+00 0.47180169E+03</pdfrwt>
<pdfrwt beam="2">  1       -2 0.86829054E-01 0.47180169E+03</pdfrwt>
<totfact> 0.27264541E+01</totfact>
</mgrwt>
</event>
<event>
12    3  0.1176505E-007  0.6489239E+03  0.7818608E-02  0.9808800E-01
          1   -1    0    0  501    0  0.00000000000E+00  0.00000000000E+00  0.12643471427E+04  0.12643471427E+04  0.00000000000E+00 0. -1.
         -2   -1    0    0    0  501 -0.00000000000E+00 -0.00000000000E+00 -0.46202121173E+03  0.46202121173E+03  0.00000000000E+00 0.  1.
        -24    2    1    2    0    0  0.78120098273E+02  0.62498169940E+03  0.49087723924E+03  0.80238641745E+03  0.78476904699E+02 0.  0.
    5000000    2    1    2    0    0 -0.78120098273E+02 -0.62498169940E+03  0.31144869177E+03  0.92398193701E+03  0.60003121418E+03 0.  0.
        -24    2    4    4    0    0 -0.12658968135E+03 -0.50516982327E+03  0.46872237830E+03  0.70520373101E+03  0.79938329673E+02 0.  0.
         24    2    4    4    0    0  0.48469583078E+02 -0.11981187612E+03 -0.15727368653E+03  0.21877820600E+03  0.80154256281E+02 0.  0.
         11    1    5    5    0    0 -0.30916872689E+02 -0.23604573393E+03  0.25199457054E+03  0.34666223490E+03  0.00000000000E+00 0. -1.
        -12    1    5    5    0    0 -0.95672808662E+02 -0.26912408934E+03  0.21672780775E+03  0.35854149611E+03  0.00000000000E+00 0.  1.
         15    1    3    3    0    0  0.32719801289E+02  0.28633095831E+03  0.27416519610E+03  0.39777596152E+03  0.17770000000E+01 0. -1.
        -16    1    3    3    0    0  0.45400296984E+02  0.33865074109E+03  0.21671204314E+03  0.40461045593E+03  0.00000000000E+00 0.  1.
          2    1    6    6  502    0  0.36076760262E+02 -0.15548897430E+02 -0.15214017389E+02  0.42127985561E+02  0.00000000000E+00 0. -1.
         -1    1    6    6    0  502  0.12392822816E+02 -0.10426297869E+03 -0.14205966914E+03  0.17665022044E+03  0.00000000000E+00 0.  1.
<mgrwt>
<rscale>  0 0.64892395E+03</rscale>
<asrwt>0</asrwt>
<pdfrwt beam="1">  1        1 0.19451494E+00 0.64892395E+03</pdfrwt>
<pdfrwt beam="2">  1       -2 0.71080187E-01 0.64892395E+03</pdfrwt>
<totfact> 0.15750075E+01</totfact>
</mgrwt>
</event>
<event>
12    3  0.1176505E-007  0.5591079E+03  0.7818608E-02  0.9994075E-01
         -2   -1    0    0    0  501 -0.00000000000E+00  0.00000000000E+00  0.51081888268E+03  0.51081888268E+03  0.00000000000E+00 0.  1.
          1   -1    0    0  501    0  0.00000000000E+00 -0.00000000000E+00 -0.90088921811E+03  0.90088921811E+03  0.00000000000E+00 0. -1.
        -24    2    1    2    0    0  0.49202960114E+03 -0.70362966354E+02  0.64608908971E+02  0.50956699853E+03  0.91870231525E+02 0.  0.
    5000000    2    1    2    0    0 -0.49202960114E+03  0.70362966354E+02 -0.45467924440E+03  0.90214110227E+03  0.60006772757E+03 0.  0.
        -24    2    4    4    0    0 -0.20846975297E+03  0.20541282922E+03  0.44580596048E+02  0.30680255574E+03  0.80537633139E+02 0.  0.
         24    2    4    4    0    0 -0.28355984817E+03 -0.13504986286E+03 -0.49925984045E+03  0.59533854653E+03  0.80764743189E+02 0.  0.
         13    1    5    5    0    0 -0.21462074762E+03  0.20404455761E+03  0.47389804709E+02  0.29990338509E+03  0.00000000000E+00 0. -1.
        -14    1    5    5    0    0  0.61509946471E+01  0.13682716124E+01 -0.28092086603E+01  0.68991706496E+01  0.00000000000E+00 0.  1.
         15    1    3    3    0    0  0.22360053748E+03 -0.52731434461E+02 -0.11411373623E+02  0.23002430680E+03  0.17770000000E+01 0. -1.
        -16    1    3    3    0    0  0.26842906366E+03 -0.17631531892E+02  0.76020282594E+02  0.27954269173E+03  0.00000000000E+00 0.  1.
          2    1    6    6  502    0 -0.22529437810E+03 -0.12579394339E+03 -0.44887522925E+03  0.51775539054E+03  0.00000000000E+00 0. -1.
         -1    1    6    6    0  502 -0.58265470067E+02 -0.92559194711E+01 -0.50384611203E+02  0.77583155991E+02  0.00000000000E+00 0.  1.
<mgrwt>
<rscale>  0 0.55910788E+03</rscale>
<asrwt>0</asrwt>
<pdfrwt beam="1">  1        1 0.13859834E+00 0.55910788E+03</pdfrwt>
<pdfrwt beam="2">  1       -2 0.78587521E-01 0.55910788E+03</pdfrwt>
<totfact> 0.23926439E+01</totfact>
</mgrwt>
</event>
<event>
12    3  0.1176505E-007  0.1323945E+04  0.7818608E-02  0.9010789E-01
          1   -1    0    0  501    0  0.00000000000E+00  0.00000000000E+00  0.14428888664E+04  0.14428888664E+04  0.00000000000E+00 0. -1.
         -2   -1    0    0    0  501 -0.00000000000E+00 -0.00000000000E+00 -0.12547307923E+04  0.12547307923E+04  0.00000000000E+00 0.  1.
        -24    2    1    2    0    0  0.12652934528E+04 -0.12851473981E+03  0.20829411445E+03  0.12912316657E+04  0.80057581664E+02 0.  0.
    5000000    2    1    2    0    0 -0.12652934528E+04  0.12851473981E+03 -0.20136040341E+02  0.14063879930E+04  0.60003180484E+03 0.  0.
        -24    2    4    4    0    0  0.22727101974E+02  0.41897790594E+01 -0.72421872980E+02  0.10887510795E+03  0.77940913720E+02 0.  0.
         24    2    4    4    0    0 -0.12880205548E+04  0.12432496075E+03  0.52285832639E+02  0.12975128851E+04  0.79700899151E+02 0.  0.
         11    1    5    5    0    0 -0.28969987899E+02 -0.18069497585E+01 -0.29867494044E+02  0.41648438948E+02  0.00000000000E+00 0. -1.
        -12    1    5    5    0    0  0.51697089874E+02  0.59967288179E+01 -0.42554378936E+02  0.67226668998E+02  0.00000000000E+00 0.  1.
         15    1    3    3    0    0  0.10869947657E+04 -0.11556308724E+03  0.20649095867E+03  0.11124540986E+04  0.17770000000E+01 0. -1.
        -16    1    3    3    0    0  0.17829868713E+03 -0.12951652579E+02  0.18031557804E+01  0.17877756712E+03  0.00000000000E+00 0.  1.
          4    1    6    6  502    0 -0.90640208242E+03  0.65037255402E+02  0.78297074907E+01  0.90876613269E+03  0.00000000000E+00 0. -1.
         -3    1    6    6    0  502 -0.38161847235E+03  0.59287705353E+02  0.44456125149E+02  0.38874675241E+03  0.00000000000E+00 0.  1.
<mgrwt>
<rscale>  0 0.13239446E+04</rscale>
<asrwt>0</asrwt>
<pdfrwt beam="1">  1        1 0.22198290E+00 0.13239446E+04</pdfrwt>
<pdfrwt beam="2">  1       -2 0.19303551E+00 0.13239446E+04</pdfrwt>
<totfact> 0.89376967E-01</totfact>
</mgrwt>
</event>
<event>
12    3  0.1176505E-007  0.6967941E+03  0.7818608E-02  0.9722730E-01
         -2   -1    0    0    0  501 -0.00000000000E+00  0.00000000000E+00  0.32223727744E+03  0.32223727744E+03  0.00000000000E+00 0.  1.
          1   -1    0    0  501    0  0.00000000000E+00 -0.00000000000E+00 -0.18276826727E+04  0.18276826727E+04  0.00000000000E+00 0. -1.
        -24    2    1    2    0    0  0.62689090235E+03 -0.15070542319E+03 -0.55848352487E+03  0.85667922952E+03  0.79316623108E+02 0.  0.
    5000000    2    1    2    0    0 -0.62689090235E+03  0.15070542319E+03 -0.94696187036E+03  0.12932407206E+04  0.60002537400E+03 0.  0.
        -24    2    4    4    0    0 -0.32858250929E+03  0.25278412459E+03 -0.85724070053E+03  0.95564214353E+03  0.80771336408E+02 0.  0.
         24    2    4    4    0    0 -0.29830839306E+03 -0.10207870140E+03 -0.89721169825E+02  0.33759857706E+03  0.80715254233E+02 0.  0.
         11    1    5    5    0    0 -0.30727490104E+03  0.20402319378E+03 -0.73654553062E+03  0.82373700116E+03  0.00000000000E+00 0. -1.
        -12    1    5    5    0    0 -0.21307608255E+02  0.48760930812E+02 -0.12069516991E+03  0.13190514237E+03  0.00000000000E+00 0.  1.
         15    1    3    3    0    0  0.50334808706E+03 -0.10300574210E+03 -0.40689223018E+03  0.65538837673E+03  0.17770000000E+01 0. -1.
        -16    1    3    3    0    0  0.12354281530E+03 -0.47699681096E+02 -0.15159129469E+03  0.20129085278E+03  0.00000000000E+00 0.  1.
          2    1    6    6  502    0 -0.12128291783E+03 -0.83662429849E+02 -0.35752703998E+02  0.15161531640E+03  0.00000000000E+00 0. -1.
         -1    1    6    6    0  502 -0.17702547523E+03 -0.18416271551E+02 -0.53968465827E+02  0.18598326065E+03  0.00000000000E+00 0.  1.
<mgrwt>
<rscale>  0 0.69679411E+03</rscale>
<asrwt>0</asrwt>
<pdfrwt beam="1">  1        1 0.28118194E+00 0.69679411E+03</pdfrwt>
<pdfrwt beam="2">  1       -2 0.49574967E-01 0.69679411E+03</pdfrwt>
<totfact> 0.13782389E+01</totfact>
</mgrwt>
</event>
<event>
12    3  0.1176505E-007  0.8462281E+03  0.7818608E-02  0.9495413E-01
         -2   -1    0    0    0  501 -0.00000000000E+00  0.00000000000E+00  0.18923299102E+03  0.18923299102E+03  0.00000000000E+00 0.  1.
          1   -1    0    0  501    0  0.00000000000E+00 -0.00000000000E+00 -0.39546332493E+04  0.39546332493E+04  0.00000000000E+00 0. -1.
        -24    2    1    2    0    0  0.71199021002E+03  0.25733077214E+03 -0.17806380126E+04  0.19365096145E+04  0.79047896764E+02 0.  0.
    5000000    2    1    2    0    0 -0.71199021002E+03 -0.25733077214E+03 -0.19847622458E+04  0.22073566258E+04  0.59999409654E+03 0.  0.
        -24    2    4    4    0    0  0.82427431939E+02  0.71609699309E+01 -0.15388385834E+03  0.19250202965E+03  0.80816016583E+02 0.  0.
         24    2    4    4    0    0 -0.79441764196E+03 -0.26449174207E+03 -0.18308783874E+04  0.20148545962E+04  0.80424515388E+02 0.  0.
         13    1    5    5    0    0  0.58075289405E+02  0.26208622317E+02 -0.41728928968E+02  0.76163866998E+02  0.00000000000E+00 0. -1.
        -14    1    5    5    0    0  0.24352142534E+02 -0.19047652386E+02 -0.11215492937E+03  0.11633816265E+03  0.00000000000E+00 0.  1.
         15    1    3    3    0    0  0.21072428714E+03  0.89098629649E+02 -0.62814602274E+03  0.66851617379E+03  0.17770000000E+01 0. -1.
        -16    1    3    3    0    0  0.50126592288E+03  0.16823214249E+03 -0.11524919898E+04  0.12679934408E+04  0.00000000000E+00 0.  1.
          2    1    6    6  502    0 -0.27499508199E+03 -0.12743242205E+03 -0.70456424832E+03  0.76698898122E+03  0.00000000000E+00 0. -1.
         -1    1    6    6    0  502 -0.51942255997E+03 -0.13705932002E+03 -0.11263141391E+04  0.12478656149E+04  0.00000000000E+00 0.  1.
<mgrwt>
<rscale>  0 0.84622810E+03</rscale>
<asrwt>0</asrwt>
<pdfrwt beam="1">  1        1 0.60840508E+00 0.84622810E+03</pdfrwt>
<pdfrwt beam="2">  1       -2 0.29112770E-01 0.84622810E+03</pdfrwt>
<totfact> 0.10800859E+00</totfact>
</mgrwt>
</event>
<event>
12    3  0.1176505E-007  0.5627753E+03  0.7818608E-02  0.9985794E-01
          1   -1    0    0  501    0  0.00000000000E+00  0.00000000000E+00  0.45999986383E+03  0.45999986383E+03  0.00000000000E+00 0. -1.
         -2   -1    0    0    0  501 -0.00000000000E+00 -0.00000000000E+00 -0.11789260880E+04  0.11789260880E+04  0.00000000000E+00 0.  1.
        -24    2    1    2    0    0  0.31904103491E+03 -0.25283365653E+03  0.20636105039E+03  0.46330030414E+03  0.79688448797E+02 0.  0.
    5000000    2    1    2    0    0 -0.31904103491E+03  0.25283365653E+03 -0.92528727453E+03  0.11756256477E+04  0.60018920616E+03 0.  0.
        -24    2    4    4    0    0 -0.45590885788E+03  0.52942108375E+02 -0.53570333727E+03  0.70997713604E+03  0.80210439460E+02 0.  0.
         24    2    4    4    0    0  0.13686782298E+03  0.19989154816E+03 -0.38958393725E+03  0.46564851161E+03  0.79771299419E+02 0.  0.
         11    1    5    5    0    0 -0.21482698516E+03  0.60238026615E+02 -0.22790613758E+03  0.31893645284E+03  0.00000000000E+00 0. -1.
        -12    1    5    5    0    0 -0.24108187272E+03 -0.72959182403E+01 -0.30779719969E+03  0.39104068320E+03  0.00000000000E+00 0.  1.
         15    1    3    3    0    0  0.69410644650E+02 -0.10065307074E+03  0.54921265020E+02  0.13404619100E+03  0.17770000000E+01 0. -1.
        -16    1    3    3    0    0  0.24963039026E+03 -0.15218058579E+03  0.15143978537E+03  0.32925411315E+03  0.00000000000E+00 0.  1.
          2    1    6    6  502    0  0.12144319375E+03  0.14274370886E+03 -0.23810640597E+03  0.30301629707E+03  0.00000000000E+00 0. -1.
         -1    1    6    6    0  502  0.15424629224E+02  0.57147839303E+02 -0.15147753128E+03  0.16263221454E+03  0.00000000000E+00 0.  1.
<mgrwt>
<rscale>  0 0.56277532E+03</rscale>
<asrwt>0</asrwt>
<pdfrwt beam="1">  1        1 0.70769211E-01 0.56277532E+03</pdfrwt>
<pdfrwt beam="2">  1       -2 0.18137324E+00 0.56277532E+03</pdfrwt>
<totfact> 0.80688538E+00</totfact>
</mgrwt>
</event>
<event>
12    3  0.1176505E-007  0.2402354E+04  0.7818608E-02  0.8438623E-01
         -2   -1    0    0    0  501 -0.00000000000E+00  0.00000000000E+00  0.20423752377E+04  0.20423752377E+04  0.00000000000E+00 0.  1.
          1   -1    0    0  501    0  0.00000000000E+00 -0.00000000000E+00 -0.33087056091E+04  0.33087056091E+04  0.00000000000E+00 0. -1.
        -24    2    1    2    0    0 -0.13988320096E+04 -0.19462996513E+04 -0.15630099051E+04  0.28625371028E+04  0.79406408293E+02 0.  0.
    5000000    2    1    2    0    0  0.13988320096E+04  0.19462996513E+04  0.29667953364E+03  0.24885437440E+04  0.60001491347E+03 0.  0.
        -24    2    4    4    0    0  0.62650079135E+03  0.70029107913E+03 -0.14815206352E+03  0.95454855049E+03  0.79391840041E+02 0.  0.
         24    2    4    4    0    0  0.77233121825E+03  0.12460085722E+04  0.44483159715E+03  0.15339951935E+04  0.78950815382E+02 0.  0.
         13    1    5    5    0    0  0.48917509748E+03  0.51506111125E+03 -0.84533984813E+02  0.71535041686E+03  0.00000000000E+00 0. -1.
        -14    1    5    5    0    0  0.13732569387E+03  0.18522996787E+03 -0.63618078705E+02  0.23919813363E+03  0.00000000000E+00 0.  1.
         15    1    3    3    0    0 -0.17575136238E+03 -0.23740459700E+03 -0.22396339461E+03  0.37069157518E+03  0.17770000000E+01 0. -1.
        -16    1    3    3    0    0 -0.12230806472E+04 -0.17088950543E+04 -0.13390465105E+04  0.24918455276E+04  0.00000000000E+00 0.  1.
          4    1    6    6  502    0  0.60858532145E+03  0.93909872024E+03  0.36519339977E+03  0.11771358117E+04  0.00000000000E+00 0. -1.
         -3    1    6    6    0  502  0.16374589680E+03  0.30690985191E+03  0.79638197389E+02  0.35685938183E+03  0.00000000000E+00 0.  1.
<mgrwt>
<rscale>  0 0.24023539E+04</rscale>
<asrwt>0</asrwt>
<pdfrwt beam="1">  1        1 0.50903163E+00 0.24023539E+04</pdfrwt>
<pdfrwt beam="2">  1       -2 0.31421158E+00 0.24023539E+04</pdfrwt>
<totfact> 0.67878618E-03</totfact>
</mgrwt>
</event>
<event>
12    3  0.1176505E-007  0.4028492E+03  0.7818608E-02  0.1042798E+00
         -2   -1    0    0    0  501 -0.00000000000E+00  0.00000000000E+00  0.12010781892E+04  0.12010781892E+04  0.00000000000E+00 0.  1.
          1   -1    0    0  501    0  0.00000000000E+00 -0.00000000000E+00 -0.19200395825E+03  0.19200395825E+03  0.00000000000E+00 0. -1.
        -24    2    1    2    0    0 -0.57310405836E+02 -0.27288974356E+03  0.23611771759E+03  0.37563776948E+03  0.87171454856E+02 0.  0.
    5000000    2    1    2    0    0  0.57310405836E+02  0.27288974356E+03  0.77295651339E+03  0.10174443780E+04  0.59998166302E+03 0.  0.
        -24    2    4    4    0    0  0.23825100868E+03  0.11728698597E+03  0.98432916571E+02  0.29709896740E+03  0.89771805989E+02 0.  0.
         24    2    4    4    0    0 -0.18094060285E+03  0.15560275759E+03  0.67452359682E+03  0.72034541059E+03  0.83448834416E+02 0.  0.
         11    1    5    5    0    0  0.11380671593E+03  0.71815595636E+01  0.35716476489E+02  0.11949564880E+03  0.00000000000E+00 0. -1.
        -12    1    5    5    0    0  0.12444429275E+03  0.11010542641E+03  0.62716440082E+02  0.17760331861E+03  0.00000000000E+00 0.  1.
         15    1    3    3    0    0 -0.12593064378E+02 -0.11393821345E+03  0.45237169572E+02  0.12324796548E+03  0.17770000000E+01 0. -1.
        -16    1    3    3    0    0 -0.44717341458E+02 -0.15895153011E+03  0.19088054802E+03  0.25238980400E+03  0.00000000000E+00 0.  1.
          4    1    6    6  502    0 -0.61546399588E+02  0.91355596613E+02  0.38849246774E+03  0.40380713444E+03  0.00000000000E+00 0. -1.
         -3    1    6    6    0  502 -0.11939420326E+03  0.64247160974E+02  0.28603112908E+03  0.31653827615E+03  0.00000000000E+00 0.  1.
<mgrwt>
<rscale>  0 0.40284917E+03</rscale>
<asrwt>0</asrwt>
<pdfrwt beam="1">  1        1 0.29539071E-01 0.40284917E+03</pdfrwt>
<pdfrwt beam="2">  1       -2 0.18478126E+00 0.40284917E+03</pdfrwt>
<totfact> 0.24216362E+01</totfact>
</mgrwt>
</event>
<event>
12    3  0.1176505E-007  0.1283698E+04  0.7818608E-02  0.9042594E-01
          1   -1    0    0  501    0  0.00000000000E+00  0.00000000000E+00  0.20286734412E+04  0.20286734412E+04  0.00000000000E+00 0. -1.
         -2   -1    0    0    0  501 -0.00000000000E+00 -0.00000000000E+00 -0.86450729504E+03  0.86450729504E+03  0.00000000000E+00 0.  1.
        -24    2    1    2    0    0 -0.11608844916E+04 -0.47724573124E+03  0.55880229549E+03  0.13761020899E+04  0.77334763036E+02 0.  0.
    5000000    2    1    2    0    0  0.11608844916E+04  0.47724573124E+03  0.60536385068E+03  0.15170786463E+04  0.59970487448E+03 0.  0.
        -24    2    4    4    0    0  0.21413561649E+03  0.24964318593E+03 -0.47878943346E+02  0.34153114457E+03  0.78583375860E+02 0.  0.
         24    2    4    4    0    0  0.94674887515E+03  0.22760254530E+03  0.65324279403E+03  0.11755475017E+04  0.83960881870E+02 0.  0.
         13    1    5    5    0    0  0.99407015510E+02  0.17444227324E+03 -0.34238441169E+02  0.20367653836E+03  0.00000000000E+00 0. -1.
        -14    1    5    5    0    0  0.11472860098E+03  0.75200912695E+02 -0.13640502177E+02  0.13785460621E+03  0.00000000000E+00 0.  1.
         15    1    3    3    0    0 -0.81972709889E+03 -0.34343615751E+03  0.43315399827E+03  0.98869937539E+03  0.17770000000E+01 0. -1.
        -16    1    3    3    0    0 -0.34115739275E+03 -0.13380957372E+03  0.12564829722E+03  0.38740271455E+03  0.00000000000E+00 0.  1.
          2    1    6    6  502    0  0.47316186741E+03  0.97855148996E+02  0.27705523229E+03  0.55697161929E+03  0.00000000000E+00 0. -1.
         -1    1    6    6    0  502  0.47358700774E+03  0.12974739631E+03  0.37618756174E+03  0.61857588246E+03  0.00000000000E+00 0.  1.
<mgrwt>
<rscale>  0 0.12836979E+04</rscale>
<asrwt>0</asrwt>
<pdfrwt beam="1">  1        1 0.31210360E+00 0.12836979E+04</pdfrwt>
<pdfrwt beam="2">  1       -2 0.13300112E+00 0.12836979E+04</pdfrwt>
<totfact> 0.99363325E-01</totfact>
</mgrwt>
</event>
<event>
12    3  0.1176505E-007  0.9503747E+03  0.7818608E-02  0.9364713E-01
         -2   -1    0    0    0  501 -0.00000000000E+00  0.00000000000E+00  0.28914718955E+04  0.28914718955E+04  0.00000000000E+00 0.  1.
          1   -1    0    0  501    0  0.00000000000E+00 -0.00000000000E+00 -0.37345330181E+03  0.37345330181E+03  0.00000000000E+00 0. -1.
        -24    2    1    2    0    0 -0.10782620896E+03  0.85745830266E+03  0.17778170661E+04  0.19785195118E+04  0.83932744979E+02 0.  0.
    5000000    2    1    2    0    0  0.10782620896E+03 -0.85745830266E+03  0.74020152755E+03  0.12864056855E+04  0.60006670816E+03 0.  0.
        -24    2    4    4    0    0  0.26673508275E+03 -0.14941300456E+03  0.28876018765E+03  0.42801736987E+03  0.79652825629E+02 0.  0.
         24    2    4    4    0    0 -0.15890887379E+03 -0.70804529810E+03  0.45144133989E+03  0.85838831567E+03  0.80318383791E+02 0.  0.
         13    1    5    5    0    0  0.37294047537E+02 -0.28265188515E+02  0.11292831318E+02  0.48138289362E+02  0.00000000000E+00 0. -1.
        -14    1    5    5    0    0  0.22944103521E+03 -0.12114781605E+03  0.27746735634E+03  0.37987908050E+03  0.00000000000E+00 0.  1.
         15    1    3    3    0    0 -0.20292886971E+02  0.31148777580E+03  0.72459018763E+03  0.78896801803E+03  0.17770000000E+01 0. -1.
        -16    1    3    3    0    0 -0.87533321988E+02  0.54597052686E+03  0.10532268785E+04  0.11895514937E+04  0.00000000000E+00 0.  1.
          2    1    6    6  502    0  0.68781441745E+01 -0.63527873937E+02  0.29313641822E+02  0.70302128212E+02  0.00000000000E+00 0. -1.
         -1    1    6    6    0  502 -0.16578701797E+03 -0.64451742416E+03  0.42212769807E+03  0.78808618745E+03  0.00000000000E+00 0.  1.
<mgrwt>
<rscale>  0 0.95037474E+03</rscale>
<asrwt>0</asrwt>
<pdfrwt beam="1">  1        1 0.57454356E-01 0.95037474E+03</pdfrwt>
<pdfrwt beam="2">  1       -2 0.44484182E+00 0.95037474E+03</pdfrwt>
<totfact> 0.22305590E-01</totfact>
</mgrwt>
</event>
<event>
12    3  0.1176505E-007  0.1550125E+04  0.7818608E-02  0.8851788E-01
          1   -1    0    0  501    0  0.00000000000E+00  0.00000000000E+00  0.28853295307E+04  0.28853295307E+04  0.00000000000E+00 0. -1.
         -2   -1    0    0    0  501 -0.00000000000E+00 -0.00000000000E+00 -0.88641914141E+03  0.88641914141E+03  0.00000000000E+00 0.  1.
        -24    2    1    2    0    0  0.14476884004E+04  0.49358401734E+03  0.11973940885E+04  0.19434778497E+04  0.62663084815E+02 0.  0.
    5000000    2    1    2    0    0 -0.14476884004E+04 -0.49358401734E+03  0.80151630077E+03  0.18282708224E+04  0.60059881174E+03 0.  0.
        -24    2    4    4    0    0 -0.31582690495E+03  0.27010931651E+02  0.40101306027E+03  0.51722179791E+03  0.78934716142E+02 0.  0.
         24    2    4    4    0    0 -0.11318614955E+04 -0.52059494899E+03  0.40050324051E+03  0.13110490245E+04  0.79480519883E+02 0.  0.
         13    1    5    5    0    0 -0.31426265549E+03  0.19649055581E+02  0.40079839405E+03  0.50969250995E+03  0.00000000000E+00 0. -1.
        -14    1    5    5    0    0 -0.15642494529E+01  0.73618760701E+01  0.21466621433E+00  0.75292879614E+01  0.00000000000E+00 0.  1.
         15    1    3    3    0    0  0.85786822025E+03  0.26232838246E+03  0.68693079617E+03  0.11298810291E+04  0.17770000000E+01 0. -1.
        -16    1    3    3    0    0  0.58982018018E+03  0.23125563488E+03  0.51046329230E+03  0.81359682055E+03  0.00000000000E+00 0.  1.
          2    1    6    6  502    0 -0.50150981798E+03 -0.26286262471E+03  0.15386569228E+03  0.58675677096E+03  0.00000000000E+00 0. -1.
         -1    1    6    6    0  502 -0.63035167750E+03 -0.25773232428E+03  0.24663754823E+03  0.72429225352E+03  0.00000000000E+00 0.  1.
<mgrwt>
<rscale>  0 0.15501249E+04</rscale>
<asrwt>0</asrwt>
<pdfrwt beam="1">  1        1 0.44389685E+00 0.15501249E+04</pdfrwt>
<pdfrwt beam="2">  1       -2 0.13637218E+00 0.15501249E+04</pdfrwt>
<totfact> 0.23069463E-01</totfact>
</mgrwt>
</event>
<event>
12    3  0.1176505E-007  0.7547798E+03  0.7818608E-02  0.9627881E-01
         -2   -1    0    0    0  501 -0.00000000000E+00  0.00000000000E+00  0.56239260378E+03  0.56239260378E+03  0.00000000000E+00 0.  1.
          1   -1    0    0  501    0  0.00000000000E+00 -0.00000000000E+00 -0.12972820256E+04  0.12972820256E+04  0.00000000000E+00 0. -1.
        -24    2    1    2    0    0 -0.47879302840E+03 -0.55828605693E+03 -0.46253567971E+03  0.87218220858E+03  0.76396757374E+02 0.  0.
    5000000    2    1    2    0    0  0.47879302840E+03  0.55828605693E+03 -0.27235374214E+03  0.98749242085E+03  0.60003219494E+03 0.  0.
        -24    2    4    4    0    0  0.30329513261E+03  0.19999344477E+03  0.14994136388E+03  0.40111431787E+03  0.80155897984E+02 0.  0.
         24    2    4    4    0    0  0.17549789579E+03  0.35829261217E+03 -0.42229510603E+03  0.58637810298E+03  0.79580247044E+02 0.  0.
         11    1    5    5    0    0  0.18006660036E+03  0.16293343612E+03  0.87907290128E+02  0.25826145053E+03  0.00000000000E+00 0. -1.
        -12    1    5    5    0    0  0.12322853225E+03  0.37060008650E+02  0.62034073754E+02  0.14285286734E+03  0.00000000000E+00 0.  1.
         15    1    3    3    0    0 -0.25876060627E+03 -0.33732539284E+03 -0.23147802637E+03  0.48407716992E+03  0.17770000000E+01 0. -1.
        -16    1    3    3    0    0 -0.22003242213E+03 -0.22096066409E+03 -0.23105765334E+03  0.38810503866E+03  0.00000000000E+00 0.  1.
          4    1    6    6  502    0  0.19064559136E+02  0.75682271419E+02 -0.12505767763E+03  0.14741331811E+03  0.00000000000E+00 0. -1.
         -1    1    6    6    0  502  0.15643333666E+03  0.28261034075E+03 -0.29723742839E+03  0.43896478487E+03  0.00000000000E+00 0.  1.
<mgrwt>
<rscale>  0 0.75477980E+03</rscale>
<asrwt>0</asrwt>
<pdfrwt beam="1">  1        1 0.19958185E+00 0.75477980E+03</pdfrwt>
<pdfrwt beam="2">  1       -2 0.86521939E-01 0.75477980E+03</pdfrwt>
<totfact> 0.94817928E+00</totfact>
</mgrwt>
</event>
<event>
12    3  0.1176505E-007  0.4991030E+03  0.7818608E-02  0.1014013E+00
          1   -1    0    0  501    0  0.00000000000E+00  0.00000000000E+00  0.12903909758E+04  0.12903909758E+04  0.00000000000E+00 0. -1.
         -2   -1    0    0    0  501 -0.00000000000E+00 -0.00000000000E+00 -0.21298453558E+03  0.21298453558E+03  0.00000000000E+00 0.  1.
        -24    2    1    2    0    0 -0.10380716713E+03 -0.32309711988E+03  0.46446837473E+03  0.58099949976E+03  0.81620284112E+02 0.  0.
    5000000    2    1    2    0    0  0.10380716713E+03  0.32309711988E+03  0.61293806553E+03  0.92237601166E+03  0.59993062757E+03 0.  0.
        -24    2    4    4    0    0  0.15811854361E+03 -0.12772237751E+03  0.12844942552E+03  0.25355882980E+03  0.80488171184E+02 0.  0.
         24    2    4    4    0    0 -0.54311376485E+02  0.45081949739E+03  0.48448864001E+03  0.66881718186E+03  0.79995222438E+02 0.  0.
         13    1    5    5    0    0  0.86517500064E+02 -0.69892435894E+02  0.11596111426E+03  0.16067734885E+03  0.00000000000E+00 0. -1.
        -14    1    5    5    0    0  0.71601043549E+02 -0.57829941620E+02  0.12488311255E+02  0.92881480947E+02  0.00000000000E+00 0.  1.
         15    1    3    3    0    0 -0.24722560252E+02 -0.50758032354E+02  0.13468837708E+03  0.14605375546E+03  0.17770000000E+01 0. -1.
        -16    1    3    3    0    0 -0.79084606875E+02 -0.27233908752E+03  0.32977999765E+03  0.43494574431E+03  0.00000000000E+00 0.  1.
          2    1    6    6  502    0 -0.53418849868E+01  0.14967304901E+03  0.21319784713E+03  0.26054534990E+03  0.00000000000E+00 0. -1.
         -1    1    6    6    0  502 -0.48969491498E+02  0.30114644838E+03  0.27129079288E+03  0.40827183196E+03  0.00000000000E+00 0.  1.
<mgrwt>
<rscale>  0 0.49910299E+03</rscale>
<asrwt>0</asrwt>
<pdfrwt beam="1">  1        1 0.19852168E+00 0.49910299E+03</pdfrwt>
<pdfrwt beam="2">  1       -2 0.32766852E-01 0.49910299E+03</pdfrwt>
<totfact> 0.73526349E+01</totfact>
</mgrwt>
</event>
<event>
12    3  0.1176505E-007  0.6824074E+03  0.7818608E-02  0.9747800E-01
          1   -1    0    0  501    0  0.00000000000E+00  0.00000000000E+00  0.92778617569E+03  0.92778617569E+03  0.00000000000E+00 0. -1.
         -2   -1    0    0    0  501 -0.00000000000E+00 -0.00000000000E+00 -0.69033154332E+03  0.69033154332E+03  0.00000000000E+00 0.  1.
        -24    2    1    2    0    0 -0.53491146568E+03  0.17712030222E+03 -0.29206261476E+03  0.63940602808E+03  0.77702125062E+02 0.  0.
    5000000    2    1    2    0    0  0.53491146568E+03 -0.17712030222E+03  0.52951724712E+03  0.97871169092E+03  0.59998848436E+03 0.  0.
        -24    2    4    4    0    0 -0.77146262500E+02 -0.15682045845E+03  0.48330665150E+02  0.19564410688E+03  0.73461291565E+02 0.  0.
         24    2    4    4    0    0  0.61205772818E+03 -0.20299843776E+02  0.48118658197E+03  0.78306758404E+03  0.81409877922E+02 0.  0.
         13    1    5    5    0    0 -0.46798961864E+02 -0.14529478872E+03  0.55459365489E+02  0.16240831161E+03  0.00000000000E+00 0. -1.
        -14    1    5    5    0    0 -0.30347300636E+02 -0.11525669727E+02 -0.71287003392E+01  0.33235795268E+02  0.00000000000E+00 0.  1.
         15    1    3    3    0    0 -0.33250151230E+03  0.77267820125E+02 -0.20009954962E+03  0.39568997864E+03  0.17770000000E+01 0. -1.
        -16    1    3    3    0    0 -0.20240995338E+03  0.99852482097E+02 -0.91963065132E+02  0.24371604945E+03  0.00000000000E+00 0.  1.
          4    1    6    6  502    0  0.49391953592E+03 -0.95056353246E+01  0.42559958723E+03  0.65205971638E+03  0.00000000000E+00 0. -1.
         -3    1    6    6    0  502  0.11813819225E+03 -0.10794208452E+02  0.55586994743E+02  0.13100786766E+03  0.00000000000E+00 0.  1.
<mgrwt>
<rscale>  0 0.68240744E+03</rscale>
<asrwt>0</asrwt>
<pdfrwt beam="1">  1        1 0.14273633E+00 0.68240744E+03</pdfrwt>
<pdfrwt beam="2">  1       -2 0.10620485E+00 0.68240744E+03</pdfrwt>
<totfact> 0.11167381E+01</totfact>
</mgrwt>
</event>
<event>
12    3  0.1176505E-007  0.9471712E+03  0.7818608E-02  0.9368463E-01
         -2   -1    0    0    0  501 -0.00000000000E+00  0.00000000000E+00  0.96118319156E+03  0.96118319156E+03  0.00000000000E+00 0.  1.
          1   -1    0    0  501    0  0.00000000000E+00 -0.00000000000E+00 -0.11066034450E+04  0.11066034450E+04  0.00000000000E+00 0. -1.
        -24    2    1    2    0    0  0.19864595304E+03  0.87284023883E+03  0.22831188244E+03  0.92720430440E+03  0.79190967009E+02 0.  0.
    5000000    2    1    2    0    0 -0.19864595304E+03 -0.87284023883E+03 -0.37373213587E+03  0.11405823322E+04  0.59995170629E+03 0.  0.
        -24    2    4    4    0    0 -0.12309183371E+03 -0.88890666191E+03 -0.18341214767E+03  0.91977796965E+03  0.83933571573E+02 0.  0.
         24    2    4    4    0    0 -0.75554119336E+02  0.16066423081E+02 -0.19031998820E+03  0.22080436251E+03  0.81032793943E+02 0.  0.
         11    1    5    5    0    0  0.11359046832E+02 -0.85854213660E+02 -0.89171516085E+01  0.87060263845E+02  0.00000000000E+00 0. -1.
        -12    1    5    5    0    0 -0.13445088054E+03 -0.80305244825E+03 -0.17449499606E+03  0.83271770581E+03  0.00000000000E+00 0.  1.
         15    1    3    3    0    0  0.10265882353E+03  0.56544353629E+03  0.11703149684E+03  0.58648508572E+03  0.17770000000E+01 0. -1.
        -16    1    3    3    0    0  0.95987129510E+02  0.30739670253E+03  0.11128038561E+03  0.34071921868E+03  0.00000000000E+00 0.  1.
          4    1    6    6  502    0  0.50435339157E+01 -0.10725109379E+02 -0.83483855809E+02  0.84320930891E+02  0.00000000000E+00 0. -1.
         -3    1    6    6    0  502 -0.80597653251E+02  0.26791532461E+02 -0.10683613239E+03  0.13648343161E+03  0.00000000000E+00 0.  1.
<mgrwt>
<rscale>  0 0.94717117E+03</rscale>
<asrwt>0</asrwt>
<pdfrwt beam="1">  1        1 0.17024668E+00 0.94717117E+03</pdfrwt>
<pdfrwt beam="2">  1       -2 0.14787434E+00 0.94717117E+03</pdfrwt>
<totfact> 0.34267536E+00</totfact>
</mgrwt>
</event>
<event>
12    3  0.1215109E-007  0.9447081E+03  0.7818608E-02  0.9371357E-01
          1   -1    0    0  501    0  0.00000000000E+00  0.00000000000E+00  0.19164095657E+04  0.19164095657E+04  0.00000000000E+00 0. -1.
         -4   -1    0    0    0  501 -0.00000000000E+00 -0.00000000000E+00 -0.55649097136E+03  0.55649097136E+03  0.00000000000E+00 0.  1.
        -24    2    1    2    0    0 -0.18209207194E+03  0.90111321097E+03  0.87888795163E+03  0.12743747585E+04  0.80152679393E+02 0.  0.
    5000000    2    1    2    0    0  0.18209207194E+03 -0.90111321097E+03  0.48103064272E+03  0.11985257785E+04  0.59992584621E+03 0.  0.
        -24    2    4    4    0    0  0.14184723849E+03 -0.15007195911E+03 -0.10165005817E+03  0.24375712912E+03  0.80265632052E+02 0.  0.
         24    2    4    4    0    0  0.40244833446E+02 -0.75104125185E+03  0.58268070089E+03  0.95476864942E+03  0.79898473875E+02 0.  0.
         11    1    5    5    0    0  0.12230297748E+03 -0.91813651204E+02 -0.43118826187E+02  0.15889303956E+03  0.00000000000E+00 0. -1.
        -12    1    5    5    0    0  0.19544261009E+02 -0.58258307910E+02 -0.58531231983E+02  0.84864089557E+02  0.00000000000E+00 0.  1.
         15    1    3    3    0    0 -0.12766200287E+03  0.45273997761E+03  0.47406806498E+03  0.66784336657E+03  0.17770000000E+01 0. -1.
        -16    1    3    3    0    0 -0.54430069066E+02  0.44837323335E+03  0.40481988665E+03  0.60653139196E+03  0.00000000000E+00 0.  1.
          2    1    6    6  502    0  0.36686921422E+02 -0.35018704963E+03  0.22767131404E+03  0.41929837486E+03  0.00000000000E+00 0. -1.
         -1    1    6    6    0  502  0.35579120242E+01 -0.40085420223E+03  0.35500938686E+03  0.53547027456E+03  0.00000000000E+00 0.  1.
<mgrwt>
<rscale>  0 0.94470810E+03</rscale>
<asrwt>0</asrwt>
<pdfrwt beam="1">  1        1 0.29483224E+00 0.94470810E+03</pdfrwt>
<pdfrwt beam="2">  1       -4 0.85613996E-01 0.94470810E+03</pdfrwt>
<totfact> 0.19623464E+00</totfact>
</mgrwt>
</event>
<event>
12    3  0.1176505E-007  0.4319986E+03  0.7818608E-02  0.1033230E+00
          1   -1    0    0  501    0  0.00000000000E+00  0.00000000000E+00  0.15006845248E+04  0.15006845248E+04  0.00000000000E+00 0. -1.
         -2   -1    0    0    0  501 -0.00000000000E+00 -0.00000000000E+00 -0.23298380672E+03  0.23298380672E+03  0.00000000000E+00 0.  1.
        -24    2    1    2    0    0  0.24485865994E+03 -0.21883021380E+03  0.89077748810E+03  0.95269973893E+03  0.79434459967E+02 0.  0.
    5000000    2    1    2    0    0 -0.24485865994E+03  0.21883021380E+03  0.37692322997E+03  0.78096859258E+03  0.59999866290E+03 0.  0.
        -24    2    4    4    0    0  0.88795186415E+02 -0.35499929040E+02 -0.82814825517E+02  0.15369662892E+03  0.87289909630E+02 0.  0.
         24    2    4    4    0    0 -0.33365384635E+03  0.25433014284E+03  0.45973805549E+03  0.62727196366E+03  0.78117385932E+02 0.  0.
         11    1    5    5    0    0  0.83264180912E+02 -0.36622851246E+01 -0.24237836426E+02  0.86797516496E+02  0.00000000000E+00 0. -1.
        -12    1    5    5    0    0  0.55310055032E+01 -0.31837643915E+02 -0.58576989092E+02  0.66899112423E+02  0.00000000000E+00 0.  1.
         15    1    3    3    0    0  0.10103403349E+03 -0.88163203647E+02  0.47827175390E+03  0.49671687581E+03  0.17770000000E+01 0. -1.
        -16    1    3    3    0    0  0.14382462645E+03 -0.13066701016E+03  0.41250573419E+03  0.45598286312E+03  0.00000000000E+00 0.  1.
          2    1    6    6  502    0 -0.19296424618E+03  0.15815571102E+03  0.32669511151E+03  0.41106948941E+03  0.00000000000E+00 0. -1.
         -1    1    6    6    0  502 -0.14068960017E+03  0.96174431821E+02  0.13304294398E+03  0.21620247426E+03  0.00000000000E+00 0.  1.
<mgrwt>
<rscale>  0 0.43199863E+03</rscale>
<asrwt>0</asrwt>
<pdfrwt beam="1">  1        1 0.23087454E+00 0.43199863E+03</pdfrwt>
<pdfrwt beam="2">  1       -2 0.35843663E-01 0.43199863E+03</pdfrwt>
<totfact> 0.45026262E+01</totfact>
</mgrwt>
</event>
<event>
12    3  0.1176505E-007  0.2626450E+03  0.7818608E-02  0.1105564E+00
          3   -1    0    0  501    0  0.00000000000E+00  0.00000000000E+00  0.29635159061E+03  0.29635159061E+03  0.00000000000E+00 0. -1.
         -4   -1    0    0    0  501 -0.00000000000E+00 -0.00000000000E+00 -0.72919184355E+03  0.72919184355E+03  0.00000000000E+00 0.  1.
        -24    2    1    2    0    0  0.11072084180E+03  0.14992454954E+03 -0.33142478000E+03  0.38911015389E+03  0.82630815660E+02 0.  0.
    5000000    2    1    2    0    0 -0.11072084180E+03 -0.14992454954E+03 -0.10141547294E+03  0.63643328027E+03  0.60002145521E+03 0.  0.
        -24    2    4    4    0    0 -0.12486641363E+03 -0.20456372472E+03  0.19839578298E+03  0.31936118129E+03  0.72060659784E+02 0.  0.
         24    2    4    4    0    0  0.14145571826E+02  0.54639175179E+02 -0.29981125592E+03  0.31707209898E+03  0.86385126681E+02 0.  0.
         13    1    5    5    0    0 -0.65244942612E+02 -0.12555526600E+03  0.15896385603E+03  0.21281572987E+03  0.00000000000E+00 0. -1.
        -14    1    5    5    0    0 -0.59621471013E+02 -0.79008458722E+02  0.39431926947E+02  0.10654545142E+03  0.00000000000E+00 0.  1.
         15    1    3    3    0    0  0.82050651990E+02  0.10370717932E+03 -0.15130078573E+03  0.20095415902E+03  0.17770000000E+01 0. -1.
        -16    1    3    3    0    0  0.28670189810E+02  0.46217370218E+02 -0.18012399427E+03  0.18815599487E+03  0.00000000000E+00 0.  1.
          4    1    6    6  502    0  0.39482286939E+02  0.60429480904E+02 -0.25740767940E+03  0.26733740209E+03  0.00000000000E+00 0. -1.
         -3    1    6    6    0  502 -0.25336715113E+02 -0.57903057253E+01 -0.42403576518E+02  0.49734696889E+02  0.00000000000E+00 0.  1.
<mgrwt>
<rscale>  0 0.26264497E+03</rscale>
<asrwt>0</asrwt>
<pdfrwt beam="1">  1        3 0.45592553E-01 0.26264497E+03</pdfrwt>
<pdfrwt beam="2">  1       -4 0.11218336E+00 0.26264497E+03</pdfrwt>
<totfact> 0.66020405E+00</totfact>
</mgrwt>
</event>
<event>
12    3  0.1176505E-007  0.9061261E+03  0.7818608E-02  0.9417956E-01
          3   -1    0    0  501    0  0.00000000000E+00  0.00000000000E+00  0.21502495386E+04  0.21502495386E+04  0.00000000000E+00 0. -1.
         -2   -1    0    0    0  501 -0.00000000000E+00 -0.00000000000E+00 -0.90888698674E+03  0.90888698674E+03  0.00000000000E+00 0.  1.
        -24    2    1    2    0    0  0.72219952208E+03  0.43166107933E+03  0.17227841619E+04  0.19191189571E+04  0.84432613127E+02 0.  0.
    5000000    2    1    2    0    0 -0.72219952208E+03 -0.43166107933E+03 -0.48142161002E+03  0.11400175682E+04  0.59997487620E+03 0.  0.
        -24    2    4    4    0    0 -0.12210510918E+03  0.10579072538E+03 -0.23147974149E+03  0.29323685847E+03  0.79395523694E+02 0.  0.
         24    2    4    4    0    0 -0.60009441290E+03 -0.53745180471E+03 -0.24994186854E+03  0.84678070971E+03  0.74825703551E+02 0.  0.
         13    1    5    5    0    0 -0.89352308858E+02  0.66166724768E+02 -0.91098434834E+02  0.14373863570E+03  0.00000000000E+00 0. -1.
        -14    1    5    5    0    0 -0.32752800327E+02  0.39624000615E+02 -0.14038130665E+03  0.14949822277E+03  0.00000000000E+00 0.  1.
         15    1    3    3    0    0  0.50006796173E+03  0.30965348918E+03  0.12862041502E+04  0.14143116784E+04  0.17770000000E+01 0. -1.
        -16    1    3    3    0    0  0.22213156035E+03  0.12200759014E+03  0.43658001162E+03  0.50480727877E+03  0.00000000000E+00 0.  1.
          4    1    6    6  502    0 -0.34164174938E+03 -0.26377986618E+03 -0.11242286272E+03  0.44602444192E+03  0.00000000000E+00 0. -1.
         -3    1    6    6    0  502 -0.25845266351E+03 -0.27367193852E+03 -0.13751900581E+03  0.40075626779E+03  0.00000000000E+00 0.  1.
<mgrwt>
<rscale>  0 0.90612606E+03</rscale>
<asrwt>0</asrwt>
<pdfrwt beam="1">  1        3 0.33080762E+00 0.90612606E+03</pdfrwt>
<pdfrwt beam="2">  1       -2 0.13982877E+00 0.90612606E+03</pdfrwt>
<totfact> 0.39103769E-02</totfact>
</mgrwt>
</event>
<event>
12    3  0.1176505E-007  0.4191716E+03  0.7818608E-02  0.1037336E+00
         -2   -1    0    0    0  501 -0.00000000000E+00  0.00000000000E+00  0.48958644854E+03  0.48958644854E+03  0.00000000000E+00 0.  1.
          1   -1    0    0  501    0  0.00000000000E+00 -0.00000000000E+00 -0.13138749208E+04  0.13138749208E+04  0.00000000000E+00 0. -1.
        -24    2    1    2    0    0  0.24259656695E+03  0.32095969142E+01 -0.10783792097E+04  0.11082840199E+04  0.80798224254E+02 0.  0.
    5000000    2    1    2    0    0 -0.24259656695E+03 -0.32095969142E+01  0.25409073748E+03  0.69517734940E+03  0.59987169332E+03 0.  0.
        -24    2    4    4    0    0  0.13190706881E+03  0.12834119754E+03 -0.31427925803E+02  0.19992075004E+03  0.71481843760E+02 0.  0.
         24    2    4    4    0    0 -0.37450363576E+03 -0.13155079446E+03  0.28551866329E+03  0.49525659936E+03  0.78737585725E+02 0.  0.
         11    1    5    5    0    0  0.96085935876E+02  0.75388202202E+02 -0.52030692491E+02  0.13275195315E+03  0.00000000000E+00 0. -1.
        -12    1    5    5    0    0  0.35821132938E+02  0.52952995342E+02  0.20602766688E+02  0.67168796891E+02  0.00000000000E+00 0.  1.
         15    1    3    3    0    0  0.16498886281E+03 -0.24023440079E+02 -0.83187765673E+03  0.84842326938E+03  0.17770000000E+01 0. -1.
        -16    1    3    3    0    0  0.77607704135E+02  0.27233036993E+02 -0.24650155298E+03  0.25986075053E+03  0.00000000000E+00 0.  1.
          2    1    6    6  502    0 -0.30197062716E+03 -0.13479653523E+03  0.24920200457E+03  0.41407487808E+03  0.00000000000E+00 0. -1.
         -1    1    6    6    0  502 -0.72533008598E+02  0.32457407682E+01  0.36316658718E+02  0.81181721279E+02  0.00000000000E+00 0.  1.
<mgrwt>
<rscale>  0 0.41917163E+03</rscale>
<asrwt>0</asrwt>
<pdfrwt beam="1">  1        1 0.20213460E+00 0.41917163E+03</pdfrwt>
<pdfrwt beam="2">  1       -2 0.75320993E-01 0.41917163E+03</pdfrwt>
<totfact> 0.13331970E+01</totfact>
</mgrwt>
</event>
<event>
12    3  0.1176505E-007  0.1110567E+04  0.7818608E-02  0.9194953E-01
          1   -1    0    0  501    0  0.00000000000E+00  0.00000000000E+00  0.16922504775E+04  0.16922504775E+04  0.00000000000E+00 0. -1.
         -2   -1    0    0    0  501 -0.00000000000E+00 -0.00000000000E+00 -0.77860823945E+03  0.77860823945E+03  0.00000000000E+00 0.  1.
        -24    2    1    2    0    0 -0.86372351628E+03  0.56620009405E+03  0.13409270472E+03  0.10446129601E+04  0.81452586689E+02 0.  0.
    5000000    2    1    2    0    0  0.86372351628E+03 -0.56620009405E+03  0.77954953336E+03  0.14262457569E+04  0.59989884562E+03 0.  0.
        -24    2    4    4    0    0  0.19001658761E+02  0.86948547377E+02  0.45423910787E+02  0.12796453570E+03  0.79940464088E+02 0.  0.
         24    2    4    4    0    0  0.84472185751E+03 -0.65314864142E+03  0.73412562257E+03  0.12982812212E+04  0.80221787512E+02 0.  0.
         11    1    5    5    0    0 -0.30304340659E+02  0.22098846890E+02  0.20653402698E+02  0.42816762368E+02  0.00000000000E+00 0. -1.
        -12    1    5    5    0    0  0.49305999420E+02  0.64849700487E+02  0.24770508089E+02  0.85147773330E+02  0.00000000000E+00 0.  1.
         15    1    3    3    0    0 -0.57711784861E+03  0.35560282019E+03  0.53867063808E+02  0.68001705508E+03  0.17770000000E+01 0. -1.
        -16    1    3    3    0    0 -0.28660566767E+03  0.21059727386E+03  0.80225640910E+02  0.36459590502E+03  0.00000000000E+00 0.  1.
          4    1    6    6  502    0  0.63558006907E+03 -0.46790477930E+03  0.57779665182E+03  0.97813387506E+03  0.00000000000E+00 0. -1.
         -3    1    6    6    0  502  0.20914178845E+03 -0.18524386213E+03  0.15632897075E+03  0.32014734612E+03  0.00000000000E+00 0.  1.
<mgrwt>
<rscale>  0 0.11105669E+04</rscale>
<asrwt>0</asrwt>
<pdfrwt beam="1">  1        1 0.26034623E+00 0.11105669E+04</pdfrwt>
<pdfrwt beam="2">  1       -2 0.11978588E+00 0.11105669E+04</pdfrwt>
<totfact> 0.22312835E+00</totfact>
</mgrwt>
</event>
<event>
12    3  0.1176505E-007  0.1232984E+04  0.7818608E-02  0.9084466E-01
         -2   -1    0    0    0  501 -0.00000000000E+00  0.00000000000E+00  0.13692124566E+04  0.13692124566E+04  0.00000000000E+00 0.  1.
          1   -1    0    0  501    0  0.00000000000E+00 -0.00000000000E+00 -0.11795370647E+04  0.11795370647E+04  0.00000000000E+00 0. -1.
        -24    2    1    2    0    0 -0.11577828822E+04  0.28515860279E+03  0.21159630290E+03  0.12135776719E+04  0.78874198622E+02 0.  0.
    5000000    2    1    2    0    0  0.11577828822E+04 -0.28515860279E+03 -0.21920911035E+02  0.13351718494E+04  0.60035548636E+03 0.  0.
        -24    2    4    4    0    0  0.11017731995E+04 -0.35658106729E+03 -0.13658336270E+03  0.11688497164E+04  0.80625082397E+02 0.  0.
         24    2    4    4    0    0  0.56009682723E+02  0.71422464498E+02  0.11466245167E+03  0.16632213300E+03  0.79229546940E+02 0.  0.
         11    1    5    5    0    0  0.43133977869E+03 -0.18037669552E+03 -0.47327917597E+02  0.46992519484E+03  0.00000000000E+00 0. -1.
        -12    1    5    5    0    0  0.67043342082E+03 -0.17620437177E+03 -0.89255445104E+02  0.69892452158E+03  0.00000000000E+00 0.  1.
         15    1    3    3    0    0 -0.80140940041E+03  0.18378027159E+03  0.18026438071E+03  0.84174260910E+03  0.17770000000E+01 0. -1.
        -16    1    3    3    0    0 -0.35637348182E+03  0.10137833120E+03  0.31331922189E+02  0.37183506280E+03  0.00000000000E+00 0.  1.
          2    1    6    6  502    0  0.18008861925E+02 -0.11445524752E+02  0.50552579246E+02  0.54871508208E+02  0.00000000000E+00 0. -1.
         -1    1    6    6    0  502  0.38000820799E+02  0.82867989250E+02  0.64109872421E+02  0.11145062479E+03  0.00000000000E+00 0.  1.
<mgrwt>
<rscale>  0 0.12329840E+04</rscale>
<asrwt>0</asrwt>
<pdfrwt beam="1">  1        1 0.18146724E+00 0.12329840E+04</pdfrwt>
<pdfrwt beam="2">  1       -2 0.21064807E+00 0.12329840E+04</pdfrwt>
<totfact> 0.10682933E+00</totfact>
</mgrwt>
</event>
<event>
12    3  0.1176505E-007  0.8236575E+03  0.7818608E-02  0.9526391E-01
          1   -1    0    0  501    0  0.00000000000E+00  0.00000000000E+00  0.34553539532E+03  0.34553539532E+03  0.00000000000E+00 0. -1.
         -2   -1    0    0    0  501 -0.00000000000E+00 -0.00000000000E+00 -0.20779942765E+04  0.20779942765E+04  0.00000000000E+00 0.  1.
        -24    2    1    2    0    0  0.71866323048E+03  0.24573855370E+02 -0.51712150340E+03  0.88918583183E+03  0.78460697441E+02 0.  0.
    5000000    2    1    2    0    0 -0.71866323048E+03 -0.24573855370E+02 -0.12153373778E+04  0.15343438400E+04  0.60007113270E+03 0.  0.
        -24    2    4    4    0    0 -0.16345044399E+03  0.25069360509E+03 -0.35792234972E+03  0.47338013721E+03  0.80106270691E+02 0.  0.
         24    2    4    4    0    0 -0.55521278650E+03 -0.27526746046E+03 -0.85741502811E+03  0.10609637028E+04  0.80312111265E+02 0.  0.
         11    1    5    5    0    0 -0.15691720852E+03  0.24200012681E+03 -0.30668752460E+03  0.42100393045E+03  0.00000000000E+00 0. -1.
        -12    1    5    5    0    0 -0.65332354697E+01  0.86934782812E+01 -0.51234825114E+02  0.52376206762E+02  0.00000000000E+00 0.  1.
         15    1    3    3    0    0  0.16922284428E+03 -0.27411089264E+02 -0.12532473803E+03  0.21236098166E+03  0.17770000000E+01 0. -1.
        -16    1    3    3    0    0  0.54944038621E+03  0.51984944634E+02 -0.39179676537E+03  0.67682485018E+03  0.00000000000E+00 0.  1.
          4    1    6    6  502    0 -0.23323777521E+03 -0.72764547266E+02 -0.32231032411E+03  0.40444837019E+03  0.00000000000E+00 0. -1.
         -1    1    6    6    0  502 -0.32197501129E+03 -0.20250291319E+03 -0.53510470399E+03  0.65651533263E+03  0.00000000000E+00 0.  1.
<mgrwt>
<rscale>  0 0.82365755E+03</rscale>
<asrwt>0</asrwt>
<pdfrwt beam="1">  1        1 0.53159292E-01 0.82365755E+03</pdfrwt>
<pdfrwt beam="2">  1       -2 0.31969142E+00 0.82365755E+03</pdfrwt>
<totfact> 0.15903274E+00</totfact>
</mgrwt>
</event>
<event>
12    3  0.1176505E-007  0.1445694E+04  0.7818608E-02  0.8921391E-01
         -2   -1    0    0    0  501 -0.00000000000E+00  0.00000000000E+00  0.27451883497E+04  0.27451883497E+04  0.00000000000E+00 0.  1.
          1   -1    0    0  501    0  0.00000000000E+00 -0.00000000000E+00 -0.81874403012E+03  0.81874403012E+03  0.00000000000E+00 0. -1.
        -24    2    1    2    0    0 -0.14111837502E+03 -0.13799697936E+04  0.47348038648E+03  0.14674745891E+04  0.71182625640E+02 0.  0.
    5000000    2    1    2    0    0  0.14111837502E+03  0.13799697936E+04  0.14529639331E+04  0.20964577907E+04  0.59983335220E+03 0.  0.
        -24    2    4    4    0    0  0.83076976762E+01  0.13488615387E+04  0.12454139282E+04  0.18375530943E+04  0.77775660826E+02 0.  0.
         24    2    4    4    0    0  0.13281067735E+03  0.31108254884E+02  0.20755000492E+03  0.25890469642E+03  0.73131646704E+02 0.  0.
         13    1    5    5    0    0  0.22264171985E+02  0.32063133400E+03  0.26161451144E+03  0.41441802361E+03  0.00000000000E+00 0. -1.
        -14    1    5    5    0    0 -0.13956474309E+02  0.10282302047E+04  0.98379941672E+03  0.14231350707E+04  0.00000000000E+00 0.  1.
         15    1    3    3    0    0 -0.13963960107E+03 -0.11153301600E+04  0.37102654183E+03  0.11836910224E+04  0.17770000000E+01 0. -1.
        -16    1    3    3    0    0 -0.14787739507E+01 -0.26463963363E+03  0.10245384466E+03  0.28378356673E+03  0.00000000000E+00 0.  1.
          4    1    6    6  502    0  0.64409774035E+02  0.50537742666E+02  0.13052438537E+03  0.15407562299E+03  0.00000000000E+00 0. -1.
         -3    1    6    6    0  502  0.68400903312E+02 -0.19429487782E+02  0.77025619552E+02  0.10482907343E+03  0.00000000000E+00 0.  1.
<mgrwt>
<rscale>  0 0.14456940E+04</rscale>
<asrwt>0</asrwt>
<pdfrwt beam="1">  1        1 0.12596062E+00 0.14456940E+04</pdfrwt>
<pdfrwt beam="2">  1       -2 0.42233667E+00 0.14456940E+04</pdfrwt>
<totfact> 0.94806281E-02</totfact>
</mgrwt>
</event>
<event>
12    3  0.1176505E-007  0.6470166E+03  0.7818608E-02  0.9812393E-01
         -2   -1    0    0    0  501 -0.00000000000E+00  0.00000000000E+00  0.79274315066E+03  0.79274315066E+03  0.00000000000E+00 0.  1.
          1   -1    0    0  501    0  0.00000000000E+00 -0.00000000000E+00 -0.70859269858E+03  0.70859269858E+03  0.00000000000E+00 0. -1.
        -24    2    1    2    0    0  0.18208490432E+03  0.50453817520E+03 -0.28845801565E+03  0.61451151031E+03  0.81869938930E+02 0.  0.
    5000000    2    1    2    0    0 -0.18208490432E+03 -0.50453817520E+03  0.37260846772E+03  0.88682433894E+03  0.59992220770E+03 0.  0.
        -24    2    4    4    0    0 -0.36530882630E+03 -0.27867187206E+03  0.35780412239E+03  0.58773606171E+03  0.79380963648E+02 0.  0.
         24    2    4    4    0    0  0.18322392198E+03 -0.22586630314E+03  0.14804345331E+02  0.29908827722E+03  0.68176509534E+02 0.  0.
         11    1    5    5    0    0 -0.18754110331E+03 -0.15084062358E+03  0.13775234571E+03  0.27730897551E+03  0.00000000000E+00 0. -1.
        -12    1    5    5    0    0 -0.17776772299E+03 -0.12783124848E+03  0.22005177669E+03  0.31042708620E+03  0.00000000000E+00 0.  1.
         15    1    3    3    0    0 -0.16829218524E+01  0.78503547947E+02 -0.45532970662E+02  0.90785728022E+02  0.17770000000E+01 0. -1.
        -16    1    3    3    0    0  0.18376782617E+03  0.42603462725E+03 -0.24292504498E+03  0.52372578229E+03  0.00000000000E+00 0.  1.
          2    1    6    6  502    0  0.14526966247E+03 -0.19374902902E+03 -0.12276248044E+02  0.24247199291E+03  0.00000000000E+00 0. -1.
         -1    1    6    6    0  502  0.37954259504E+02 -0.32117274120E+02  0.27080593375E+02  0.56616284309E+02  0.00000000000E+00 0.  1.
<mgrwt>
<rscale>  0 0.64701661E+03</rscale>
<asrwt>0</asrwt>
<pdfrwt beam="1">  1        1 0.10901426E+00 0.64701661E+03</pdfrwt>
<pdfrwt beam="2">  1       -2 0.12196048E+00 0.64701661E+03</pdfrwt>
<totfact> 0.12332653E+01</totfact>
</mgrwt>
</event>
<event>
12    3  0.1176505E-007  0.6015467E+03  0.7818608E-02  0.9902202E-01
          1   -1    0    0  501    0  0.00000000000E+00  0.00000000000E+00  0.19053154367E+04  0.19053154367E+04  0.00000000000E+00 0. -1.
         -2   -1    0    0    0  501 -0.00000000000E+00 -0.00000000000E+00 -0.28766133544E+03  0.28766133544E+03  0.00000000000E+00 0.  1.
        -24    2    1    2    0    0 -0.16067240071E+03  0.52335141774E+03  0.10955827925E+04  0.12273344245E+04  0.79597786019E+02 0.  0.
    5000000    2    1    2    0    0  0.16067240071E+03 -0.52335141774E+03  0.52207130868E+03  0.96564234757E+03  0.60016194920E+03 0.  0.
        -24    2    4    4    0    0  0.13310681410E+03 -0.22791613353E+02  0.41953877141E+03  0.44784324750E+03  0.79460128452E+02 0.  0.
         24    2    4    4    0    0  0.27565586608E+02 -0.50055980439E+03  0.10253253727E+03  0.51779910007E+03  0.79265424377E+02 0.  0.
         11    1    5    5    0    0  0.63716493831E+02 -0.39433034673E+02  0.29442552768E+03  0.30381103857E+03  0.00000000000E+00 0. -1.
        -12    1    5    5    0    0  0.69390320271E+02  0.16641421320E+02  0.12511324373E+03  0.14403220892E+03  0.00000000000E+00 0.  1.
         15    1    3    3    0    0 -0.86243112411E+02  0.35306171058E+03  0.79150808199E+03  0.87096420564E+03  0.17770000000E+01 0. -1.
        -16    1    3    3    0    0 -0.74429288299E+02  0.17028970716E+03  0.30407471054E+03  0.35637021889E+03  0.00000000000E+00 0.  1.
          2    1    6    6  502    0  0.55591394431E+02 -0.32089923270E+03  0.68661629248E+02  0.33283800867E+03  0.00000000000E+00 0. -1.
         -3    1    6    6    0  502 -0.28025807823E+02 -0.17966057169E+03  0.33870908026E+02  0.18496109141E+03  0.00000000000E+00 0.  1.
<mgrwt>
<rscale>  0 0.60154674E+03</rscale>
<asrwt>0</asrwt>
<pdfrwt beam="1">  1        1 0.29312544E+00 0.60154674E+03</pdfrwt>
<pdfrwt beam="2">  1       -2 0.44255591E-01 0.60154674E+03</pdfrwt>
<totfact> 0.15596001E+01</totfact>
</mgrwt>
</event>
<event>
12    3  0.1176505E-007  0.1187187E+04  0.7818608E-02  0.9124146E-01
          1   -1    0    0  501    0  0.00000000000E+00  0.00000000000E+00  0.14856544459E+04  0.14856544459E+04  0.00000000000E+00 0. -1.
         -2   -1    0    0    0  501 -0.00000000000E+00 -0.00000000000E+00 -0.10820382484E+04  0.10820382484E+04  0.00000000000E+00 0.  1.
        -24    2    1    2    0    0 -0.60206882872E+03 -0.10040679125E+04 -0.54336043654E+02  0.11747296356E+04  0.79987896769E+02 0.  0.
    5000000    2    1    2    0    0  0.60206882872E+03  0.10040679125E+04  0.45795224117E+03  0.13929630586E+04  0.59998881652E+03 0.  0.
        -24    2    4    4    0    0  0.40369713180E+02  0.28047887713E+03  0.36445503349E+03  0.46864496687E+03  0.80638199845E+02 0.  0.
         24    2    4    4    0    0  0.56169911554E+03  0.72358903542E+03  0.93497207675E+02  0.92431809174E+03  0.80840697125E+02 0.  0.
         11    1    5    5    0    0  0.29094707709E+02  0.23474673046E+03  0.24651001659E+03  0.34164267555E+03  0.00000000000E+00 0. -1.
        -12    1    5    5    0    0  0.11275005471E+02  0.45732146671E+02  0.11794501691E+03  0.12700229132E+03  0.00000000000E+00 0.  1.
         15    1    3    3    0    0 -0.17293989117E+03 -0.25654662467E+03  0.16838295553E+02  0.30985651923E+03  0.17770000000E+01 0. -1.
        -16    1    3    3    0    0 -0.42912893755E+03 -0.74752128788E+03 -0.71174339207E+02  0.86487311638E+03  0.00000000000E+00 0.  1.
          4    1    6    6  502    0  0.37387450724E+03  0.41907280105E+03  0.66178936498E+02  0.56549430711E+03  0.00000000000E+00 0. -1.
         -3    1    6    6    0  502  0.18782460830E+03  0.30451623437E+03  0.27318271176E+02  0.35882378463E+03  0.00000000000E+00 0.  1.
<mgrwt>
<rscale>  0 0.11871867E+04</rscale>
<asrwt>0</asrwt>
<pdfrwt beam="1">  1        1 0.22856222E+00 0.11871867E+04</pdfrwt>
<pdfrwt beam="2">  1       -2 0.16646742E+00 0.11871867E+04</pdfrwt>
<totfact> 0.12946986E+00</totfact>
</mgrwt>
</event>
<event>
12    3  0.1176505E-007  0.7199447E+03  0.7818608E-02  0.9683719E-01
         -2   -1    0    0    0  501 -0.00000000000E+00  0.00000000000E+00  0.56409753054E+03  0.56409753054E+03  0.00000000000E+00 0.  1.
          1   -1    0    0  501    0  0.00000000000E+00 -0.00000000000E+00 -0.13596457900E+04  0.13596457900E+04  0.00000000000E+00 0. -1.
        -24    2    1    2    0    0 -0.22937124620E+03  0.60322469013E+03  0.11089684657E+03  0.65961790517E+03  0.79413316755E+02 0.  0.
    5000000    2    1    2    0    0  0.22937124620E+03 -0.60322469013E+03 -0.90644510601E+03  0.12641254154E+04  0.59989927502E+03 0.  0.
        -24    2    4    4    0    0  0.50373684114E+02 -0.60263623812E+03 -0.42328300667E+03  0.74253326371E+03  0.80493480655E+02 0.  0.
         24    2    4    4    0    0  0.17899756209E+03 -0.58845200611E+00 -0.48316209935E+03  0.52159215165E+03  0.81069630007E+02 0.  0.
         11    1    5    5    0    0 -0.13858259471E+02 -0.29835025112E+03 -0.22094376413E+03  0.37151187142E+03  0.00000000000E+00 0. -1.
        -12    1    5    5    0    0  0.64231943585E+02 -0.30428598700E+03 -0.20233924254E+03  0.37102139229E+03  0.00000000000E+00 0.  1.
         15    1    3    3    0    0 -0.14792818776E+03  0.44926726195E+03  0.10919114525E+03  0.48543762248E+03  0.17770000000E+01 0. -1.
        -16    1    3    3    0    0 -0.81443058438E+02  0.15395742818E+03  0.17057013195E+01  0.17418028269E+03  0.00000000000E+00 0.  1.
          2    1    6    6  502    0  0.13884723952E+03  0.15690891518E+02 -0.26937805064E+03  0.30346217914E+03  0.00000000000E+00 0. -1.
         -3    1    6    6    0  502  0.40150322565E+02 -0.16279343524E+02 -0.21378404871E+03  0.21812997251E+03  0.00000000000E+00 0.  1.
<mgrwt>
<rscale>  0 0.71994468E+03</rscale>
<asrwt>0</asrwt>
<pdfrwt beam="1">  1        1 0.20917628E+00 0.71994468E+03</pdfrwt>
<pdfrwt beam="2">  1       -2 0.86784236E-01 0.71994468E+03</pdfrwt>
<totfact> 0.85518856E+00</totfact>
</mgrwt>
</event>
<event>
12    3  0.1176505E-007  0.1051815E+04  0.7818608E-02  0.9253472E-01
         -2   -1    0    0    0  501 -0.00000000000E+00  0.00000000000E+00  0.88278252164E+03  0.88278252164E+03  0.00000000000E+00 0.  1.
          1   -1    0    0  501    0  0.00000000000E+00 -0.00000000000E+00 -0.14265782100E+04  0.14265782100E+04  0.00000000000E+00 0. -1.
        -24    2    1    2    0    0  0.62083117664E+03  0.81088647311E+03 -0.45876236120E+03  0.11218567049E+04  0.71633372489E+02 0.  0.
    5000000    2    1    2    0    0 -0.62083117664E+03 -0.81088647311E+03 -0.85033327173E+02  0.11875040268E+04  0.59997243664E+03 0.  0.
        -24    2    4    4    0    0  0.18984910931E+02 -0.16297264113E+03  0.15939209979E+03  0.24190405365E+03  0.78684312895E+02 0.  0.
         24    2    4    4    0    0 -0.63981608757E+03 -0.64791383199E+03 -0.24442542697E+03  0.94559997314E+03  0.72515931048E+02 0.  0.
         13    1    5    5    0    0  0.14013918633E+02 -0.16368611358E+03  0.12315580045E+03  0.20532141846E+03  0.00000000000E+00 0. -1.
        -14    1    5    5    0    0  0.49709922982E+01  0.71347244965E+00  0.36236299342E+02  0.36582635189E+02  0.00000000000E+00 0.  1.
         15    1    3    3    0    0  0.35056692814E+03  0.51484890751E+03 -0.27400008284E+03  0.68047466653E+03  0.17770000000E+01 0. -1.
        -16    1    3    3    0    0  0.27026424850E+03  0.29603756561E+03 -0.18476227836E+03  0.44138203834E+03  0.00000000000E+00 0.  1.
          2    1    6    6  502    0 -0.40965055435E+03 -0.41901242368E+03 -0.19290882386E+03  0.61692690183E+03  0.00000000000E+00 0. -1.
         -1    1    6    6    0  502 -0.23016553322E+03 -0.22890140830E+03 -0.51516603105E+02  0.32867307131E+03  0.00000000000E+00 0.  1.
<mgrwt>
<rscale>  0 0.10518153E+04</rscale>
<asrwt>0</asrwt>
<pdfrwt beam="1">  1        1 0.21947357E+00 0.10518153E+04</pdfrwt>
<pdfrwt beam="2">  1       -2 0.13581270E+00 0.10518153E+04</pdfrwt>
<totfact> 0.24884594E+00</totfact>
</mgrwt>
</event>
<event>
12    3  0.2009375E-007  0.5906884E+03  0.7818608E-02  0.9924915E-01
          1   -1    0    0  501    0  0.00000000000E+00  0.00000000000E+00  0.17981402701E+04  0.17981402701E+04  0.00000000000E+00 0. -1.
         -2   -1    0    0    0  501 -0.00000000000E+00 -0.00000000000E+00 -0.29006031576E+03  0.29006031576E+03  0.00000000000E+00 0.  1.
        -24    2    1    2    0    0 -0.51731964928E+02 -0.46727997542E+03  0.10018175861E+03  0.48719082439E+03  0.79320507972E+02 0.  0.
    5000000    2    1    2    0    0  0.51731964928E+02  0.46727997542E+03  0.14078981958E+04  0.16010097615E+04  0.60002346217E+03 0.  0.
        -24    2    4    4    0    0  0.14093423398E+03 -0.65734232558E+02  0.60623331900E+03  0.63099533303E+03  0.80329481562E+02 0.  0.
         24    2    4    4    0    0 -0.89202269052E+02  0.53301420798E+03  0.80166487676E+03  0.97001442846E+03  0.78741514328E+02 0.  0.
         11    1    5    5    0    0  0.59852838749E+02 -0.57335833370E+02  0.19705801310E+03  0.21377937371E+03  0.00000000000E+00 0. -1.
        -12    1    5    5    0    0  0.81081395230E+02 -0.83983991884E+01  0.40917530589E+03  0.41721595932E+03  0.00000000000E+00 0.  1.
         15    1    3    3    0    0 -0.61353407031E+02 -0.20703044731E+03  0.35309882100E+02  0.21880537509E+03  0.17770000000E+01 0. -1.
        -16    1    3    3    0    0  0.96214421033E+01 -0.26024952811E+03  0.64871876509E+02  0.26838544929E+03  0.00000000000E+00 0.  1.
          2    1    6    6  502    0 -0.42922627223E+02  0.21432837916E+03  0.25813654856E+03  0.33825062268E+03  0.00000000000E+00 0. -1.
         -1    1    6    6    0  502 -0.46279641829E+02  0.31868582882E+03  0.54352832820E+03  0.63176380578E+03  0.00000000000E+00 0.  1.
<mgrwt>
<rscale>  0 0.59068839E+03</rscale>
<asrwt>0</asrwt>
<pdfrwt beam="1">  1        1 0.27663696E+00 0.59068839E+03</pdfrwt>
<pdfrwt beam="2">  1       -2 0.44624665E-01 0.59068839E+03</pdfrwt>
<totfact> 0.18111262E+01</totfact>
</mgrwt>
</event>
<event>
12    3  0.1176505E-007  0.7500123E+03  0.7818608E-02  0.9635331E-01
         -2   -1    0    0    0  501 -0.00000000000E+00  0.00000000000E+00  0.23339863127E+04  0.23339863127E+04  0.00000000000E+00 0.  1.
          1   -1    0    0  501    0  0.00000000000E+00 -0.00000000000E+00 -0.25485347357E+03  0.25485347357E+03  0.00000000000E+00 0. -1.
        -24    2    1    2    0    0 -0.63644055438E+03 -0.11038513263E+03  0.10448945265E+04  0.12298423225E+04  0.58873676557E+02 0.  0.
    5000000    2    1    2    0    0  0.63644055438E+03  0.11038513263E+03  0.10342383126E+04  0.13589974638E+04  0.59998646870E+03 0.  0.
        -24    2    4    4    0    0  0.64071456618E+03 -0.87290997518E+02  0.65442083624E+03  0.92340070059E+03  0.79166592627E+02 0.  0.
         24    2    4    4    0    0 -0.42740117990E+01  0.19767613015E+03  0.37981747639E+03  0.43559676324E+03  0.79931878271E+02 0.  0.
         13    1    5    5    0    0  0.10412619441E+03 -0.29878566493E+02  0.75998665423E+02  0.13232834256E+03  0.00000000000E+00 0. -1.
        -14    1    5    5    0    0  0.53658837177E+03 -0.57412431025E+02  0.57842217081E+03  0.79107235803E+03  0.00000000000E+00 0.  1.
         15    1    3    3    0    0 -0.54294401222E+03 -0.10589283430E+03  0.92422075606E+03  0.10771205394E+04  0.17770000000E+01 0. -1.
        -16    1    3    3    0    0 -0.93496542159E+02 -0.44922983388E+01  0.12067377047E+03  0.15272178306E+03  0.00000000000E+00 0.  1.
          4    1    6    6  502    0  0.23903614561E+02  0.12601578068E+03  0.17646767046E+03  0.21815636247E+03  0.00000000000E+00 0. -1.
         -3    1    6    6    0  502 -0.28177626360E+02  0.71660349473E+02  0.20334980593E+03  0.21744040077E+03  0.00000000000E+00 0.  1.
<mgrwt>
<rscale>  0 0.75001228E+03</rscale>
<asrwt>0</asrwt>
<pdfrwt beam="1">  1        1 0.39208228E-01 0.75001228E+03</pdfrwt>
<pdfrwt beam="2">  1       -2 0.35907480E+00 0.75001228E+03</pdfrwt>
<totfact> 0.13656040E+00</totfact>
</mgrwt>
</event>
<event>
12    3  0.1176505E-007  0.1472150E+04  0.7818608E-02  0.8903187E-01
          1   -1    0    0  501    0  0.00000000000E+00  0.00000000000E+00  0.16888503535E+04  0.16888503535E+04  0.00000000000E+00 0. -1.
         -2   -1    0    0    0  501 -0.00000000000E+00 -0.00000000000E+00 -0.13800185499E+04  0.13800185499E+04  0.00000000000E+00 0.  1.
        -24    2    1    2    0    0 -0.97526827695E+03 -0.10779599204E+04 -0.46951228241E+02  0.14565134125E+04  0.77981412790E+02 0.  0.
    5000000    2    1    2    0    0  0.97526827695E+03  0.10779599204E+04  0.35578303186E+03  0.16123554909E+04  0.59996905020E+03 0.  0.
        -24    2    4    4    0    0  0.59165198866E+03  0.85105634502E+03  0.47668008908E+03  0.11436058752E+04  0.79129718100E+02 0.  0.
         24    2    4    4    0    0  0.38361628828E+03  0.22690357542E+03 -0.12089705722E+03  0.46874961575E+03  0.80395364558E+02 0.  0.
         13    1    5    5    0    0  0.39198514174E+03  0.60492850685E+03  0.30008948280E+03  0.78079737924E+03  0.00000000000E+00 0. -1.
        -14    1    5    5    0    0  0.19966684693E+03  0.24612783816E+03  0.17659060629E+03  0.36280849592E+03  0.00000000000E+00 0.  1.
         15    1    3    3    0    0 -0.37462432220E+02 -0.49041837420E+02  0.12818589048E+02  0.63055607202E+02  0.17770000000E+01 0. -1.
        -16    1    3    3    0    0 -0.93780584473E+03 -0.10289180830E+04 -0.59769817289E+02  0.13934578053E+04  0.00000000000E+00 0.  1.
          4    1    6    6  502    0  0.14000740758E+03  0.40086152342E+02 -0.46380729912E+02  0.15284026267E+03  0.00000000000E+00 0. -1.
         -3    1    6    6    0  502  0.24360888071E+03  0.18681742308E+03 -0.74516327310E+02  0.31590935308E+03  0.00000000000E+00 0.  1.
<mgrwt>
<rscale>  0 0.14721504E+04</rscale>
<asrwt>0</asrwt>
<pdfrwt beam="1">  1        1 0.25982313E+00 0.14721504E+04</pdfrwt>
<pdfrwt beam="2">  1       -2 0.21231055E+00 0.14721504E+04</pdfrwt>
<totfact> 0.44470523E-01</totfact>
</mgrwt>
</event>
<event>
12    3  0.1176505E-007  0.5086579E+03  0.7818608E-02  0.1011543E+00
         -2   -1    0    0    0  501 -0.00000000000E+00  0.00000000000E+00  0.19763295879E+03  0.19763295879E+03  0.00000000000E+00 0.  1.
          1   -1    0    0  501    0  0.00000000000E+00 -0.00000000000E+00 -0.17478216248E+04  0.17478216248E+04  0.00000000000E+00 0. -1.
        -24    2    1    2    0    0 -0.18879515798E+03  0.30076351739E+03 -0.17587850049E+03  0.40445918630E+03  0.80942457197E+02 0.  0.
    5000000    2    1    2    0    0  0.18879515798E+03 -0.30076351739E+03 -0.13743101655E+04  0.15409953973E+04  0.59986338308E+03 0.  0.
        -24    2    4    4    0    0 -0.64069516609E+02 -0.38034858114E+03 -0.10018589535E+04  0.10769345517E+04  0.85420839190E+02 0.  0.
         24    2    4    4    0    0  0.25286467459E+03  0.79585063755E+02 -0.37245121203E+03  0.46406084562E+03  0.79738554446E+02 0.  0.
         13    1    5    5    0    0 -0.37771411752E+02 -0.26917605281E+03 -0.80097317401E+03  0.84583713115E+03  0.00000000000E+00 0. -1.
        -14    1    5    5    0    0 -0.26298104857E+02 -0.11117252834E+03 -0.20088577949E+03  0.23109742053E+03  0.00000000000E+00 0.  1.
         15    1    3    3    0    0 -0.16694172946E+03  0.29016806067E+03 -0.17957767739E+03  0.37989254324E+03  0.17770000000E+01 0. -1.
        -16    1    3    3    0    0 -0.21853428522E+02  0.10595456723E+02  0.36991768978E+01  0.24566643057E+02  0.00000000000E+00 0.  1.
          2    1    6    6  502    0  0.10433810729E+03  0.13760247978E+01 -0.18529746929E+03  0.21265814398E+03  0.00000000000E+00 0. -1.
         -1    1    6    6    0  502  0.14852656730E+03  0.78209038957E+02 -0.18715374275E+03  0.25140270164E+03  0.00000000000E+00 0.  1.
<mgrwt>
<rscale>  0 0.50865795E+03</rscale>
<asrwt>0</asrwt>
<pdfrwt beam="1">  1        1 0.26889563E+00 0.50865795E+03</pdfrwt>
<pdfrwt beam="2">  1       -2 0.30405071E-01 0.50865795E+03</pdfrwt>
<totfact> 0.41325245E+01</totfact>
</mgrwt>
</event>
<event>
12    3  0.1176505E-007  0.8688024E+03  0.7818608E-02  0.9465443E-01
         -2   -1    0    0    0  501 -0.00000000000E+00  0.00000000000E+00  0.62624885870E+03  0.62624885870E+03  0.00000000000E+00 0.  1.
          1   -1    0    0  501    0  0.00000000000E+00 -0.00000000000E+00 -0.17566991860E+04  0.17566991860E+04  0.00000000000E+00 0. -1.
        -24    2    1    2    0    0  0.55991457335E+03 -0.65668899411E+03 -0.38967587086E+02  0.86765082590E+03  0.80961215400E+02 0.  0.
    5000000    2    1    2    0    0 -0.55991457335E+03  0.65668899411E+03 -0.10914827402E+04  0.15152972188E+04  0.60003860266E+03 0.  0.
        -24    2    4    4    0    0 -0.25698732922E+03  0.28961269825E+03 -0.92302844257E+03  0.10039676030E+04  0.77791000139E+02 0.  0.
         24    2    4    4    0    0 -0.30292724413E+03  0.36707629586E+03 -0.16845429761E+03  0.51132961578E+03  0.81062959296E+02 0.  0.
         11    1    5    5    0    0 -0.96601647058E+02  0.14772074835E+03 -0.34460030403E+03  0.38717265818E+03  0.00000000000E+00 0. -1.
        -12    1    5    5    0    0 -0.16038568216E+03  0.14189194990E+03 -0.57842813854E+03  0.61679494481E+03  0.00000000000E+00 0.  1.
         15    1    3    3    0    0  0.29198657874E+03 -0.30440020940E+03 -0.51090156170E+02  0.42488705727E+03  0.17770000000E+01 0. -1.
        -16    1    3    3    0    0  0.26792799461E+03 -0.35228878471E+03  0.12122569084E+02  0.44276376863E+03  0.00000000000E+00 0.  1.
          4    1    6    6  502    0 -0.53232516658E+01  0.39992047761E+02 -0.98045533481E+01  0.41519033692E+02  0.00000000000E+00 0. -1.
         -3    1    6    6    0  502 -0.29760399246E+03  0.32708424810E+03 -0.15864974426E+03  0.46981058209E+03  0.00000000000E+00 0.  1.
<mgrwt>
<rscale>  0 0.86880244E+03</rscale>
<asrwt>0</asrwt>
<pdfrwt beam="1">  1        1 0.27026141E+00 0.86880244E+03</pdfrwt>
<pdfrwt beam="2">  1       -2 0.96345979E-01 0.86880244E+03</pdfrwt>
<totfact> 0.35209123E+00</totfact>
</mgrwt>
</event>
<event>
12    3  0.1176505E-007  0.6646406E+03  0.7818608E-02  0.9779689E-01
         -2   -1    0    0    0  501 -0.00000000000E+00  0.00000000000E+00  0.25940169941E+03  0.25940169941E+03  0.00000000000E+00 0.  1.
          1   -1    0    0  501    0  0.00000000000E+00 -0.00000000000E+00 -0.20597200778E+04  0.20597200778E+04  0.00000000000E+00 0. -1.
        -24    2    1    2    0    0  0.21909971915E+03  0.49411149077E+03 -0.11818214575E+04  0.13019917537E+04  0.79559519019E+02 0.  0.
    5000000    2    1    2    0    0 -0.21909971915E+03 -0.49411149077E+03 -0.61849692087E+03  0.10171300235E+04  0.59988681540E+03 0.  0.
        -24    2    4    4    0    0 -0.15092019373E+03  0.99290995626E+02 -0.21492800431E+03  0.29185656924E+03  0.79690672520E+02 0.  0.
         24    2    4    4    0    0 -0.68179525421E+02 -0.59340248640E+03 -0.40356891656E+03  0.72527345423E+03  0.79867104924E+02 0.  0.
         13    1    5    5    0    0 -0.11775176142E+03  0.10234627078E+03 -0.20396146625E+03  0.25678885524E+03  0.00000000000E+00 0. -1.
        -14    1    5    5    0    0 -0.33168432317E+02 -0.30552751565E+01 -0.10966538057E+02  0.35067714006E+02  0.00000000000E+00 0.  1.
         15    1    3    3    0    0  0.13118190971E+03  0.27709969924E+03 -0.57630109446E+03  0.65277794537E+03  0.17770000000E+01 0. -1.
        -16    1    3    3    0    0  0.87917809446E+02  0.21701179153E+03 -0.60552036306E+03  0.64921380835E+03  0.00000000000E+00 0.  1.
          4    1    6    6  502    0  0.79333482123E+00 -0.18776619181E+03 -0.16300325464E+03  0.24865002150E+03  0.00000000000E+00 0. -1.
         -3    1    6    6    0  502 -0.68972860242E+02 -0.40563629459E+03 -0.24056566192E+03  0.47662343274E+03  0.00000000000E+00 0.  1.
<mgrwt>
<rscale>  0 0.66464055E+03</rscale>
<asrwt>0</asrwt>
<pdfrwt beam="1">  1        1 0.31688001E+00 0.66464055E+03</pdfrwt>
<pdfrwt beam="2">  1       -2 0.39907954E-01 0.66464055E+03</pdfrwt>
<totfact> 0.14924722E+01</totfact>
</mgrwt>
</event>
<event>
12    3  0.1176505E-007  0.7937311E+03  0.7818608E-02  0.9569136E-01
         -2   -1    0    0    0  501 -0.00000000000E+00  0.00000000000E+00  0.45626505394E+03  0.45626505394E+03  0.00000000000E+00 0.  1.
          1   -1    0    0  501    0  0.00000000000E+00 -0.00000000000E+00 -0.16058021170E+04  0.16058021170E+04  0.00000000000E+00 0. -1.
        -24    2    1    2    0    0 -0.62224340184E+03 -0.38184072806E+03 -0.70440031432E+03  0.10176155126E+04  0.79826912501E+02 0.  0.
    5000000    2    1    2    0    0  0.62224340184E+03  0.38184072806E+03 -0.44513674873E+03  0.10444516583E+04  0.59978608582E+03 0.  0.
        -24    2    4    4    0    0  0.66539336151E+03  0.39734044457E+03 -0.50996785612E+03  0.93135839618E+03  0.82057866382E+02 0.  0.
         24    2    4    4    0    0 -0.43149959669E+02 -0.15499716516E+02  0.64831107392E+02  0.11309326213E+03  0.80528586362E+02 0.  0.
         11    1    5    5    0    0  0.25419643900E+03  0.18786825422E+03 -0.17670220690E+03  0.36212426109E+03  0.00000000000E+00 0. -1.
        -12    1    5    5    0    0  0.41119692250E+03  0.20947219035E+03 -0.33326564922E+03  0.56923413510E+03  0.00000000000E+00 0.  1.
         15    1    3    3    0    0 -0.45139250275E+03 -0.23973296279E+03 -0.51588161511E+03  0.72619837753E+03  0.17770000000E+01 0. -1.
        -16    1    3    3    0    0 -0.17085089909E+03 -0.14210776527E+03 -0.18851869921E+03  0.29141713508E+03  0.00000000000E+00 0.  1.
          4    1    6    6  502    0 -0.78789738743E+01 -0.35264581527E+02  0.62992183302E+02  0.72620135615E+02  0.00000000000E+00 0. -1.
         -3    1    6    6    0  502 -0.35270985794E+02  0.19764865011E+02  0.18389240896E+01  0.40473126512E+02  0.00000000000E+00 0.  1.
<mgrwt>
<rscale>  0 0.79373113E+03</rscale>
<asrwt>0</asrwt>
<pdfrwt beam="1">  1        1 0.24704648E+00 0.79373113E+03</pdfrwt>
<pdfrwt beam="2">  1       -2 0.70194623E-01 0.79373113E+03</pdfrwt>
<totfact> 0.92190358E+00</totfact>
</mgrwt>
</event>
<event>
12    3  0.1176505E-007  0.1343095E+04  0.7818608E-02  0.8996072E-01
          1   -1    0    0  501    0  0.00000000000E+00  0.00000000000E+00  0.15450626526E+04  0.15450626526E+04  0.00000000000E+00 0. -1.
         -2   -1    0    0    0  501 -0.00000000000E+00 -0.00000000000E+00 -0.27737778057E+04  0.27737778057E+04  0.00000000000E+00 0.  1.
        -24    2    1    2    0    0  0.72099925512E+03 -0.11059280219E+04 -0.22046242062E+04  0.25708873383E+04  0.78594527364E+02 0.  0.
    5000000    2    1    2    0    0 -0.72099925512E+03  0.11059280219E+04  0.97590905317E+03  0.17479531200E+04  0.60002076138E+03 0.  0.
        -24    2    4    4    0    0 -0.51691299308E+03  0.49565782694E+03  0.22330120903E+03  0.75456669990E+03  0.81435562479E+02 0.  0.
         24    2    4    4    0    0 -0.20408626204E+03  0.61027019496E+03  0.75260784415E+03  0.99338642007E+03  0.79480181840E+02 0.  0.
         11    1    5    5    0    0 -0.42598675397E+03  0.44309556061E+03  0.20514235184E+03  0.64798285078E+03  0.00000000000E+00 0. -1.
        -12    1    5    5    0    0 -0.90926239106E+02  0.52562266330E+02  0.18158857190E+02  0.10658384912E+03  0.00000000000E+00 0.  1.
         15    1    3    3    0    0  0.32748246373E+03 -0.44113116257E+03 -0.87844218947E+03  0.10361010108E+04  0.17770000000E+01 0. -1.
        -16    1    3    3    0    0  0.39351679139E+03 -0.66479685932E+03 -0.13261820168E+04  0.15347863274E+04  0.00000000000E+00 0.  1.
          2    1    6    6  502    0 -0.20017236659E+03  0.57028164264E+03  0.67534625461E+03  0.90630165612E+03  0.00000000000E+00 0. -1.
         -1    1    6    6    0  502 -0.39138954522E+01  0.39988552320E+02  0.77261589542E+02  0.87084763954E+02  0.00000000000E+00 0.  1.
<mgrwt>
<rscale>  0 0.13430948E+04</rscale>
<asrwt>0</asrwt>
<pdfrwt beam="1">  1        1 0.23770195E+00 0.13430948E+04</pdfrwt>
<pdfrwt beam="2">  1       -2 0.42673504E+00 0.13430948E+04</pdfrwt>
<totfact> 0.25499463E-02</totfact>
</mgrwt>
</event>
<event>
12    3  0.1176505E-007  0.6692948E+03  0.7818608E-02  0.9771233E-01
          1   -1    0    0  501    0  0.00000000000E+00  0.00000000000E+00  0.28654759112E+03  0.28654759112E+03  0.00000000000E+00 0. -1.
         -2   -1    0    0    0  501 -0.00000000000E+00 -0.00000000000E+00 -0.17087228107E+04  0.17087228107E+04  0.00000000000E+00 0.  1.
        -24    2    1    2    0    0  0.27928263469E+03 -0.49398708662E+03 -0.55397425763E+03  0.79709831194E+03  0.80350538211E+02 0.  0.
    5000000    2    1    2    0    0 -0.27928263469E+03  0.49398708662E+03 -0.86820096197E+03  0.11981720899E+04  0.59985116058E+03 0.  0.
        -24    2    4    4    0    0 -0.39968763380E+03  0.48139158289E+03 -0.84228234989E+03  0.10509767395E+04  0.60203731407E+02 0.  0.
         24    2    4    4    0    0  0.12040499912E+03  0.12595503730E+02 -0.25918612088E+02  0.14719535043E+03  0.79615866572E+02 0.  0.
         13    1    5    5    0    0 -0.31231947964E+03  0.37796787964E+03 -0.69933829846E+03  0.85409439238E+03  0.00000000000E+00 0. -1.
        -14    1    5    5    0    0 -0.87368154162E+02  0.10342370325E+03 -0.14294405143E+03  0.19688234708E+03  0.00000000000E+00 0.  1.
         15    1    3    3    0    0  0.13781021787E+03 -0.28368978187E+03 -0.35502572785E+03  0.47488732732E+03  0.17770000000E+01 0. -1.
        -16    1    3    3    0    0  0.14147241681E+03 -0.21029730475E+03 -0.19894852978E+03  0.32221098462E+03  0.00000000000E+00 0.  1.
          4    1    6    6  502    0  0.11644790221E+03  0.34761657361E+02 -0.15939565833E+02  0.12256653912E+03  0.00000000000E+00 0. -1.
         -3    1    6    6    0  502  0.39570969037E+01 -0.22166153630E+02 -0.99790462546E+01  0.24628811316E+02  0.00000000000E+00 0.  1.
<mgrwt>
<rscale>  0 0.66929481E+03</rscale>
<asrwt>0</asrwt>
<pdfrwt beam="1">  1        1 0.44084245E-01 0.66929481E+03</pdfrwt>
<pdfrwt beam="2">  1       -2 0.26288043E+00 0.66929481E+03</pdfrwt>
<totfact> 0.45557265E+00</totfact>
</mgrwt>
</event>
<event>
12    3  0.1176505E-007  0.1776059E+04  0.7818608E-02  0.8719136E-01
          1   -1    0    0  501    0  0.00000000000E+00  0.00000000000E+00  0.30402413341E+04  0.30402413341E+04  0.00000000000E+00 0. -1.
         -2   -1    0    0    0  501 -0.00000000000E+00 -0.00000000000E+00 -0.25607842162E+04  0.25607842162E+04  0.00000000000E+00 0.  1.
        -24    2    1    2    0    0  0.13755252390E+04  0.10756074505E+04  0.23789788202E+04  0.29521043807E+04  0.79868498273E+02 0.  0.
    5000000    2    1    2    0    0 -0.13755252390E+04 -0.10756074505E+04 -0.18995217023E+04  0.26489211696E+04  0.59966623604E+03 0.  0.
        -24    2    4    4    0    0 -0.13603279238E+04 -0.90509825752E+03 -0.15621295643E+04  0.22619323640E+04  0.79964541651E+02 0.  0.
         24    2    4    4    0    0 -0.15197315231E+02 -0.17050919300E+03 -0.33739213799E+03  0.38698880557E+03  0.81378974995E+02 0.  0.
         13    1    5    5    0    0 -0.36420123974E+03 -0.24888870762E+03 -0.47108122446E+03  0.64537249077E+03  0.00000000000E+00 0. -1.
        -14    1    5    5    0    0 -0.99612668402E+03 -0.65620954989E+03 -0.10910483398E+04  0.16165598732E+04  0.00000000000E+00 0.  1.
         15    1    3    3    0    0  0.41943009313E+03  0.30580596641E+03  0.76188913504E+03  0.92190948793E+03  0.17770000000E+01 0. -1.
        -16    1    3    3    0    0  0.95609514585E+03  0.76980148411E+03  0.16170896852E+04  0.20301948928E+04  0.00000000000E+00 0.  1.
          4    1    6    6  502    0 -0.16175209524E+02 -0.12156497853E+03 -0.30379686815E+03  0.32761596192E+03  0.00000000000E+00 0. -1.
         -3    1    6    6    0  502  0.97789429294E+00 -0.48944214469E+02 -0.33595269839E+02  0.59372843648E+02  0.00000000000E+00 0.  1.
<mgrwt>
<rscale>  0 0.17760585E+04</rscale>
<asrwt>0</asrwt>
<pdfrwt beam="1">  1        1 0.46772944E+00 0.17760585E+04</pdfrwt>
<pdfrwt beam="2">  1       -2 0.39396680E+00 0.17760585E+04</pdfrwt>
<totfact> 0.36059638E-03</totfact>
</mgrwt>
</event>
<event>
12    3  0.1176505E-007  0.1308483E+04  0.7818608E-02  0.9022865E-01
         -4   -1    0    0    0  501 -0.00000000000E+00  0.00000000000E+00  0.10359885631E+04  0.10359885631E+04  0.00000000000E+00 0.  1.
          3   -1    0    0  501    0  0.00000000000E+00 -0.00000000000E+00 -0.16788478325E+04  0.16788478325E+04  0.00000000000E+00 0. -1.
        -24    2    1    2    0    0 -0.30945760098E+03  0.12107109391E+04 -0.33742405538E+03  0.12953781731E+04  0.50642209520E+02 0.  0.
    5000000    2    1    2    0    0  0.30945760098E+03 -0.12107109391E+04 -0.30543521397E+03  0.14194582225E+04  0.59998832531E+03 0.  0.
        -24    2    4    4    0    0  0.23504721037E+03 -0.12335611980E+04 -0.21465031215E+03  0.12765658196E+04  0.81394808798E+02 0.  0.
         24    2    4    4    0    0  0.74410390600E+02  0.22850258873E+02 -0.90784901821E+02  0.14289240290E+03  0.78213169280E+02 0.  0.
         13    1    5    5    0    0  0.21284060746E+03 -0.94013178130E+03 -0.15484705218E+03  0.97628197769E+03  0.00000000000E+00 0. -1.
        -14    1    5    5    0    0  0.22206602919E+02 -0.29342941668E+03 -0.59803259966E+02  0.30028384187E+03  0.00000000000E+00 0.  1.
         15    1    3    3    0    0 -0.41663996223E+02  0.16580883458E+03 -0.64310317495E+02  0.18266754740E+03  0.17770000000E+01 0. -1.
        -16    1    3    3    0    0 -0.26779360475E+03  0.10449021045E+04 -0.27311373788E+03  0.11127106257E+04  0.00000000000E+00 0.  1.
          2    1    6    6  502    0  0.84258004615E+02  0.11175389337E-01 -0.60634509650E+02  0.10380729852E+03  0.00000000000E+00 0. -1.
         -1    1    6    6    0  502 -0.98476140147E+01  0.22839083483E+02 -0.30150392171E+02  0.39085104378E+02  0.00000000000E+00 0.  1.
<mgrwt>
<rscale>  0 0.13084833E+04</rscale>
<asrwt>0</asrwt>
<pdfrwt beam="1">  1        3 0.25828428E+00 0.13084833E+04</pdfrwt>
<pdfrwt beam="2">  1       -4 0.15938286E+00 0.13084833E+04</pdfrwt>
<totfact> 0.36027266E-02</totfact>
</mgrwt>
</event>
<event>
12    3  0.1176505E-007  0.5927711E+03  0.7818608E-02  0.9920518E-01
          1   -1    0    0  501    0  0.00000000000E+00  0.00000000000E+00  0.12966670094E+04  0.12966670094E+04  0.00000000000E+00 0. -1.
         -2   -1    0    0    0  501 -0.00000000000E+00 -0.00000000000E+00 -0.97041144727E+03  0.97041144727E+03  0.00000000000E+00 0.  1.
        -24    2    1    2    0    0 -0.42690227905E+03  0.39498535741E+03  0.10227087573E+04  0.11792732381E+04  0.80580266874E+02 0.  0.
    5000000    2    1    2    0    0  0.42690227905E+03 -0.39498535741E+03 -0.69645319514E+03  0.10878052186E+04  0.60001179333E+03 0.  0.
        -24    2    4    4    0    0  0.13492754514E+03 -0.18263547908E+03 -0.67589364335E+03  0.71803402760E+03  0.84731853621E+02 0.  0.
         24    2    4    4    0    0  0.29197473391E+03 -0.21234987834E+03 -0.20559551794E+02  0.36977119099E+03  0.77241973325E+02 0.  0.
         11    1    5    5    0    0  0.55031030877E+02 -0.15799847671E+02 -0.14993412868E+03  0.16049390171E+03  0.00000000000E+00 0. -1.
        -12    1    5    5    0    0  0.79896514264E+02 -0.16683563141E+03 -0.52595951467E+03  0.55754012589E+03  0.00000000000E+00 0.  1.
         15    1    3    3    0    0 -0.58849203177E+02  0.47207978462E+02  0.85686704133E+02  0.11418051909E+03  0.17770000000E+01 0. -1.
        -16    1    3    3    0    0 -0.36805307588E+03  0.34777737895E+03  0.93702205314E+03  0.10650927190E+04  0.00000000000E+00 0.  1.
          4    1    6    6  502    0  0.43027222973E+02 -0.23725420025E+02  0.23283860825E+02  0.54372563367E+02  0.00000000000E+00 0. -1.
         -3    1    6    6    0  502  0.24894751094E+03 -0.18862445831E+03 -0.43843412620E+02  0.31539862762E+03  0.00000000000E+00 0.  1.
<mgrwt>
<rscale>  0 0.59277110E+03</rscale>
<asrwt>0</asrwt>
<pdfrwt beam="1">  1        1 0.19948723E+00 0.59277110E+03</pdfrwt>
<pdfrwt beam="2">  1       -2 0.14929407E+00 0.59277110E+03</pdfrwt>
<totfact> 0.25666278E+00</totfact>
</mgrwt>
</event>
<event>
12    3  0.1176505E-007  0.1643591E+04  0.7818608E-02  0.8794207E-01
          3   -1    0    0  501    0  0.00000000000E+00  0.00000000000E+00  0.22267646334E+04  0.22267646334E+04  0.00000000000E+00 0. -1.
         -4   -1    0    0    0  501 -0.00000000000E+00 -0.00000000000E+00 -0.12622995509E+04  0.12622995509E+04  0.00000000000E+00 0.  1.
        -24    2    1    2    0    0  0.43279217464E+03  0.15618859205E+04  0.52960546862E+03  0.17069586092E+04  0.80181332306E+02 0.  0.
    5000000    2    1    2    0    0 -0.43279217464E+03 -0.15618859205E+04  0.43485961386E+03  0.17821055751E+04  0.60000058505E+03 0.  0.
        -24    2    4    4    0    0 -0.27535701767E+03 -0.14331666790E+04  0.22400026471E+03  0.14786017275E+04  0.79364557604E+02 0.  0.
         24    2    4    4    0    0 -0.15743515697E+03 -0.12871924151E+03  0.21085934915E+03  0.30350384764E+03  0.79362766000E+02 0.  0.
         13    1    5    5    0    0 -0.15420209335E+03 -0.99677362891E+03  0.15657697025E+03  0.10207116637E+04  0.00000000000E+00 0. -1.
        -14    1    5    5    0    0 -0.12115492432E+03 -0.43639305004E+03  0.67423294457E+02  0.45789006372E+03  0.00000000000E+00 0.  1.
         15    1    3    3    0    0  0.32576291001E+03  0.12789575736E+04  0.44610013251E+03  0.13931483893E+04  0.17770000000E+01 0. -1.
        -16    1    3    3    0    0  0.10702926462E+03  0.28292834685E+03  0.83505336110E+02  0.31381021987E+03  0.00000000000E+00 0.  1.
          4    1    6    6  502    0 -0.82309520004E+02 -0.68149019763E+02  0.16519089288E+03  0.19674139643E+03  0.00000000000E+00 0. -1.
         -3    1    6    6    0  502 -0.75125636961E+02 -0.60570221747E+02  0.45668456266E+02  0.10676245121E+03  0.00000000000E+00 0.  1.
<mgrwt>
<rscale>  0 0.16435910E+04</rscale>
<asrwt>0</asrwt>
<pdfrwt beam="1">  1        3 0.34257917E+00 0.16435910E+04</pdfrwt>
<pdfrwt beam="2">  1       -4 0.19419993E+00 0.16435910E+04</pdfrwt>
<totfact> 0.67445978E-03</totfact>
</mgrwt>
</event>
<event>
12    3  0.1176505E-007  0.8900188E+03  0.7818608E-02  0.9438145E-01
          1   -1    0    0  501    0  0.00000000000E+00  0.00000000000E+00  0.19589828827E+04  0.19589828827E+04  0.00000000000E+00 0. -1.
         -2   -1    0    0    0  501 -0.00000000000E+00 -0.00000000000E+00 -0.50916939314E+03  0.50916939314E+03  0.00000000000E+00 0.  1.
        -24    2    1    2    0    0 -0.25052726265E+03  0.77474514470E+03  0.11534067162E+04  0.14141648413E+04  0.80753927040E+02 0.  0.
    5000000    2    1    2    0    0  0.25052726265E+03 -0.77474514470E+03  0.29640677335E+03  0.10539874346E+04  0.60003215608E+03 0.  0.
        -24    2    4    4    0    0  0.26562371575E+03 -0.10044353520E+03 -0.37689215591E+02  0.29714767749E+03  0.78939236979E+02 0.  0.
         24    2    4    4    0    0 -0.15096453101E+02 -0.67430160950E+03  0.33409598894E+03  0.75683975706E+03  0.79219470881E+02 0.  0.
         13    1    5    5    0    0  0.20264787913E+03 -0.71931055184E+02  0.64431194595E+01  0.21513194417E+03  0.00000000000E+00 0. -1.
        -14    1    5    5    0    0  0.62975836620E+02 -0.28512480020E+02 -0.44132335051E+02  0.82015733319E+02  0.00000000000E+00 0.  1.
         15    1    3    3    0    0 -0.11058606936E+03  0.24388621249E+03  0.41840278792E+03  0.49676333807E+03  0.17770000000E+01 0. -1.
        -16    1    3    3    0    0 -0.13994119329E+03  0.53085893221E+03  0.73500392828E+03  0.91740150320E+03  0.00000000000E+00 0.  1.
          4    1    6    6  502    0  0.32529918068E+02 -0.24503037617E+03  0.11870855627E+03  0.27420758951E+03  0.00000000000E+00 0. -1.
         -3    1    6    6    0  502 -0.47626371169E+02 -0.42927123333E+03  0.21538743267E+03  0.48263216755E+03  0.00000000000E+00 0.  1.
<mgrwt>
<rscale>  0 0.89001878E+03</rscale>
<asrwt>0</asrwt>
<pdfrwt beam="1">  1        1 0.30138198E+00 0.89001878E+03</pdfrwt>
<pdfrwt beam="2">  1       -2 0.78333754E-01 0.89001878E+03</pdfrwt>
<totfact> 0.41281961E+00</totfact>
</mgrwt>
</event>
<event>
12    3  0.1176505E-007  0.5077362E+03  0.7818608E-02  0.1011779E+00
          1   -1    0    0  501    0  0.00000000000E+00  0.00000000000E+00  0.12849817844E+04  0.12849817844E+04  0.00000000000E+00 0. -1.
         -2   -1    0    0    0  501 -0.00000000000E+00 -0.00000000000E+00 -0.22999608392E+03  0.22999608392E+03  0.00000000000E+00 0.  1.
        -24    2    1    2    0    0  0.35071784993E+03 -0.86411995677E+02  0.49058858981E+03  0.61548890594E+03  0.87632103888E+02 0.  0.
    5000000    2    1    2    0    0 -0.35071784993E+03  0.86411995677E+02  0.56439711067E+03  0.89948896237E+03  0.60005520716E+03 0.  0.
        -24    2    4    4    0    0 -0.12171065195E+02  0.25533750688E+03  0.78986548950E+02  0.27904094336E+03  0.79243901406E+02 0.  0.
         24    2    4    4    0    0 -0.33854678473E+03 -0.16892551120E+03  0.48541056172E+03  0.62044801900E+03  0.78629365212E+02 0.  0.
         13    1    5    5    0    0  0.15837559646E+02  0.22760569099E+03  0.65289845988E+02  0.23731401740E+03  0.00000000000E+00 0. -1.
        -14    1    5    5    0    0 -0.28008624841E+02  0.27731815889E+02  0.13696702963E+02  0.41726925960E+02  0.00000000000E+00 0.  1.
         15    1    3    3    0    0  0.11220503576E+03 -0.44398761643E+02  0.10403959008E+03  0.15933804982E+03  0.17770000000E+01 0. -1.
        -16    1    3    3    0    0  0.23851281417E+03 -0.42013234034E+02  0.38654899973E+03  0.45615085613E+03  0.00000000000E+00 0.  1.
          2    1    6    6  502    0 -0.79153876467E+02 -0.75333851984E+02  0.16234373961E+03  0.19569367697E+03  0.00000000000E+00 0. -1.
         -1    1    6    6    0  502 -0.25939290827E+03 -0.93591659220E+02  0.32306682210E+03  0.42475434204E+03  0.00000000000E+00 0.  1.
<mgrwt>
<rscale>  0 0.50773617E+03</rscale>
<asrwt>0</asrwt>
<pdfrwt beam="1">  1        1 0.19768950E+00 0.50773617E+03</pdfrwt>
<pdfrwt beam="2">  1       -2 0.35384014E-01 0.50773617E+03</pdfrwt>
<totfact> 0.64103763E+01</totfact>
</mgrwt>
</event>
<event>
12    3  0.1176505E-007  0.7501165E+03  0.7818608E-02  0.9635168E-01
         -2   -1    0    0    0  501 -0.00000000000E+00  0.00000000000E+00  0.14603698459E+04  0.14603698459E+04  0.00000000000E+00 0.  1.
          1   -1    0    0  501    0  0.00000000000E+00 -0.00000000000E+00 -0.48998220182E+03  0.48998220182E+03  0.00000000000E+00 0. -1.
        -24    2    1    2    0    0 -0.51648969310E+03 -0.42906062000E+03  0.77586488151E+03  0.10291205581E+04  0.79171901762E+02 0.  0.
    5000000    2    1    2    0    0  0.51648969310E+03  0.42906062000E+03  0.19452276253E+03  0.92123148959E+03  0.59997811090E+03 0.  0.
        -24    2    4    4    0    0 -0.80453259122E+02  0.12047832002E+03 -0.88841722504E+02  0.18737205588E+03  0.78915671247E+02 0.  0.
         24    2    4    4    0    0  0.59694295222E+03  0.30858229998E+03  0.28336448503E+03  0.73385943371E+03  0.81794333591E+02 0.  0.
         11    1    5    5    0    0 -0.77496431236E+02  0.74895405861E+02 -0.28108561760E+02  0.11137822910E+03  0.00000000000E+00 0. -1.
        -12    1    5    5    0    0 -0.29568278858E+01  0.45582914161E+02 -0.60733160744E+02  0.75993826779E+02  0.00000000000E+00 0.  1.
         15    1    3    3    0    0 -0.21162595936E+03 -0.19784585720E+03  0.28114362548E+03  0.40369967273E+03  0.17770000000E+01 0. -1.
        -16    1    3    3    0    0 -0.30486373374E+03 -0.23121476280E+03  0.49472125604E+03  0.62542088537E+03  0.00000000000E+00 0.  1.
          4    1    6    6  502    0  0.10496009632E+03  0.79906524250E+02  0.31018486844E+02  0.13551317635E+03  0.00000000000E+00 0. -1.
         -3    1    6    6    0  502  0.49198285590E+03  0.22867577573E+03  0.25234599819E+03  0.59834625737E+03  0.00000000000E+00 0.  1.
<mgrwt>
<rscale>  0 0.75011650E+03</rscale>
<asrwt>0</asrwt>
<pdfrwt beam="1">  1        1 0.75381878E-01 0.75011650E+03</pdfrwt>
<pdfrwt beam="2">  1       -2 0.22467228E+00 0.75011650E+03</pdfrwt>
<totfact> 0.37910623E+00</totfact>
</mgrwt>
</event>
<event>
12    3  0.1176505E-007  0.1069070E+04  0.7818608E-02  0.9235874E-01
          1   -1    0    0  501    0  0.00000000000E+00  0.00000000000E+00  0.17832161955E+04  0.17832161955E+04  0.00000000000E+00 0. -1.
         -2   -1    0    0    0  501 -0.00000000000E+00 -0.00000000000E+00 -0.65574178673E+03  0.65574178673E+03  0.00000000000E+00 0.  1.
        -24    2    1    2    0    0 -0.99452065854E+03 -0.27820115542E+02  0.46030277678E+03  0.10992124414E+04  0.80895276959E+02 0.  0.
    5000000    2    1    2    0    0  0.99452065854E+03  0.27820115542E+02  0.66717163203E+03  0.13397455409E+04  0.59996235607E+03 0.  0.
        -24    2    4    4    0    0  0.54483278232E+03 -0.26254491770E+03  0.25939686746E+03  0.66218192453E+03  0.73658480972E+02 0.  0.
         24    2    4    4    0    0  0.44968787622E+03  0.29036503324E+03  0.40777476457E+03  0.67756361638E+03  0.79253751141E+02 0.  0.
         13    1    5    5    0    0  0.37219797924E+03 -0.17407660790E+03  0.13849600138E+03  0.43360713044E+03  0.00000000000E+00 0. -1.
        -14    1    5    5    0    0  0.17263480308E+03 -0.88468309800E+02  0.12090086608E+03  0.22857479409E+03  0.00000000000E+00 0.  1.
         15    1    3    3    0    0 -0.29128102173E+03  0.15439375666E+02  0.10404800368E+03  0.30969687234E+03  0.17770000000E+01 0. -1.
        -16    1    3    3    0    0 -0.70323963681E+03 -0.43259491207E+02  0.35625477310E+03  0.78951556901E+03  0.00000000000E+00 0.  1.
          4    1    6    6  502    0  0.11774935808E+03  0.54224816384E+02  0.64219087580E+02  0.14466973854E+03  0.00000000000E+00 0. -1.
         -3    1    6    6    0  502  0.33193851814E+03  0.23614021686E+03  0.34355567699E+03  0.53289387784E+03  0.00000000000E+00 0.  1.
<mgrwt>
<rscale>  0 0.10690702E+04</rscale>
<asrwt>0</asrwt>
<pdfrwt beam="1">  1        1 0.27434095E+00 0.10690702E+04</pdfrwt>
<pdfrwt beam="2">  1       -2 0.10088335E+00 0.10690702E+04</pdfrwt>
<totfact> 0.29550392E+00</totfact>
</mgrwt>
</event>
<event>
12    3  0.1176505E-007  0.4102311E+03  0.7818608E-02  0.1040293E+00
          1   -1    0    0  501    0  0.00000000000E+00  0.00000000000E+00  0.38049525697E+03  0.38049525697E+03  0.00000000000E+00 0. -1.
         -2   -1    0    0    0  501 -0.00000000000E+00 -0.00000000000E+00 -0.48970027375E+03  0.48970027375E+03  0.00000000000E+00 0.  1.
        -24    2    1    2    0    0  0.15638360246E+03  0.14179343132E+03 -0.19291197527E+02  0.22770766374E+03  0.83171037885E+02 0.  0.
    5000000    2    1    2    0    0 -0.15638360246E+03 -0.14179343132E+03 -0.89913819252E+02  0.64248786699E+03  0.60012078455E+03 0.  0.
        -24    2    4    4    0    0  0.77304837847E+02  0.18112521125E+03 -0.10249819462E+03  0.23598583807E+03  0.80006598257E+02 0.  0.
         24    2    4    4    0    0 -0.23368844030E+03 -0.32291864256E+03  0.12584375372E+02  0.40650202892E+03  0.78732434019E+02 0.  0.
         13    1    5    5    0    0  0.30000253994E+02  0.10142034157E+03 -0.11994416711E+02  0.10644231751E+03  0.00000000000E+00 0. -1.
        -14    1    5    5    0    0  0.47304583853E+02  0.79704869677E+02 -0.90503777912E+02  0.12954352056E+03  0.00000000000E+00 0.  1.
         15    1    3    3    0    0  0.60711151834E+02  0.17513401429E+02 -0.31053109153E+02  0.70427384615E+02  0.17770000000E+01 0. -1.
        -16    1    3    3    0    0  0.95672450622E+02  0.12428002989E+03  0.11761911626E+02  0.15728027913E+03  0.00000000000E+00 0.  1.
          2    1    6    6  502    0 -0.12692273296E+03 -0.13137394067E+03  0.35259939549E+02  0.18604234939E+03  0.00000000000E+00 0. -1.
         -1    1    6    6    0  502 -0.10676570734E+03 -0.19154470189E+03 -0.22675564178E+02  0.22045967953E+03  0.00000000000E+00 0.  1.
<mgrwt>
<rscale>  0 0.41023113E+03</rscale>
<asrwt>0</asrwt>
<pdfrwt beam="1">  1        1 0.58537732E-01 0.41023113E+03</pdfrwt>
<pdfrwt beam="2">  1       -2 0.75338503E-01 0.41023113E+03</pdfrwt>
<totfact> 0.91999570E+01</totfact>
</mgrwt>
</event>
<event>
12    3  0.1176505E-007  0.7669706E+03  0.7818608E-02  0.9609096E-01
          1   -1    0    0  501    0  0.00000000000E+00  0.00000000000E+00  0.16339996069E+04  0.16339996069E+04  0.00000000000E+00 0. -1.
         -2   -1    0    0    0  501 -0.00000000000E+00 -0.00000000000E+00 -0.50768311566E+03  0.50768311566E+03  0.00000000000E+00 0.  1.
        -24    2    1    2    0    0 -0.43251994316E+03 -0.50539455295E+03  0.10458040470E+04  0.12420242434E+04  0.80130900157E+02 0.  0.
    5000000    2    1    2    0    0  0.43251994316E+03  0.50539455295E+03  0.80512444273E+02  0.89965847915E+03  0.60033821305E+03 0.  0.
        -24    2    4    4    0    0  0.53550509295E+03  0.53428426516E+03  0.86834178705E+02  0.76550280637E+03  0.78923959575E+02 0.  0.
         24    2    4    4    0    0 -0.10298514978E+03 -0.28889712210E+02 -0.63217344318E+01  0.13415567279E+03  0.80729323467E+02 0.  0.
         11    1    5    5    0    0  0.45504957151E+03  0.41047385894E+03  0.65634972825E+02  0.61633339279E+03  0.00000000000E+00 0. -1.
        -12    1    5    5    0    0  0.80455521432E+02  0.12381040622E+03  0.21199205880E+02  0.14916941358E+03  0.00000000000E+00 0.  1.
         15    1    3    3    0    0 -0.29144483538E+03 -0.31191306078E+03  0.60602985624E+03  0.74128617546E+03  0.17770000000E+01 0. -1.
        -16    1    3    3    0    0 -0.14107510778E+03 -0.19348149217E+03  0.43977419075E+03  0.50073806795E+03  0.00000000000E+00 0.  1.
          2    1    6    6  502    0 -0.35940504762E+02 -0.12966116385E+02 -0.41815148003E+02  0.56642269192E+02  0.00000000000E+00 0. -1.
         -3    1    6    6    0  502 -0.67044645023E+02 -0.15923595825E+02  0.35493413572E+02  0.77513403597E+02  0.00000000000E+00 0.  1.
<mgrwt>
<rscale>  0 0.76697056E+03</rscale>
<asrwt>0</asrwt>
<pdfrwt beam="1">  1        1 0.25138455E+00 0.76697056E+03</pdfrwt>
<pdfrwt beam="2">  1       -2 0.78105095E-01 0.76697056E+03</pdfrwt>
<totfact> 0.69919687E+00</totfact>
</mgrwt>
</event>
<event>
12    3  0.1176505E-007  0.9078801E+03  0.7818608E-02  0.9415784E-01
          1   -1    0    0  501    0  0.00000000000E+00  0.00000000000E+00  0.12878219340E+04  0.12878219340E+04  0.00000000000E+00 0. -1.
         -2   -1    0    0    0  501 -0.00000000000E+00 -0.00000000000E+00 -0.74015581472E+03  0.74015581472E+03  0.00000000000E+00 0.  1.
        -24    2    1    2    0    0  0.62400400689E+03 -0.55049110796E+03 -0.55780784739E+02  0.83772239610E+03  0.79030730877E+02 0.  0.
    5000000    2    1    2    0    0 -0.62400400689E+03  0.55049110796E+03  0.60344690406E+03  0.11902553527E+04  0.60011513725E+03 0.  0.
        -24    2    4    4    0    0  0.32812096702E+02  0.25195564546E+03  0.35400845644E+02  0.26860407543E+03  0.79603068363E+02 0.  0.
         24    2    4    4    0    0 -0.65681610359E+03  0.29853546250E+03  0.56804605841E+03  0.92165127723E+03  0.78955278710E+02 0.  0.
         13    1    5    5    0    0  0.15724243440E+02  0.49027553409E+02 -0.23520245694E+02  0.56605254018E+02  0.00000000000E+00 0. -1.
        -14    1    5    5    0    0  0.17087853263E+02  0.20292809206E+03  0.58921091338E+02  0.21199882141E+03  0.00000000000E+00 0.  1.
         15    1    3    3    0    0  0.26031948681E+03 -0.17861570828E+03 -0.20349927870E+02  0.31636542755E+03  0.17770000000E+01 0. -1.
        -16    1    3    3    0    0  0.36368452007E+03 -0.37187539968E+03 -0.35430856869E+02  0.52135696855E+03  0.00000000000E+00 0.  1.
          4    1    6    6  502    0 -0.36566998609E+03  0.20360681937E+03  0.30376833989E+03  0.51715131242E+03  0.00000000000E+00 0. -1.
         -3    1    6    6    0  502 -0.29114611750E+03  0.94928643133E+02  0.26427771852E+03  0.40449996481E+03  0.00000000000E+00 0.  1.
<mgrwt>
<rscale>  0 0.90788010E+03</rscale>
<asrwt>0</asrwt>
<pdfrwt beam="1">  1        1 0.19812645E+00 0.90788010E+03</pdfrwt>
<pdfrwt beam="2">  1       -2 0.11387013E+00 0.90788010E+03</pdfrwt>
<totfact> 0.49323346E+00</totfact>
</mgrwt>
</event>
<event>
12    3  0.1176505E-007  0.4578873E+03  0.7818608E-02  0.1025396E+00
         -2   -1    0    0    0  501 -0.00000000000E+00  0.00000000000E+00  0.17930820430E+03  0.17930820430E+03  0.00000000000E+00 0.  1.
          1   -1    0    0  501    0  0.00000000000E+00 -0.00000000000E+00 -0.35582605961E+04  0.35582605961E+04  0.00000000000E+00 0. -1.
        -24    2    1    2    0    0  0.10075611307E+02  0.43670074023E+03 -0.22514421816E+03  0.49761531990E+03  0.78243422544E+02 0.  0.
    5000000    2    1    2    0    0 -0.10075611307E+02 -0.43670074023E+03 -0.31538081737E+04  0.32399534805E+04  0.59998625421E+03 0.  0.
        -24    2    4    4    0    0  0.15097911698E+01 -0.40381545292E+03 -0.96357989243E+03  0.10479823023E+04  0.81923729031E+02 0.  0.
         24    2    4    4    0    0 -0.11585402476E+02 -0.32885287306E+02 -0.21902282812E+04  0.21919711782E+04  0.80137747210E+02 0.  0.
         11    1    5    5    0    0  0.11457199919E+02 -0.26594887114E+03 -0.72402368783E+03  0.77140804379E+03  0.00000000000E+00 0. -1.
        -12    1    5    5    0    0 -0.99474087491E+01 -0.13786658178E+03 -0.23955620460E+03  0.27657425852E+03  0.00000000000E+00 0.  1.
         15    1    3    3    0    0 -0.41166898381E+01  0.41982455969E+03 -0.22317096872E+03  0.47547665249E+03  0.17770000000E+01 0. -1.
        -16    1    3    3    0    0  0.14192301145E+02  0.16876180536E+02 -0.19732494336E+01  0.22138667407E+02  0.00000000000E+00 0.  1.
          2    1    6    6  502    0  0.96288045814E+00 -0.49012036971E+02 -0.20084296314E+04  0.20090277975E+04  0.00000000000E+00 0. -1.
         -1    1    6    6    0  502 -0.12548282935E+02  0.16126749665E+02 -0.18179864983E+03  0.18294338069E+03  0.00000000000E+00 0.  1.
<mgrwt>
<rscale>  0 0.45788733E+03</rscale>
<asrwt>0</asrwt>
<pdfrwt beam="1">  1        1 0.54742469E+00 0.45788733E+03</pdfrwt>
<pdfrwt beam="2">  1       -2 0.27585878E-01 0.45788733E+03</pdfrwt>
<totfact> 0.27592975E+00</totfact>
</mgrwt>
</event>
<event>
12    3  0.1176505E-007  0.1525700E+04  0.7818608E-02  0.8867540E-01
         -2   -1    0    0    0  501 -0.00000000000E+00  0.00000000000E+00  0.19935806280E+04  0.19935806280E+04  0.00000000000E+00 0.  1.
          1   -1    0    0  501    0  0.00000000000E+00 -0.00000000000E+00 -0.12664909350E+04  0.12664909350E+04  0.00000000000E+00 0. -1.
        -24    2    1    2    0    0 -0.13145846033E+04 -0.76021072888E+03  0.14906402318E+03  0.15277336746E+04  0.75478911140E+02 0.  0.
    5000000    2    1    2    0    0  0.13145846033E+04  0.76021072888E+03  0.57802566981E+03  0.17323378883E+04  0.60068948104E+03 0.  0.
        -24    2    4    4    0    0  0.91238488790E+02  0.69091377946E+02 -0.98838444634E+02  0.17064888581E+03  0.79081753558E+02 0.  0.
         24    2    4    4    0    0  0.12233461145E+04  0.69111935093E+03  0.67686411445E+03  0.15616890025E+04  0.80658774264E+02 0.  0.
         11    1    5    5    0    0  0.22641904414E+01  0.28878954203E+02  0.35306432469E+01  0.29181946405E+02  0.00000000000E+00 0. -1.
        -12    1    5    5    0    0  0.88974298349E+02  0.40212423743E+02 -0.10236908788E+03  0.14146693940E+03  0.00000000000E+00 0.  1.
         15    1    3    3    0    0 -0.68344869094E+03 -0.41110235394E+03  0.11351417148E+03  0.80560280748E+03  0.17770000000E+01 0. -1.
        -16    1    3    3    0    0 -0.63113591237E+03 -0.34910837494E+03  0.35549851706E+02  0.72213086715E+03  0.00000000000E+00 0.  1.
          4    1    6    6  502    0  0.55545974560E+03  0.34264928571E+03  0.34911143806E+03  0.74015056452E+03  0.00000000000E+00 0. -1.
         -3    1    6    6    0  502  0.66788636892E+03  0.34847006522E+03  0.32775267639E+03  0.82153843795E+03  0.00000000000E+00 0.  1.
<mgrwt>
<rscale>  0 0.15256999E+04</rscale>
<asrwt>0</asrwt>
<pdfrwt beam="1">  1        1 0.19484476E+00 0.15256999E+04</pdfrwt>
<pdfrwt beam="2">  1       -2 0.30670471E+00 0.15256999E+04</pdfrwt>
<totfact> 0.22846395E-01</totfact>
</mgrwt>
</event>
<event>
12    3  0.1176505E-007  0.1762046E+04  0.7818608E-02  0.8726747E-01
          1   -1    0    0  501    0  0.00000000000E+00  0.00000000000E+00  0.21010139317E+04  0.21010139317E+04  0.00000000000E+00 0. -1.
         -2   -1    0    0    0  501 -0.00000000000E+00 -0.00000000000E+00 -0.16334253187E+04  0.16334253187E+04  0.00000000000E+00 0.  1.
        -24    2    1    2    0    0  0.61935131977E+03  0.15970002403E+04  0.79532954725E+03  0.18901723758E+04  0.78719099622E+02 0.  0.
    5000000    2    1    2    0    0 -0.61935131977E+03 -0.15970002403E+04 -0.32774093420E+03  0.18442668747E+04  0.59991696115E+03 0.  0.
        -24    2    4    4    0    0 -0.53025118663E+03 -0.57745266865E+03 -0.12736758133E+03  0.79816543696E+03  0.78915515126E+02 0.  0.
         24    2    4    4    0    0 -0.89100133144E+02 -0.10195475716E+04 -0.20037335287E+03  0.10461014377E+04  0.82235350632E+02 0.  0.
         13    1    5    5    0    0 -0.37794124788E+03 -0.45967887347E+03 -0.10574098478E+03  0.60442154944E+03  0.00000000000E+00 0. -1.
        -14    1    5    5    0    0 -0.15230993875E+03 -0.11777379518E+03 -0.21626596549E+02  0.19374388752E+03  0.00000000000E+00 0.  1.
         15    1    3    3    0    0  0.55598976964E+03  0.14490826032E+04  0.69538342062E+03  0.17007428595E+04  0.17770000000E+01 0. -1.
        -16    1    3    3    0    0  0.63361550129E+02  0.14791763705E+03  0.99946126634E+02  0.18942951622E+03  0.00000000000E+00 0.  1.
          4    1    6    6  502    0 -0.85576221961E+01 -0.12410529965E+03 -0.52234175774E+02  0.13492133789E+03  0.00000000000E+00 0. -1.
         -3    1    6    6    0  502 -0.80542510948E+02 -0.89544227197E+03 -0.14813917710E+03  0.91118009981E+03  0.00000000000E+00 0.  1.
<mgrwt>
<rscale>  0 0.17620464E+04</rscale>
<asrwt>0</asrwt>
<pdfrwt beam="1">  1        1 0.32323291E+00 0.17620464E+04</pdfrwt>
<pdfrwt beam="2">  1       -2 0.25129620E+00 0.17620464E+04</pdfrwt>
<totfact> 0.12859045E-01</totfact>
</mgrwt>
</event>
<event>
12    3  0.1176505E-007  0.3624787E+03  0.7818608E-02  0.1057607E+00
         -2   -1    0    0    0  501 -0.00000000000E+00  0.00000000000E+00  0.19829275185E+03  0.19829275185E+03  0.00000000000E+00 0.  1.
          1   -1    0    0  501    0  0.00000000000E+00 -0.00000000000E+00 -0.11023129027E+04  0.11023129027E+04  0.00000000000E+00 0. -1.
        -24    2    1    2    0    0 -0.15887528143E+03  0.19872389867E+03 -0.16118270808E+03  0.31223845978E+03  0.82343472306E+02 0.  0.
    5000000    2    1    2    0    0  0.15887528143E+03 -0.19872389867E+03 -0.74283744274E+03  0.98836719475E+03  0.60027468909E+03 0.  0.
        -24    2    4    4    0    0  0.15480931617E+03  0.77313984898E+02  0.11411691132E+01  0.18996603532E+03  0.78373564882E+02 0.  0.
         24    2    4    4    0    0  0.40659652555E+01 -0.27603788357E+03 -0.74397861186E+03  0.79840115943E+03  0.87902168595E+02 0.  0.
         11    1    5    5    0    0  0.14795947285E+03  0.42003921421E+02  0.42388434302E+01  0.15386455996E+03  0.00000000000E+00 0. -1.
        -12    1    5    5    0    0  0.68498433258E+01  0.35310063477E+02 -0.30976743170E+01  0.36101475351E+02  0.00000000000E+00 0.  1.
         15    1    3    3    0    0 -0.10464234676E+03  0.91777469181E+02 -0.47709475757E+02  0.14714780457E+03  0.17770000000E+01 0. -1.
        -16    1    3    3    0    0 -0.54232934667E+02  0.10694642949E+03 -0.11347323232E+03  0.16509065521E+03  0.00000000000E+00 0.  1.
          2    1    6    6  502    0  0.22298982518E+01 -0.20134267415E+03 -0.63583807396E+03  0.66695869526E+03  0.00000000000E+00 0. -1.
         -1    1    6    6    0  502  0.18360670038E+01 -0.74695209418E+02 -0.10814053789E+03  0.13144246417E+03  0.00000000000E+00 0.  1.
<mgrwt>
<rscale>  0 0.36247871E+03</rscale>
<asrwt>0</asrwt>
<pdfrwt beam="1">  1        1 0.16958659E+00 0.36247871E+03</pdfrwt>
<pdfrwt beam="2">  1       -2 0.30506578E-01 0.36247871E+03</pdfrwt>
<totfact> 0.11656706E+02</totfact>
</mgrwt>
</event>
<event>
12    3  0.1176505E-007  0.8100288E+03  0.7818608E-02  0.9545613E-01
          1   -1    0    0  501    0  0.00000000000E+00  0.00000000000E+00  0.26053408199E+04  0.26053408199E+04  0.00000000000E+00 0. -1.
         -2   -1    0    0    0  501 -0.00000000000E+00 -0.00000000000E+00 -0.31976737795E+03  0.31976737795E+03  0.00000000000E+00 0.  1.
        -24    2    1    2    0    0 -0.22271701881E+01  0.70650648410E+03  0.38043734037E+03  0.80638090147E+03  0.79757231389E+02 0.  0.
    5000000    2    1    2    0    0  0.22271701881E+01 -0.70650648410E+03  0.19051361016E+04  0.21187272964E+04  0.60025446145E+03 0.  0.
        -24    2    4    4    0    0  0.26546704062E+03 -0.18499204424E+03  0.59618393176E+03  0.68306406276E+03  0.80289646000E+02 0.  0.
         24    2    4    4    0    0 -0.26323987043E+03 -0.52151443986E+03  0.13089521698E+04  0.14356632336E+04  0.80626280489E+02 0.  0.
         13    1    5    5    0    0  0.98404365766E+02 -0.10036453299E+03  0.19558783416E+03  0.24085485163E+03  0.00000000000E+00 0. -1.
        -14    1    5    5    0    0  0.16706267486E+03 -0.84627511244E+02  0.40059609760E+03  0.44220921112E+03  0.00000000000E+00 0.  1.
         15    1    3    3    0    0  0.25127867453E+00  0.34080779410E+02  0.69926037465E+00  0.34135163105E+02  0.17770000000E+01 0. -1.
        -16    1    3    3    0    0 -0.24784488627E+01  0.67242570469E+03  0.37973807999E+03  0.77224573837E+03  0.00000000000E+00 0.  1.
          4    1    6    6  502    0 -0.80671488184E+02 -0.12001271526E+03  0.25508082807E+03  0.29321863802E+03  0.00000000000E+00 0. -1.
         -3    1    6    6    0  502 -0.18256838225E+03 -0.40150172460E+03  0.10538713417E+04  0.11424445956E+04  0.00000000000E+00 0.  1.
<mgrwt>
<rscale>  0 0.81002884E+03</rscale>
<asrwt>0</asrwt>
<pdfrwt beam="1">  1        1 0.40082165E+00 0.81002884E+03</pdfrwt>
<pdfrwt beam="2">  1       -2 0.49194983E-01 0.81002884E+03</pdfrwt>
<totfact> 0.41130987E+00</totfact>
</mgrwt>
</event>
<event>
12    3  0.1176505E-007  0.1404867E+04  0.7818608E-02  0.8950303E-01
         -2   -1    0    0    0  501 -0.00000000000E+00  0.00000000000E+00  0.93634027110E+03  0.93634027110E+03  0.00000000000E+00 0.  1.
          1   -1    0    0  501    0  0.00000000000E+00 -0.00000000000E+00 -0.22256525227E+04  0.22256525227E+04  0.00000000000E+00 0. -1.
        -24    2    1    2    0    0 -0.61127226292E+03  0.12324296593E+04 -0.73818588271E+03  0.15632544541E+04  0.79432022281E+02 0.  0.
    5000000    2    1    2    0    0  0.61127226292E+03 -0.12324296593E+04 -0.55112636889E+03  0.15987383397E+04  0.59973941003E+03 0.  0.
        -24    2    4    4    0    0  0.87091101102E+02 -0.60757175027E+03 -0.15424282325E+02  0.61976636924E+03  0.84523087586E+02 0.  0.
         24    2    4    4    0    0  0.52418116182E+03 -0.62485790903E+03 -0.53570208657E+03  0.97897197051E+03  0.78715288250E+02 0.  0.
         13    1    5    5    0    0  0.18285711594E+02 -0.34192731372E+03  0.20422325828E+02  0.34302438180E+03  0.00000000000E+00 0. -1.
        -14    1    5    5    0    0  0.68805389508E+02 -0.26564443655E+03 -0.35846608153E+02  0.27674198744E+03  0.00000000000E+00 0.  1.
         15    1    3    3    0    0 -0.28153520667E+03  0.64007002389E+03 -0.40113789648E+03  0.80614296362E+03  0.17770000000E+01 0. -1.
        -16    1    3    3    0    0 -0.32973705626E+03  0.59235963541E+03 -0.33704798623E+03  0.75711149044E+03  0.00000000000E+00 0.  1.
          2    1    6    6  502    0  0.15067430683E+03 -0.17080307754E+03 -0.19233384331E+03  0.29810861329E+03  0.00000000000E+00 0. -1.
         -1    1    6    6    0  502  0.37350685499E+03 -0.45405483148E+03 -0.34336824326E+03  0.68086335721E+03  0.00000000000E+00 0.  1.
<mgrwt>
<rscale>  0 0.14048667E+04</rscale>
<asrwt>0</asrwt>
<pdfrwt beam="1">  1        1 0.34240808E+00 0.14048667E+04</pdfrwt>
<pdfrwt beam="2">  1       -2 0.14405235E+00 0.14048667E+04</pdfrwt>
<totfact> 0.58540050E-01</totfact>
</mgrwt>
</event>
<event>
12    3  0.1176505E-007  0.5037933E+03  0.7818608E-02  0.1012794E+00
         -2   -1    0    0    0  501 -0.00000000000E+00  0.00000000000E+00  0.55463946986E+03  0.55463946986E+03  0.00000000000E+00 0.  1.
          1   -1    0    0  501    0  0.00000000000E+00 -0.00000000000E+00 -0.66873146302E+03  0.66873146302E+03  0.00000000000E+00 0. -1.
        -24    2    1    2    0    0  0.13311425573E+03 -0.42309161184E+03  0.66154556347E+02  0.45584842356E+03  0.81825685771E+02 0.  0.
    5000000    2    1    2    0    0 -0.13311425573E+03  0.42309161184E+03 -0.18024654951E+03  0.76752250932E+03  0.59989671330E+03 0.  0.
        -24    2    4    4    0    0 -0.19521756756E+03  0.10379849669E+03 -0.32686632368E+03  0.40200509255E+03  0.76697289886E+02 0.  0.
         24    2    4    4    0    0  0.62103311828E+02  0.31929311514E+03  0.14661977417E+03  0.36551741678E+03  0.79377005942E+02 0.  0.
         13    1    5    5    0    0 -0.14625561399E+03  0.46163116043E+02 -0.17746470422E+03  0.23455374470E+03  0.00000000000E+00 0. -1.
        -14    1    5    5    0    0 -0.48961953574E+02  0.57635380650E+02 -0.14940161946E+03  0.16745134785E+03  0.00000000000E+00 0.  1.
         15    1    3    3    0    0  0.89646249104E+02 -0.35555235796E+03  0.30432507302E+02  0.36794459428E+03  0.17770000000E+01 0. -1.
        -16    1    3    3    0    0  0.43468006628E+02 -0.67539253876E+02  0.35722049045E+02  0.87903829281E+02  0.00000000000E+00 0.  1.
          4    1    6    6  502    0  0.20621794319E+02  0.24987106520E+03  0.88315734975E+02  0.26582038423E+03  0.00000000000E+00 0. -1.
         -3    1    6    6    0  502  0.41481517510E+02  0.69422049939E+02  0.58304039196E+02  0.99697032550E+02  0.00000000000E+00 0.  1.
<mgrwt>
<rscale>  0 0.50379330E+03</rscale>
<asrwt>0</asrwt>
<pdfrwt beam="1">  1        1 0.10288176E+00 0.50379330E+03</pdfrwt>
<pdfrwt beam="2">  1       -2 0.85329149E-01 0.50379330E+03</pdfrwt>
<totfact> 0.31907363E+01</totfact>
</mgrwt>
</event>
<event>
12    3  0.1176505E-007  0.4482713E+03  0.7818608E-02  0.1028239E+00
         -2   -1    0    0    0  501 -0.00000000000E+00  0.00000000000E+00  0.62932845603E+03  0.62932845603E+03  0.00000000000E+00 0.  1.
          1   -1    0    0  501    0  0.00000000000E+00 -0.00000000000E+00 -0.52695145113E+03  0.52695145113E+03  0.00000000000E+00 0. -1.
        -24    2    1    2    0    0  0.45464599403E+02 -0.30767373080E+03 -0.23753904418E+03  0.39986129228E+03  0.82061569158E+02 0.  0.
    5000000    2    1    2    0    0 -0.45464599403E+02  0.30767373080E+03  0.33991604907E+03  0.75641861488E+03  0.59991336549E+03 0.  0.
        -24    2    4    4    0    0 -0.25432490093E+03  0.25774053210E+03  0.37213207634E+03  0.52534317580E+03  0.79948939947E+02 0.  0.
         24    2    4    4    0    0  0.20886030153E+03  0.49933198703E+02 -0.32216027264E+02  0.23107543908E+03  0.79006558268E+02 0.  0.
         13    1    5    5    0    0 -0.67989662552E+02  0.83836742935E+02  0.16373318958E+03  0.19611157806E+03  0.00000000000E+00 0. -1.
        -14    1    5    5    0    0 -0.18633523838E+03  0.17390378916E+03  0.20839888676E+03  0.32923159774E+03  0.00000000000E+00 0.  1.
         15    1    3    3    0    0  0.58908044926E+02 -0.15780612703E+03 -0.99366600324E+02  0.19557558762E+03  0.17770000000E+01 0. -1.
        -16    1    3    3    0    0 -0.13443445523E+02 -0.14986760377E+03 -0.13817244385E+03  0.20428570466E+03  0.00000000000E+00 0.  1.
          2    1    6    6  502    0  0.89702663317E+02  0.23924813320E+02  0.25309913230E+02  0.96226587835E+02  0.00000000000E+00 0. -1.
         -1    1    6    6    0  502  0.11915763821E+03  0.26008385383E+02 -0.57525940495E+02  0.13484885125E+03  0.00000000000E+00 0.  1.
<mgrwt>
<rscale>  0 0.44827128E+03</rscale>
<asrwt>0</asrwt>
<pdfrwt beam="1">  1        1 0.81069454E-01 0.44827128E+03</pdfrwt>
<pdfrwt beam="2">  1       -2 0.96819762E-01 0.44827128E+03</pdfrwt>
<totfact> 0.33693054E+01</totfact>
</mgrwt>
</event>
<event>
12    3  0.1176505E-007  0.4272525E+03  0.7818608E-02  0.1034731E+00
          1   -1    0    0  501    0  0.00000000000E+00  0.00000000000E+00  0.16277398631E+04  0.16277398631E+04  0.00000000000E+00 0. -1.
         -2   -1    0    0    0  501 -0.00000000000E+00 -0.00000000000E+00 -0.15117406348E+03  0.15117406348E+03  0.00000000000E+00 0.  1.
        -24    2    1    2    0    0 -0.22309612197E+03  0.12113154934E+03  0.15969232544E+03  0.30971586325E+03  0.77314586363E+02 0.  0.
    5000000    2    1    2    0    0  0.22309612197E+03 -0.12113154934E+03  0.13168734742E+04  0.14691980633E+04  0.59995205674E+03 0.  0.
        -24    2    4    4    0    0 -0.13783198411E+03  0.85550924465E+02  0.17472573645E+03  0.25096728989E+03  0.78351012086E+02 0.  0.
         24    2    4    4    0    0  0.36092810607E+03 -0.20668247380E+03  0.11421477377E+04  0.12182307734E+04  0.81228195962E+02 0.  0.
         11    1    5    5    0    0 -0.91817948595E+02  0.88183477081E+02  0.15566235788E+03  0.20109110118E+03  0.00000000000E+00 0. -1.
        -12    1    5    5    0    0 -0.46014035511E+02 -0.26325526157E+01  0.19063378579E+02  0.49876188709E+02  0.00000000000E+00 0.  1.
         15    1    3    3    0    0 -0.17582516141E+03  0.73621000303E+02  0.83127018986E+02  0.20796104944E+03  0.17770000000E+01 0. -1.
        -16    1    3    3    0    0 -0.47270960559E+02  0.47510549035E+02  0.76565306454E+02  0.10175481381E+03  0.00000000000E+00 0.  1.
          4    1    6    6  502    0  0.96640519207E+02 -0.16930181500E+02  0.24540294180E+03  0.26428890412E+03  0.00000000000E+00 0. -1.
         -3    1    6    6    0  502  0.26428758686E+03 -0.18975229230E+03  0.89674479593E+03  0.95394186932E+03  0.00000000000E+00 0.  1.
<mgrwt>
<rscale>  0 0.42725250E+03</rscale>
<asrwt>0</asrwt>
<pdfrwt beam="1">  1        1 0.25042151E+00 0.42725250E+03</pdfrwt>
<pdfrwt beam="2">  1       -2 0.23257549E-01 0.42725250E+03</pdfrwt>
<totfact> 0.81716801E+01</totfact>
</mgrwt>
</event>
<event>
12    3  0.1176505E-007  0.9075145E+03  0.7818608E-02  0.9416236E-01
         -2   -1    0    0    0  501 -0.00000000000E+00  0.00000000000E+00  0.47925730416E+03  0.47925730416E+03  0.00000000000E+00 0.  1.
          1   -1    0    0  501    0  0.00000000000E+00 -0.00000000000E+00 -0.25437198953E+04  0.25437198953E+04  0.00000000000E+00 0. -1.
        -24    2    1    2    0    0 -0.89183918635E+02  0.83509789954E+03 -0.16236437665E+03  0.85882767666E+03  0.76684511033E+02 0.  0.
    5000000    2    1    2    0    0  0.89183918635E+02 -0.83509789954E+03 -0.19020982145E+04  0.21641495228E+04  0.60018602639E+03 0.  0.
        -24    2    4    4    0    0 -0.17884492327E+03 -0.14361138359E+03 -0.24022412058E+03  0.34259082068E+03  0.83970865353E+02 0.  0.
         24    2    4    4    0    0  0.26802884191E+03 -0.69148651595E+03 -0.16618740939E+04  0.18215587021E+04  0.79104610461E+02 0.  0.
         13    1    5    5    0    0 -0.12597868913E+03 -0.12201315803E+03 -0.12950841833E+03  0.21801438316E+03  0.00000000000E+00 0. -1.
        -14    1    5    5    0    0 -0.52866234143E+02 -0.21598225565E+02 -0.11071570225E+03  0.12457643752E+03  0.00000000000E+00 0.  1.
         15    1    3    3    0    0 -0.53244249257E+02  0.38175402338E+03 -0.37751944018E+02  0.38729762645E+03  0.17770000000E+01 0. -1.
        -16    1    3    3    0    0 -0.35939669378E+02  0.45334387616E+03 -0.12461243263E+03  0.47153005021E+03  0.00000000000E+00 0.  1.
          2    1    6    6  502    0  0.68053499141E+02 -0.21687998269E+03 -0.43059073163E+03  0.48690510760E+03  0.00000000000E+00 0. -1.
         -1    1    6    6    0  502  0.19997534277E+03 -0.47460653326E+03 -0.12312833623E+04  0.13346535945E+04  0.00000000000E+00 0.  1.
<mgrwt>
<rscale>  0 0.90751454E+03</rscale>
<asrwt>0</asrwt>
<pdfrwt beam="1">  1        1 0.39134153E+00 0.90751454E+03</pdfrwt>
<pdfrwt beam="2">  1       -2 0.73731891E-01 0.90751454E+03</pdfrwt>
<totfact> 0.18940801E+00</totfact>
</mgrwt>
</event>
<event>
12    3  0.1176505E-007  0.7893414E+03  0.7818608E-02  0.9575574E-01
          1   -1    0    0  501    0  0.00000000000E+00  0.00000000000E+00  0.39055311588E+03  0.39055311588E+03  0.00000000000E+00 0. -1.
         -2   -1    0    0    0  501 -0.00000000000E+00 -0.00000000000E+00 -0.17725347035E+04  0.17725347035E+04  0.00000000000E+00 0.  1.
        -24    2    1    2    0    0  0.41423588228E+03 -0.56617114287E+03 -0.82142958809E+03  0.10831136203E+04  0.79040604820E+02 0.  0.
    5000000    2    1    2    0    0 -0.41423588228E+03  0.56617114287E+03 -0.56055199953E+03  0.10799741990E+04  0.59998716421E+03 0.  0.
        -24    2    4    4    0    0 -0.23361208819E+03 -0.43125266603E+02 -0.28976372294E+03  0.38477434005E+03  0.87486463267E+02 0.  0.
         24    2    4    4    0    0 -0.18062379409E+03  0.60929640947E+03 -0.27078827659E+03  0.69519985899E+03  0.78163185822E+02 0.  0.
         13    1    5    5    0    0 -0.96827537109E+02 -0.23285863856E+02 -0.18932164202E+03  0.21391701086E+03  0.00000000000E+00 0. -1.
        -14    1    5    5    0    0 -0.13678455108E+03 -0.19839402748E+02 -0.10044208092E+03  0.17085732919E+03  0.00000000000E+00 0.  1.
         15    1    3    3    0    0  0.35576103815E+03 -0.43815717424E+03 -0.63595055604E+03  0.85028459534E+03  0.17770000000E+01 0. -1.
        -16    1    3    3    0    0  0.58474844132E+02 -0.12801396862E+03 -0.18547903205E+03  0.23282902501E+03  0.00000000000E+00 0.  1.
          2    1    6    6  502    0 -0.12701491281E+03  0.39974458511E+03 -0.21729470604E+03  0.47238280099E+03  0.00000000000E+00 0. -1.
         -1    1    6    6    0  502 -0.53608881278E+02  0.20955182436E+03 -0.53493570552E+02  0.22281705800E+03  0.00000000000E+00 0.  1.
<mgrwt>
<rscale>  0 0.78934137E+03</rscale>
<asrwt>0</asrwt>
<pdfrwt beam="1">  1        1 0.60085095E-01 0.78934137E+03</pdfrwt>
<pdfrwt beam="2">  1       -2 0.27269765E+00 0.78934137E+03</pdfrwt>
<totfact> 0.26113879E+00</totfact>
</mgrwt>
</event>
<event>
12    3  0.1176505E-007  0.1340989E+04  0.7818608E-02  0.8997678E-01
          1   -1    0    0  501    0  0.00000000000E+00  0.00000000000E+00  0.11537350451E+04  0.11537350451E+04  0.00000000000E+00 0. -1.
         -2   -1    0    0    0  501 -0.00000000000E+00 -0.00000000000E+00 -0.21191042834E+04  0.21191042834E+04  0.00000000000E+00 0.  1.
        -24    2    1    2    0    0  0.39199206329E+03 -0.12195450021E+04  0.36157780114E+03  0.13334114718E+04  0.79371637944E+02 0.  0.
    5000000    2    1    2    0    0 -0.39199206329E+03  0.12195450021E+04 -0.13269470395E+04  0.19394278567E+04  0.59970340668E+03 0.  0.
        -24    2    4    4    0    0  0.38779970072E+02  0.77926067783E+03 -0.85883514535E+03  0.11631519302E+04  0.81077220966E+02 0.  0.
         24    2    4    4    0    0 -0.43077203336E+03  0.44028432432E+03 -0.46811189411E+03  0.77627592653E+03  0.63723918035E+02 0.  0.
         11    1    5    5    0    0 -0.16541731562E+02  0.29544147378E+03 -0.36047376981E+03  0.46636963026E+03  0.00000000000E+00 0. -1.
        -12    1    5    5    0    0  0.55321701634E+02  0.48381920405E+03 -0.49836137554E+03  0.69678229994E+03  0.00000000000E+00 0.  1.
         15    1    3    3    0    0  0.10409855894E+03 -0.35140277533E+03  0.67513244584E+02  0.37266823907E+03  0.17770000000E+01 0. -1.
        -16    1    3    3    0    0  0.28789350435E+03 -0.86814222681E+03  0.29406455655E+03  0.96074323273E+03  0.00000000000E+00 0.  1.
          4    1    6    6  502    0 -0.26378945938E+03  0.30347093564E+03 -0.32815079393E+03  0.51900137882E+03  0.00000000000E+00 0. -1.
         -3    1    6    6    0  502 -0.16698257398E+03  0.13681338868E+03 -0.13996110019E+03  0.25727454771E+03  0.00000000000E+00 0.  1.
<mgrwt>
<rscale>  0 0.13409888E+04</rscale>
<asrwt>0</asrwt>
<pdfrwt beam="1">  1        1 0.17749770E+00 0.13409888E+04</pdfrwt>
<pdfrwt beam="2">  1       -2 0.32601604E+00 0.13409888E+04</pdfrwt>
<totfact> 0.21486253E-01</totfact>
</mgrwt>
</event>
<event>
12    3  0.1176505E-007  0.4585978E+03  0.7818608E-02  0.1025189E+00
         -2   -1    0    0    0  501 -0.00000000000E+00  0.00000000000E+00  0.37880826362E+03  0.37880826362E+03  0.00000000000E+00 0.  1.
          1   -1    0    0  501    0  0.00000000000E+00 -0.00000000000E+00 -0.77421799486E+03  0.77421799486E+03  0.00000000000E+00 0. -1.
        -24    2    1    2    0    0  0.32629316233E+02 -0.34575303699E+03  0.64139552004E+01  0.35179808848E+03  0.55775634186E+02 0.  0.
    5000000    2    1    2    0    0 -0.32629316233E+02  0.34575303699E+03 -0.40182368644E+03  0.80122816999E+03  0.59991205234E+03 0.  0.
        -24    2    4    4    0    0 -0.19093221807E+03  0.34161150912E+03 -0.46634477381E+03  0.61366507697E+03  0.77161153280E+02 0.  0.
         24    2    4    4    0    0  0.15830290183E+03  0.41415278675E+01  0.64521087366E+02  0.18756309302E+03  0.77071279782E+02 0.  0.
         11    1    5    5    0    0 -0.64981814078E+02  0.85646296188E+02 -0.82991631265E+02  0.13581434045E+03  0.00000000000E+00 0. -1.
        -12    1    5    5    0    0 -0.12595040399E+03  0.25596521294E+03 -0.38335314254E+03  0.47785073652E+03  0.00000000000E+00 0.  1.
         15    1    3    3    0    0  0.43603317363E+02 -0.19449380561E+03 -0.77591709553E+01  0.19948045561E+03  0.17770000000E+01 0. -1.
        -16    1    3    3    0    0 -0.10974001129E+02 -0.15125923138E+03  0.14173126156E+02  0.15231763287E+03  0.00000000000E+00 0.  1.
          2    1    6    6  502    0  0.25751119572E+02  0.28764571423E+02  0.28581356482E+02  0.48035556276E+02  0.00000000000E+00 0. -1.
         -1    1    6    6    0  502  0.13255178226E+03 -0.24623043555E+02  0.35939730883E+02  0.13952753674E+03  0.00000000000E+00 0.  1.
<mgrwt>
<rscale>  0 0.45859775E+03</rscale>
<asrwt>0</asrwt>
<pdfrwt beam="1">  1        1 0.11911046E+00 0.45859775E+03</pdfrwt>
<pdfrwt beam="2">  1       -2 0.58278195E-01 0.45859775E+03</pdfrwt>
<totfact> 0.58918875E+01</totfact>
</mgrwt>
</event>
<event>
12    3  0.1176505E-007  0.2833495E+03  0.7818608E-02  0.1093873E+00
          1   -1    0    0  501    0  0.00000000000E+00  0.00000000000E+00  0.13940102385E+04  0.13940102385E+04  0.00000000000E+00 0. -1.
         -2   -1    0    0    0  501 -0.00000000000E+00 -0.00000000000E+00 -0.14595477501E+03  0.14595477501E+03  0.00000000000E+00 0.  1.
        -24    2    1    2    0    0  0.21110746194E+03 -0.22944977952E+02  0.15150061481E+03  0.27209999397E+03  0.77415359801E+02 0.  0.
    5000000    2    1    2    0    0 -0.21110746194E+03  0.22944977952E+02  0.10965548487E+04  0.12678650196E+04  0.59996361480E+03 0.  0.
        -24    2    4    4    0    0 -0.41509905946E+01 -0.99875211047E+02 -0.13391731638E+02  0.12927379050E+03  0.80870797754E+02 0.  0.
         24    2    4    4    0    0 -0.20695647135E+03  0.12282018900E+03  0.11099465804E+04  0.11385912291E+04  0.80577886496E+02 0.  0.
         13    1    5    5    0    0  0.38522522825E-01 -0.94341732353E+02 -0.39486392354E+02  0.10227188826E+03  0.00000000000E+00 0. -1.
        -14    1    5    5    0    0 -0.41895131174E+01 -0.55334786936E+01  0.26094660716E+02  0.27001902238E+02  0.00000000000E+00 0.  1.
         15    1    3    3    0    0  0.11377707324E+03 -0.48930627907E+02  0.68319944270E+02  0.14145741853E+03  0.17770000000E+01 0. -1.
        -16    1    3    3    0    0  0.97330388703E+02  0.25985649954E+02  0.83180670537E+02  0.13064257545E+03  0.00000000000E+00 0.  1.
          2    1    6    6  502    0 -0.16823039661E+03  0.10368998847E+03  0.10180089461E+04  0.10370126781E+04  0.00000000000E+00 0. -1.
         -1    1    6    6    0  502 -0.38726074736E+02  0.19130200524E+02  0.91937634223E+02  0.10157855100E+03  0.00000000000E+00 0.  1.
<mgrwt>
<rscale>  0 0.28334951E+03</rscale>
<asrwt>0</asrwt>
<pdfrwt beam="1">  1        1 0.21446311E+00 0.28334951E+03</pdfrwt>
<pdfrwt beam="2">  1       -2 0.22454582E-01 0.28334951E+03</pdfrwt>
<totfact> 0.12799187E+02</totfact>
</mgrwt>
</event>
<event>
12    3  0.1176505E-007  0.6159404E+03  0.7818608E-02  0.9872876E-01
          1   -1    0    0  501    0  0.00000000000E+00  0.00000000000E+00  0.24685998302E+04  0.24685998302E+04  0.00000000000E+00 0. -1.
         -2   -1    0    0    0  501 -0.00000000000E+00 -0.00000000000E+00 -0.19303275049E+03  0.19303275049E+03  0.00000000000E+00 0.  1.
        -24    2    1    2    0    0 -0.50273465891E+02 -0.53157118260E+03  0.62341294216E+03  0.82451066896E+03  0.77966680253E+02 0.  0.
    5000000    2    1    2    0    0  0.50273465891E+02  0.53157118260E+03  0.16521541376E+04  0.18371219118E+04  0.60025684569E+03 0.  0.
        -24    2    4    4    0    0  0.64470302666E+02  0.59117844537E+03  0.16238663831E+04  0.17311769779E+04  0.79895710630E+02 0.  0.
         24    2    4    4    0    0 -0.14196836775E+02 -0.59607262768E+02  0.28287754484E+02  0.10594493383E+03  0.81667349661E+02 0.  0.
         11    1    5    5    0    0  0.20635326140E+02  0.25475177605E+03  0.81194400740E+03  0.85122109656E+03  0.00000000000E+00 0. -1.
        -12    1    5    5    0    0  0.43834976526E+02  0.33642666931E+03  0.81192237571E+03  0.87995588138E+03  0.00000000000E+00 0.  1.
         15    1    3    3    0    0  0.38795445309E+01 -0.92206502514E+02  0.15193337348E+03  0.17777513234E+03  0.17770000000E+01 0. -1.
        -16    1    3    3    0    0 -0.54153010422E+02 -0.43936468008E+03  0.47147956868E+03  0.64673553662E+03  0.00000000000E+00 0.  1.
          2    1    6    6  502    0  0.25070932306E+02 -0.57473725595E+02  0.15484343703E+02  0.64587504058E+02  0.00000000000E+00 0. -1.
         -1    1    6    6    0  502 -0.39267769081E+02 -0.21335371726E+01  0.12803410781E+02  0.41357429769E+02  0.00000000000E+00 0.  1.
<mgrwt>
<rscale>  0 0.61594036E+03</rscale>
<asrwt>0</asrwt>
<pdfrwt beam="1">  1        1 0.37978457E+00 0.61594036E+03</pdfrwt>
<pdfrwt beam="2">  1       -2 0.29697348E-01 0.61594036E+03</pdfrwt>
<totfact> 0.14005392E+01</totfact>
</mgrwt>
</event>
<event>
12    3  0.1176505E-007  0.6695040E+03  0.7818608E-02  0.9770854E-01
         -2   -1    0    0    0  501 -0.00000000000E+00  0.00000000000E+00  0.40383748277E+03  0.40383748277E+03  0.00000000000E+00 0.  1.
          1   -1    0    0  501    0  0.00000000000E+00 -0.00000000000E+00 -0.14570182841E+04  0.14570182841E+04  0.00000000000E+00 0. -1.
        -24    2    1    2    0    0 -0.38230979688E+03  0.38916738987E+03 -0.25732351723E+02  0.55192756168E+03  0.79685891444E+02 0.  0.
    5000000    2    1    2    0    0  0.38230979688E+03 -0.38916738987E+03 -0.10274484496E+04  0.13089282052E+04  0.60002557581E+03 0.  0.
        -24    2    4    4    0    0  0.23959797268E+03  0.10788497645E+03 -0.25007037081E+03  0.37184211521E+03  0.81761920400E+02 0.  0.
         24    2    4    4    0    0  0.14271182419E+03 -0.49705236631E+03 -0.77737807882E+03  0.93708609000E+03  0.79912095593E+02 0.  0.
         13    1    5    5    0    0  0.16749864743E+01  0.19088408254E+02 -0.72660793540E+01  0.20493140768E+02  0.00000000000E+00 0. -1.
        -14    1    5    5    0    0  0.23792298621E+03  0.88796568193E+02 -0.24280429146E+03  0.35134897444E+03  0.00000000000E+00 0.  1.
         15    1    3    3    0    0 -0.58307659028E+02  0.77346683746E+02  0.23136013450E+02  0.99602838490E+02  0.17770000000E+01 0. -1.
        -16    1    3    3    0    0 -0.32400213785E+03  0.31182070612E+03 -0.48868365173E+02  0.45232472319E+03  0.00000000000E+00 0.  1.
          4    1    6    6  502    0  0.29410877199E+02 -0.48710557546E+02 -0.53477096390E+02  0.78086605461E+02  0.00000000000E+00 0. -1.
         -3    1    6    6    0  502  0.11330094699E+03 -0.44834180877E+03 -0.72390098243E+03  0.85899948454E+03  0.00000000000E+00 0.  1.
<mgrwt>
<rscale>  0 0.66950398E+03</rscale>
<asrwt>0</asrwt>
<pdfrwt beam="1">  1        1 0.22415666E+00 0.66950398E+03</pdfrwt>
<pdfrwt beam="2">  1       -2 0.62128844E-01 0.66950398E+03</pdfrwt>
<totfact> 0.15406635E+01</totfact>
</mgrwt>
</event>
<event>
12    3  0.1176505E-007  0.1239349E+04  0.7818608E-02  0.9079095E-01
          1   -1    0    0  501    0  0.00000000000E+00  0.00000000000E+00  0.11967841110E+04  0.11967841110E+04  0.00000000000E+00 0. -1.
         -2   -1    0    0    0  501 -0.00000000000E+00 -0.00000000000E+00 -0.19415006275E+04  0.19415006275E+04  0.00000000000E+00 0.  1.
        -24    2    1    2    0    0 -0.12179024935E+04 -0.49680792464E+02  0.47677432581E+03  0.13112995218E+04  0.80237231231E+02 0.  0.
    5000000    2    1    2    0    0  0.12179024935E+04  0.49680792464E+02 -0.12214908423E+04  0.18269852166E+04  0.60006702865E+03 0.  0.
        -24    2    4    4    0    0  0.94665847857E+03 -0.85320381022E+02 -0.11700901938E+04  0.15096093871E+04  0.79797228206E+02 0.  0.
         24    2    4    4    0    0  0.27124401498E+03  0.13500117349E+03 -0.51400648534E+02  0.31737582948E+03  0.79289078468E+02 0.  0.
         11    1    5    5    0    0  0.83706993722E+03 -0.82762074155E+02 -0.99346464426E+03  0.13017325532E+04  0.00000000000E+00 0. -1.
        -12    1    5    5    0    0  0.10958854135E+03 -0.25583068668E+01 -0.17662554951E+03  0.20787683389E+03  0.00000000000E+00 0.  1.
         15    1    3    3    0    0 -0.39139691191E+03 -0.52919970170E+02  0.16115777369E+03  0.42657596234E+03  0.17770000000E+01 0. -1.
        -16    1    3    3    0    0 -0.82650558163E+03  0.32391777064E+01  0.31561655212E+03  0.88472355949E+03  0.00000000000E+00 0.  1.
          2    1    6    6  502    0  0.22455295501E+03  0.90982737785E+02 -0.66920024807E+02  0.25135667466E+03  0.00000000000E+00 0. -1.
         -1    1    6    6    0  502  0.46691059967E+02  0.44018435701E+02  0.15519376273E+02  0.66019154814E+02  0.00000000000E+00 0.  1.
<mgrwt>
<rscale>  0 0.12393489E+04</rscale>
<asrwt>0</asrwt>
<pdfrwt beam="1">  1        1 0.18412063E+00 0.12393489E+04</pdfrwt>
<pdfrwt beam="2">  1       -2 0.29869240E+00 0.12393489E+04</pdfrwt>
<totfact> 0.29731465E-01</totfact>
</mgrwt>
</event>
<event>
12    3  0.1176505E-007  0.2284887E+04  0.7818608E-02  0.8483904E-01
         -2   -1    0    0    0  501 -0.00000000000E+00  0.00000000000E+00  0.18369562658E+04  0.18369562658E+04  0.00000000000E+00 0.  1.
          1   -1    0    0  501    0  0.00000000000E+00 -0.00000000000E+00 -0.28550457175E+04  0.28550457175E+04  0.00000000000E+00 0. -1.
        -24    2    1    2    0    0 -0.86705403737E+03  0.20749857826E+04 -0.42411764132E+03  0.22898951274E+04  0.79970112418E+02 0.  0.
    5000000    2    1    2    0    0  0.86705403737E+03 -0.20749857826E+04 -0.59397181042E+03  0.24021068559E+04  0.59997177742E+03 0.  0.
        -24    2    4    4    0    0  0.15175458605E+03 -0.52784354367E+02 -0.25121700402E+02  0.18158816527E+03  0.80793065800E+02 0.  0.
         24    2    4    4    0    0  0.71529945132E+03 -0.20222014283E+04 -0.56885011002E+03  0.22205186906E+04  0.78491312967E+02 0.  0.
         13    1    5    5    0    0  0.49822773113E+02  0.14075901749E+02  0.13873964039E+02  0.53599688515E+02  0.00000000000E+00 0. -1.
        -14    1    5    5    0    0  0.10193181293E+03 -0.66860256116E+02 -0.38995664441E+02  0.12798847675E+03  0.00000000000E+00 0.  1.
         15    1    3    3    0    0 -0.57894530581E+03  0.14671744487E+04 -0.31626734747E+03  0.16086661316E+04  0.17770000000E+01 0. -1.
        -16    1    3    3    0    0 -0.28810873156E+03  0.60781133390E+03 -0.10785029385E+03  0.68122899578E+03  0.00000000000E+00 0.  1.
          2    1    6    6  502    0  0.47637489304E+03 -0.14447579819E+04 -0.38844857411E+03  0.15700799215E+04  0.00000000000E+00 0. -1.
         -1    1    6    6    0  502  0.23892455829E+03 -0.57744344635E+03 -0.18040153590E+03  0.65043876917E+03  0.00000000000E+00 0.  1.
<mgrwt>
<rscale>  0 0.22848867E+04</rscale>
<asrwt>0</asrwt>
<pdfrwt beam="1">  1        1 0.43923780E+00 0.22848867E+04</pdfrwt>
<pdfrwt beam="2">  1       -2 0.28260866E+00 0.22848867E+04</pdfrwt>
<totfact> 0.23350179E-02</totfact>
</mgrwt>
</event>
<event>
12    3  0.1176505E-007  0.5802468E+03  0.7818608E-02  0.9947257E-01
          1   -1    0    0  501    0  0.00000000000E+00  0.00000000000E+00  0.75373711752E+03  0.75373711752E+03  0.00000000000E+00 0. -1.
         -2   -1    0    0    0  501 -0.00000000000E+00 -0.00000000000E+00 -0.10740473182E+04  0.10740473182E+04  0.00000000000E+00 0.  1.
        -24    2    1    2    0    0 -0.44960571518E+03  0.15077923632E+03 -0.79427536542E+03  0.92844675295E+03  0.79122308579E+02 0.  0.
    5000000    2    1    2    0    0  0.44960571518E+03 -0.15077923632E+03  0.47396516473E+03  0.89933768278E+03  0.59940438191E+03 0.  0.
        -24    2    4    4    0    0 -0.22076421325E+01  0.13158444903E+03  0.29373366445E+03  0.33171858394E+03  0.80239718296E+02 0.  0.
         24    2    4    4    0    0  0.45181335732E+03 -0.28236368535E+03  0.18023150028E+03  0.56761909883E+03  0.76442704091E+02 0.  0.
         11    1    5    5    0    0  0.30179297008E+02  0.58963273397E+02  0.81154036746E+02  0.10475416583E+03  0.00000000000E+00 0. -1.
        -12    1    5    5    0    0 -0.32386939141E+02  0.72621175634E+02  0.21257962770E+03  0.22696441812E+03  0.00000000000E+00 0.  1.
         15    1    3    3    0    0 -0.84306476289E+02  0.60468784070E+02 -0.19309189934E+03  0.21920696866E+03  0.17770000000E+01 0. -1.
        -16    1    3    3    0    0 -0.36529923890E+03  0.90310452250E+02 -0.60118346609E+03  0.70923978429E+03  0.00000000000E+00 0.  1.
          2    1    6    6  502    0  0.30847108272E+03 -0.16765168402E+03  0.86969597286E+02  0.36169767332E+03  0.00000000000E+00 0. -1.
         -1    1    6    6    0  502  0.14334227459E+03 -0.11471200133E+03  0.93261902997E+02  0.20592142551E+03  0.00000000000E+00 0.  1.
<mgrwt>
<rscale>  0 0.58024680E+03</rscale>
<asrwt>0</asrwt>
<pdfrwt beam="1">  1        1 0.11595956E+00 0.58024680E+03</pdfrwt>
<pdfrwt beam="2">  1       -2 0.16523805E+00 0.58024680E+03</pdfrwt>
<totfact> 0.51516184E+00</totfact>
</mgrwt>
</event>
<event>
12    3  0.1176505E-007  0.7164216E+03  0.7818608E-02  0.9689554E-01
          1   -1    0    0  501    0  0.00000000000E+00  0.00000000000E+00  0.15658967194E+04  0.15658967194E+04  0.00000000000E+00 0. -1.
         -2   -1    0    0    0  501 -0.00000000000E+00 -0.00000000000E+00 -0.33532022363E+03  0.33532022363E+03  0.00000000000E+00 0.  1.
        -24    2    1    2    0    0 -0.97853566428E+02  0.58759525097E+03  0.45451190625E+03  0.75348730490E+03  0.79489284191E+02 0.  0.
    5000000    2    1    2    0    0  0.97853566428E+02 -0.58759525097E+03  0.77606458952E+03  0.11477296381E+04  0.60013629761E+03 0.  0.
        -24    2    4    4    0    0 -0.18840051347E+03 -0.24765406720E+02  0.23857339029E+03  0.31476878068E+03  0.77807736691E+02 0.  0.
         24    2    4    4    0    0  0.28625407990E+03 -0.56282984425E+03  0.53749119923E+03  0.83296085745E+03  0.78791934596E+02 0.  0.
         11    1    5    5    0    0 -0.83843718759E+02  0.27086113045E+02  0.11375798713E+03  0.14388991046E+03  0.00000000000E+00 0. -1.
        -12    1    5    5    0    0 -0.10455679471E+03 -0.51851519764E+02  0.12481540316E+03  0.17087887022E+03  0.00000000000E+00 0.  1.
         15    1    3    3    0    0 -0.27292730562E+02  0.26034456047E+03  0.24512192497E+03  0.35862529071E+03  0.17770000000E+01 0. -1.
        -16    1    3    3    0    0 -0.70560835865E+02  0.32725069050E+03  0.20938998128E+03  0.39486201419E+03  0.00000000000E+00 0.  1.
          4    1    6    6  502    0  0.18633409671E+03 -0.37327760164E+03  0.40249629742E+03  0.57970667834E+03  0.00000000000E+00 0. -1.
         -3    1    6    6    0  502  0.99919983192E+02 -0.18955224261E+03  0.13499490181E+03  0.25325417910E+03  0.00000000000E+00 0.  1.
<mgrwt>
<rscale>  0 0.71642160E+03</rscale>
<asrwt>0</asrwt>
<pdfrwt beam="1">  1        1 0.24090718E+00 0.71642160E+03</pdfrwt>
<pdfrwt beam="2">  1       -2 0.51587728E-01 0.71642160E+03</pdfrwt>
<totfact> 0.19010015E+01</totfact>
</mgrwt>
</event>
<event>
12    3  0.1176505E-007  0.7099772E+03  0.7818608E-02  0.9700320E-01
          1   -1    0    0  501    0  0.00000000000E+00  0.00000000000E+00  0.16546074452E+04  0.16546074452E+04  0.00000000000E+00 0. -1.
         -2   -1    0    0    0  501 -0.00000000000E+00 -0.00000000000E+00 -0.49997142470E+03  0.49997142470E+03  0.00000000000E+00 0.  1.
        -24    2    1    2    0    0  0.65091422877E+03  0.27044510389E+02 -0.51235829166E+02  0.65835635187E+03  0.79920192113E+02 0.  0.
    5000000    2    1    2    0    0 -0.65091422877E+03 -0.27044510389E+02  0.12058718497E+04  0.14962225181E+04  0.60011179532E+03 0.  0.
        -24    2    4    4    0    0  0.34342431206E+02 -0.29080809151E+02 -0.27219909069E+02  0.81565850925E+02  0.62345557543E+02 0.  0.
         24    2    4    4    0    0 -0.68525665997E+03  0.20362987623E+01  0.12330917588E+04  0.14146566671E+04  0.10562842308E+03 0.  0.
         13    1    5    5    0    0  0.48044919067E+02 -0.82148061208E+01 -0.28691282377E+02  0.56559587801E+02  0.00000000000E+00 0. -1.
        -14    1    5    5    0    0 -0.13702487861E+02 -0.20866003030E+02  0.14713733077E+01  0.25006263124E+02  0.00000000000E+00 0.  1.
         15    1    3    3    0    0  0.35820460754E+03  0.45402295097E+02 -0.27149465268E+01  0.36108508405E+03  0.17770000000E+01 0. -1.
        -16    1    3    3    0    0  0.29270962123E+03 -0.18357784709E+02 -0.48520882639E+02  0.29727126782E+03  0.00000000000E+00 0.  1.
          2    1    6    6  502    0 -0.54717800274E+03  0.40144703743E+02  0.93902331385E+03  0.10875569630E+04  0.00000000000E+00 0. -1.
         -1    1    6    6    0  502 -0.13807865723E+03 -0.38108404981E+02  0.29406844493E+03  0.32709970409E+03  0.00000000000E+00 0.  1.
<mgrwt>
<rscale>  0 0.70997715E+03</rscale>
<asrwt>0</asrwt>
<pdfrwt beam="1">  1        1 0.25455499E+00 0.70997715E+03</pdfrwt>
<pdfrwt beam="2">  1       -2 0.76918681E-01 0.70997715E+03</pdfrwt>
<totfact> 0.70658522E+00</totfact>
</mgrwt>
</event>
<event>
12    3  0.1176505E-007  0.6516792E+03  0.7818608E-02  0.9803633E-01
          1   -1    0    0  501    0  0.00000000000E+00  0.00000000000E+00  0.42210264368E+03  0.42210264368E+03  0.00000000000E+00 0. -1.
         -2   -1    0    0    0  501 -0.00000000000E+00 -0.00000000000E+00 -0.11022468724E+04  0.11022468724E+04  0.00000000000E+00 0.  1.
        -24    2    1    2    0    0  0.49688755542E+03 -0.18721685820E+03 -0.12993558872E+03  0.55236064302E+03  0.79193610941E+02 0.  0.
    5000000    2    1    2    0    0 -0.49688755542E+03  0.18721685820E+03 -0.55020863999E+03  0.97198887306E+03  0.60007118503E+03 0.  0.
        -24    2    4    4    0    0 -0.29510074545E+03  0.38524304181E+03 -0.43469941805E+03  0.65639424099E+03  0.79957265614E+02 0.  0.
         24    2    4    4    0    0 -0.20178680997E+03 -0.19802618361E+03 -0.11550922193E+03  0.31559463207E+03  0.79531788392E+02 0.  0.
         11    1    5    5    0    0 -0.21005603534E+03  0.31329575325E+03 -0.30244784342E+03  0.48347953936E+03  0.00000000000E+00 0. -1.
        -12    1    5    5    0    0 -0.85044710112E+02  0.71947288558E+02 -0.13225157463E+03  0.17291470163E+03  0.00000000000E+00 0.  1.
         15    1    3    3    0    0  0.19602173827E+03 -0.87130804257E+02 -0.14814329645E+02  0.21503237202E+03  0.17770000000E+01 0. -1.
        -16    1    3    3    0    0  0.30086581715E+03 -0.10008605394E+03 -0.11512125908E+03  0.33732827100E+03  0.00000000000E+00 0.  1.
          4    1    6    6  502    0 -0.29713738752E+02 -0.21702533421E+02  0.11315346697E+02  0.38496016657E+02  0.00000000000E+00 0. -1.
         -3    1    6    6    0  502 -0.17207307122E+03 -0.17632365019E+03 -0.12682456863E+03  0.27709861541E+03  0.00000000000E+00 0.  1.
<mgrwt>
<rscale>  0 0.65167919E+03</rscale>
<asrwt>0</asrwt>
<pdfrwt beam="1">  1        1 0.64938870E-01 0.65167919E+03</pdfrwt>
<pdfrwt beam="2">  1       -2 0.16957644E+00 0.65167919E+03</pdfrwt>
<totfact> 0.10801893E+01</totfact>
</mgrwt>
</event>
<event>
12    3  0.1176505E-007  0.8772076E+03  0.7818608E-02  0.9454530E-01
         -2   -1    0    0    0  501 -0.00000000000E+00  0.00000000000E+00  0.60415150966E+03  0.60415150966E+03  0.00000000000E+00 0.  1.
          1   -1    0    0  501    0  0.00000000000E+00 -0.00000000000E+00 -0.16518329062E+04  0.16518329062E+04  0.00000000000E+00 0. -1.
        -24    2    1    2    0    0  0.11620125896E+03 -0.79520895133E+03 -0.26782632814E+01  0.80769866468E+03  0.80684267136E+02 0.  0.
    5000000    2    1    2    0    0 -0.11620125896E+03  0.79520895133E+03 -0.10450031333E+04  0.14482857512E+04  0.59969997472E+03 0.  0.
        -24    2    4    4    0    0 -0.30688950338E+03  0.50848857393E+03 -0.86323888947E+03  0.10509092134E+04  0.80541898837E+02 0.  0.
         24    2    4    4    0    0  0.19068824442E+03  0.28672037740E+03 -0.18176424379E+03  0.39737653775E+03  0.79368073295E+02 0.  0.
         11    1    5    5    0    0 -0.16432988605E+03  0.19760126516E+03 -0.38792739309E+03  0.46533668859E+03  0.00000000000E+00 0. -1.
        -12    1    5    5    0    0 -0.14255961733E+03  0.31088730877E+03 -0.47531149638E+03  0.58557252483E+03  0.00000000000E+00 0.  1.
         15    1    3    3    0    0  0.82053268357E+01 -0.16938208152E+03  0.27978685292E+02  0.17188246417E+03  0.17770000000E+01 0. -1.
        -16    1    3    3    0    0  0.10799593212E+03 -0.62582686982E+03 -0.30656948573E+02  0.63581620051E+03  0.00000000000E+00 0.  1.
          4    1    6    6  502    0  0.10987888292E+03  0.10558152526E+03 -0.10317929759E+03  0.18402933147E+03  0.00000000000E+00 0. -1.
         -3    1    6    6    0  502  0.80809361496E+02  0.18113885214E+03 -0.78584946194E+02  0.21334720628E+03  0.00000000000E+00 0.  1.
<mgrwt>
<rscale>  0 0.87720760E+03</rscale>
<asrwt>0</asrwt>
<pdfrwt beam="1">  1        1 0.25412813E+00 0.87720760E+03</pdfrwt>
<pdfrwt beam="2">  1       -2 0.92946388E-01 0.87720760E+03</pdfrwt>
<totfact> 0.45034222E+00</totfact>
</mgrwt>
</event>
<event>
12    3  0.1176505E-007  0.1125849E+04  0.7818608E-02  0.9180358E-01
         -2   -1    0    0    0  501 -0.00000000000E+00  0.00000000000E+00  0.13532039392E+04  0.13532039392E+04  0.00000000000E+00 0.  1.
          1   -1    0    0  501    0  0.00000000000E+00 -0.00000000000E+00 -0.21992392653E+04  0.21992392653E+04  0.00000000000E+00 0. -1.
        -24    2    1    2    0    0  0.98460858327E+03  0.36987213676E+03  0.92785612002E+03  0.14048300096E+04  0.79818022076E+02 0.  0.
    5000000    2    1    2    0    0 -0.98460858327E+03 -0.36987213676E+03 -0.17738914461E+04  0.21476131949E+04  0.59940980361E+03 0.  0.
        -24    2    4    4    0    0 -0.62077527127E+03 -0.51315128880E+03 -0.11297172472E+04  0.13898054143E+04  0.81313273208E+02 0.  0.
         24    2    4    4    0    0 -0.36383331200E+03  0.14327915204E+03 -0.64417419894E+03  0.75780778065E+03  0.80053978646E+02 0.  0.
         13    1    5    5    0    0 -0.28880324674E+03 -0.24101369046E+03 -0.45840599622E+03  0.59298479887E+03  0.00000000000E+00 0. -1.
        -14    1    5    5    0    0 -0.33197202453E+03 -0.27213759834E+03 -0.67131125094E+03  0.79682061541E+03  0.00000000000E+00 0.  1.
         15    1    3    3    0    0  0.40332265732E+03  0.17517509002E+03  0.43115666382E+03  0.61583658917E+03  0.17770000000E+01 0. -1.
        -16    1    3    3    0    0  0.58128592595E+03  0.19469704673E+03  0.49669945621E+03  0.78899342045E+03  0.00000000000E+00 0.  1.
          2    1    6    6  502    0 -0.54369480994E+02  0.50726230506E+01 -0.51448734447E+02  0.75024957477E+02  0.00000000000E+00 0. -1.
         -1    1    6    6    0  502 -0.30946383101E+03  0.13820652899E+03 -0.59272546449E+03  0.68278282317E+03  0.00000000000E+00 0.  1.
<mgrwt>
<rscale>  0 0.11258491E+04</rscale>
<asrwt>0</asrwt>
<pdfrwt beam="1">  1        1 0.33834450E+00 0.11258491E+04</pdfrwt>
<pdfrwt beam="2">  1       -2 0.20818522E+00 0.11258491E+04</pdfrwt>
<totfact> 0.22229308E-01</totfact>
</mgrwt>
</event>
<event>
12    3  0.1176505E-007  0.5937983E+03  0.7818608E-02  0.9918357E-01
         -2   -1    0    0    0  501 -0.00000000000E+00  0.00000000000E+00  0.54077802893E+03  0.54077802893E+03  0.00000000000E+00 0.  1.
          1   -1    0    0  501    0  0.00000000000E+00 -0.00000000000E+00 -0.99414899369E+03  0.99414899369E+03  0.00000000000E+00 0. -1.
        -24    2    1    2    0    0 -0.43837581613E+03  0.40214843450E+02  0.24868104176E+03  0.51187808030E+03  0.79914446473E+02 0.  0.
    5000000    2    1    2    0    0  0.43837581613E+03 -0.40214843450E+02 -0.70205200652E+03  0.10230489423E+04  0.59996793974E+03 0.  0.
        -24    2    4    4    0    0  0.56006156676E+03  0.55208136394E+02 -0.50944258778E+03  0.76342443000E+03  0.81044513682E+02 0.  0.
         24    2    4    4    0    0 -0.12168575062E+03 -0.95422979844E+02 -0.19260941874E+03  0.25962451232E+03  0.79959566169E+02 0.  0.
         11    1    5    5    0    0  0.26044292199E+03 -0.14417846339E+02 -0.24215210514E+03  0.35591576522E+03  0.00000000000E+00 0. -1.
        -12    1    5    5    0    0  0.29961864476E+03  0.69625982733E+02 -0.26729048264E+03  0.40750866478E+03  0.00000000000E+00 0.  1.
         15    1    3    3    0    0 -0.36445523840E+03  0.60745464001E+02  0.21968219452E+03  0.42986167137E+03  0.17770000000E+01 0. -1.
        -16    1    3    3    0    0 -0.73920577735E+02 -0.20530620551E+02  0.28998847247E+02  0.82016408935E+02  0.00000000000E+00 0.  1.
          4    1    6    6  502    0 -0.64962943458E+02 -0.96363935311E+02 -0.14294037400E+03  0.18422307828E+03  0.00000000000E+00 0. -1.
         -3    1    6    6    0  502 -0.56722807163E+02  0.94095546732E+00 -0.49669044744E+02  0.75401434041E+02  0.00000000000E+00 0.  1.
<mgrwt>
<rscale>  0 0.59379827E+03</rscale>
<asrwt>0</asrwt>
<pdfrwt beam="1">  1        1 0.15294600E+00 0.59379827E+03</pdfrwt>
<pdfrwt beam="2">  1       -2 0.83196621E-01 0.59379827E+03</pdfrwt>
<totfact> 0.17690211E+01</totfact>
</mgrwt>
</event>
<event>
12    3  0.1176505E-007  0.7200732E+03  0.7818608E-02  0.9683507E-01
          1   -1    0    0  501    0  0.00000000000E+00  0.00000000000E+00  0.86700069695E+03  0.86700069695E+03  0.00000000000E+00 0. -1.
         -2   -1    0    0    0  501 -0.00000000000E+00 -0.00000000000E+00 -0.74276094115E+03  0.74276094115E+03  0.00000000000E+00 0.  1.
        -24    2    1    2    0    0  0.38635525597E+03  0.54281938670E+03 -0.11697777519E+03  0.68119156148E+03  0.80092903301E+02 0.  0.
    5000000    2    1    2    0    0 -0.38635525597E+03 -0.54281938670E+03  0.24121753099E+03  0.92857007661E+03  0.60011100601E+03 0.  0.
        -24    2    4    4    0    0 -0.27841515485E+03 -0.56995625914E+03 -0.13686594780E+02  0.63942959682E+03  0.79484279120E+02 0.  0.
         24    2    4    4    0    0 -0.10794010112E+03  0.27136872447E+02  0.25490412577E+03  0.28914047979E+03  0.78984988728E+02 0.  0.
         13    1    5    5    0    0 -0.92909269265E+02 -0.17079161748E+03 -0.39923627569E+02  0.19848376497E+03  0.00000000000E+00 0. -1.
        -14    1    5    5    0    0 -0.18550588559E+03 -0.39916464166E+03  0.26237032789E+02  0.44094583186E+03  0.00000000000E+00 0.  1.
         15    1    3    3    0    0  0.25319939357E+03  0.41056754382E+03 -0.67172190918E+02  0.48702248603E+03  0.17770000000E+01 0. -1.
        -16    1    3    3    0    0  0.13315586240E+03  0.13225184288E+03 -0.49805584268E+02  0.19416907545E+03  0.00000000000E+00 0.  1.
          4    1    6    6  502    0  0.12234262306E+02  0.54733419464E+01  0.16282169729E+02  0.21088947278E+02  0.00000000000E+00 0. -1.
         -3    1    6    6    0  502 -0.12017436342E+03  0.21663530501E+02  0.23862195604E+03  0.26805153251E+03  0.00000000000E+00 0.  1.
<mgrwt>
<rscale>  0 0.72007322E+03</rscale>
<asrwt>0</asrwt>
<pdfrwt beam="1">  1        1 0.13338472E+00 0.72007322E+03</pdfrwt>
<pdfrwt beam="2">  1       -2 0.11427091E+00 0.72007322E+03</pdfrwt>
<totfact> 0.10434943E+01</totfact>
</mgrwt>
</event>
<event>
12    3  0.1176505E-007  0.1708364E+04  0.7818608E-02  0.8756609E-01
         -2   -1    0    0    0  501 -0.00000000000E+00  0.00000000000E+00  0.10397018844E+04  0.10397018844E+04  0.00000000000E+00 0.  1.
          1   -1    0    0  501    0  0.00000000000E+00 -0.00000000000E+00 -0.30754504450E+04  0.30754504450E+04  0.00000000000E+00 0. -1.
        -24    2    1    2    0    0  0.27399995646E+03  0.16604301558E+04 -0.14848313225E+04  0.22454725749E+04  0.72929757646E+02 0.  0.
    5000000    2    1    2    0    0 -0.27399995646E+03 -0.16604301558E+04 -0.55091723806E+03  0.18696797545E+04  0.60007358111E+03 0.  0.
        -24    2    4    4    0    0 -0.33129469116E+03 -0.79229536765E+03 -0.49458765634E+03  0.99423039409E+03  0.79931250101E+02 0.  0.
         24    2    4    4    0    0  0.57294734701E+02 -0.86813478818E+03 -0.56329581723E+02  0.87544936043E+03  0.79359081595E+02 0.  0.
         13    1    5    5    0    0 -0.25219920509E+03 -0.67677107379E+03 -0.42285545276E+03  0.83691711615E+03  0.00000000000E+00 0. -1.
        -14    1    5    5    0    0 -0.79095486066E+02 -0.11552429386E+03 -0.71732203579E+02  0.15731327795E+03  0.00000000000E+00 0.  1.
         15    1    3    3    0    0  0.56947984994E+02  0.54986277618E+03 -0.47710933244E+03  0.73022504644E+03  0.17770000000E+01 0. -1.
        -16    1    3    3    0    0  0.21705197146E+03  0.11105673797E+04 -0.10077219901E+04  0.15152475284E+04  0.00000000000E+00 0.  1.
          4    1    6    6  502    0  0.28997884861E+02 -0.52469710169E+03 -0.72463484065E+02  0.53047043496E+03  0.00000000000E+00 0. -1.
         -3    1    6    6    0  502  0.28296849839E+02 -0.34343768649E+03  0.16133902341E+02  0.34497892547E+03  0.00000000000E+00 0.  1.
<mgrwt>
<rscale>  0 0.17083636E+04</rscale>
<asrwt>0</asrwt>
<pdfrwt beam="1">  1        1 0.47314621E+00 0.17083636E+04</pdfrwt>
<pdfrwt beam="2">  1       -2 0.15995414E+00 0.17083636E+04</pdfrwt>
<totfact> 0.10774687E-01</totfact>
</mgrwt>
</event>
<event>
12    3  0.1176505E-007  0.5376056E+03  0.7818608E-02  0.1004404E+00
         -2   -1    0    0    0  501 -0.00000000000E+00  0.00000000000E+00  0.22088912546E+03  0.22088912546E+03  0.00000000000E+00 0.  1.
          1   -1    0    0  501    0  0.00000000000E+00 -0.00000000000E+00 -0.18830342496E+04  0.18830342496E+04  0.00000000000E+00 0. -1.
        -24    2    1    2    0    0  0.29605336569E+03 -0.39710535368E+03 -0.78439115789E+03  0.93098641205E+03  0.78268471165E+02 0.  0.
    5000000    2    1    2    0    0 -0.29605336569E+03  0.39710535368E+03 -0.87775396622E+03  0.11729369630E+04  0.59999069716E+03 0.  0.
        -24    2    4    4    0    0 -0.32983663939E+03  0.32724374130E+03 -0.24646593151E+03  0.53188724405E+03  0.79233263721E+02 0.  0.
         24    2    4    4    0    0  0.33783273702E+02  0.69861612385E+02 -0.63128803471E+03  0.64104971895E+03  0.79988780007E+02 0.  0.
         11    1    5    5    0    0 -0.27479662418E+03  0.22483530032E+03 -0.18356275981E+03  0.39969911649E+03  0.00000000000E+00 0. -1.
        -12    1    5    5    0    0 -0.55040015211E+02  0.10240844097E+03 -0.62903171698E+02  0.13218812756E+03  0.00000000000E+00 0.  1.
         15    1    3    3    0    0  0.72977489789E+02 -0.15845642429E+03 -0.28923728561E+03  0.33778027996E+03  0.17770000000E+01 0. -1.
        -16    1    3    3    0    0  0.22307587590E+03 -0.23864892939E+03 -0.49515387228E+03  0.59320613209E+03  0.00000000000E+00 0.  1.
          4    1    6    6  502    0 -0.19295878293E+02  0.32675780524E+02 -0.12507701104E+03  0.13070690970E+03  0.00000000000E+00 0. -1.
         -3    1    6    6    0  502  0.53079151995E+02  0.37185831861E+02 -0.50621102367E+03  0.51034280925E+03  0.00000000000E+00 0.  1.
<mgrwt>
<rscale>  0 0.53760559E+03</rscale>
<asrwt>0</asrwt>
<pdfrwt beam="1">  1        1 0.28969759E+00 0.53760559E+03</pdfrwt>
<pdfrwt beam="2">  1       -2 0.33982941E-01 0.53760559E+03</pdfrwt>
<totfact> 0.27177257E+01</totfact>
</mgrwt>
</event>
<event>
12    3  0.1308659E-007  0.1305624E+04  0.7818608E-02  0.9025117E-01
         -2   -1    0    0    0  501 -0.00000000000E+00  0.00000000000E+00  0.16813757770E+04  0.16813757770E+04  0.00000000000E+00 0.  1.
          1   -1    0    0  501    0  0.00000000000E+00 -0.00000000000E+00 -0.11664691336E+04  0.11664691336E+04  0.00000000000E+00 0. -1.
        -24    2    1    2    0    0 -0.68808753826E+03 -0.10315465010E+04 -0.25718837051E+03  0.12687148142E+04  0.77063466231E+02 0.  0.
    5000000    2    1    2    0    0  0.68808753826E+03  0.10315465010E+04  0.77209501394E+03  0.15791300965E+04  0.59997375535E+03 0.  0.
        -24    2    4    4    0    0  0.59548956760E+03  0.10863020806E+04  0.67476071532E+03  0.14129091426E+04  0.79688060330E+02 0.  0.
         24    2    4    4    0    0  0.92597970670E+02 -0.54755579615E+02  0.97334298615E+02  0.16622095387E+03  0.81134962545E+02 0.  0.
         13    1    5    5    0    0  0.18911881957E+03  0.33319910804E+03  0.25062579391E+03  0.45782186720E+03  0.00000000000E+00 0. -1.
        -14    1    5    5    0    0  0.40637074803E+03  0.75310297254E+03  0.42413492141E+03  0.95508727542E+03  0.00000000000E+00 0.  1.
         15    1    3    3    0    0 -0.22676734259E+03 -0.32873662117E+03 -0.11919694599E+03  0.41677603509E+03  0.17770000000E+01 0. -1.
        -16    1    3    3    0    0 -0.46132019567E+03 -0.70280987980E+03 -0.13799142452E+03  0.85193877909E+03  0.00000000000E+00 0.  1.
          4    1    6    6  502    0  0.63039280306E+02  0.74179088431E+01  0.62449573244E+02  0.89044513764E+02  0.00000000000E+00 0. -1.
         -3    1    6    6    0  502  0.29558690363E+02 -0.62173488458E+02  0.34884725371E+02  0.77176440105E+02  0.00000000000E+00 0.  1.
<mgrwt>
<rscale>  0 0.13056238E+04</rscale>
<asrwt>0</asrwt>
<pdfrwt beam="1">  1        1 0.17945679E+00 0.13056238E+04</pdfrwt>
<pdfrwt beam="2">  1       -2 0.25867320E+00 0.13056238E+04</pdfrwt>
<totfact> 0.54393687E-01</totfact>
</mgrwt>
</event>
<event>
12    3  0.1176505E-007  0.4287762E+03  0.7818608E-02  0.1034247E+00
          1   -1    0    0  501    0  0.00000000000E+00  0.00000000000E+00  0.30636431725E+04  0.30636431725E+04  0.00000000000E+00 0. -1.
         -2   -1    0    0    0  501 -0.00000000000E+00 -0.00000000000E+00 -0.87949330413E+02  0.87949330413E+02  0.00000000000E+00 0.  1.
        -24    2    1    2    0    0 -0.27358307537E+03  0.19989399795E+03  0.10328893142E+04  0.10902271211E+04  0.83243802450E+02 0.  0.
    5000000    2    1    2    0    0  0.27358307537E+03 -0.19989399795E+03  0.19428045279E+04  0.20613653818E+04  0.59994374254E+03 0.  0.
        -24    2    4    4    0    0  0.26041839727E+03  0.19528491258E+02  0.32076097490E+03  0.42245047253E+03  0.85893510285E+02 0.  0.
         24    2    4    4    0    0  0.13164678097E+02 -0.21942248921E+03  0.16220435530E+04  0.16389149093E+04  0.81836755727E+02 0.  0.
         13    1    5    5    0    0 -0.73083034253E+00  0.13432335778E+02  0.19783133825E+02  0.23923506043E+02  0.00000000000E+00 0. -1.
        -14    1    5    5    0    0  0.26114922762E+03  0.60961554804E+01  0.30097784108E+03  0.39852696648E+03  0.00000000000E+00 0.  1.
         15    1    3    3    0    0 -0.18527228070E+03  0.86118535589E+02  0.63599782859E+03  0.66801093993E+03  0.17770000000E+01 0. -1.
        -16    1    3    3    0    0 -0.88310794672E+02  0.11377546236E+03  0.39689148564E+03  0.42221618119E+03  0.00000000000E+00 0.  1.
          2    1    6    6  502    0  0.26308771649E+02 -0.16215294123E+02  0.22112173307E+03  0.22327092974E+03  0.00000000000E+00 0. -1.
         -1    1    6    6    0  502 -0.13144093552E+02 -0.20320719508E+03  0.14009218199E+04  0.14156439795E+04  0.00000000000E+00 0.  1.
<mgrwt>
<rscale>  0 0.42877617E+03</rscale>
<asrwt>0</asrwt>
<pdfrwt beam="1">  1        1 0.47132964E+00 0.42877617E+03</pdfrwt>
<pdfrwt beam="2">  1       -2 0.13530669E-01 0.42877617E+03</pdfrwt>
<totfact> 0.22204193E+01</totfact>
</mgrwt>
</event>
<event>
12    3  0.1271882E-007  0.1336227E+04  0.7818608E-02  0.9001320E-01
          1   -1    0    0  501    0  0.00000000000E+00  0.00000000000E+00  0.16716202171E+04  0.16716202171E+04  0.00000000000E+00 0. -1.
         -2   -1    0    0    0  501 -0.00000000000E+00 -0.00000000000E+00 -0.16695337975E+04  0.16695337975E+04  0.00000000000E+00 0.  1.
        -24    2    1    2    0    0  0.21824664405E+03  0.13095705715E+04  0.92185246458E+03  0.16182519442E+04  0.79502887827E+02 0.  0.
    5000000    2    1    2    0    0 -0.21824664405E+03 -0.13095705715E+04 -0.91976604499E+03  0.17229020705E+04  0.59984605326E+03 0.  0.
        -24    2    4    4    0    0  0.11793821048E+02 -0.31821262064E+03  0.29741418963E+02  0.32943955691E+03  0.79041150742E+02 0.  0.
         24    2    4    4    0    0 -0.23004046509E+03 -0.99135795082E+03 -0.94950746396E+03  0.13934625135E+04  0.66814297209E+02 0.  0.
         11    1    5    5    0    0  0.35708281983E+02 -0.10394335349E+03 -0.94324138238E+01  0.11030989334E+03  0.00000000000E+00 0. -1.
        -12    1    5    5    0    0 -0.23914460935E+02 -0.21426926714E+03  0.39173832787E+02  0.21912966358E+03  0.00000000000E+00 0.  1.
         15    1    3    3    0    0  0.86585109065E+02  0.66966277868E+03  0.43063755237E+03  0.80087269744E+03  0.17770000000E+01 0. -1.
        -16    1    3    3    0    0  0.13166153498E+03  0.63990779278E+03  0.49121491221E+03  0.81737924676E+03  0.00000000000E+00 0.  1.
          2    1    6    6  502    0 -0.16000724610E+03 -0.76047867706E+03 -0.75588641064E+03  0.10841099588E+04  0.00000000000E+00 0. -1.
         -1    1    6    6    0  502 -0.70033218991E+02 -0.23087927376E+03 -0.19362105331E+03  0.30935255470E+03  0.00000000000E+00 0.  1.
<mgrwt>
<rscale>  0 0.13362269E+04</rscale>
<asrwt>0</asrwt>
<pdfrwt beam="1">  1        1 0.25717234E+00 0.13362269E+04</pdfrwt>
<pdfrwt beam="2">  1       -2 0.25685135E+00 0.13362269E+04</pdfrwt>
<totfact> 0.24450738E-01</totfact>
</mgrwt>
</event>
<event>
12    3  0.1176505E-007  0.3555800E+03  0.7818608E-02  0.1060348E+00
          3   -1    0    0  501    0  0.00000000000E+00  0.00000000000E+00  0.96453936950E+03  0.96453936950E+03  0.00000000000E+00 0. -1.
         -4   -1    0    0    0  501 -0.00000000000E+00 -0.00000000000E+00 -0.21931310622E+03  0.21931310622E+03  0.00000000000E+00 0.  1.
        -24    2    1    2    0    0 -0.18872262628E+03 -0.31390723659E+02  0.43442052705E+03  0.48153839145E+03  0.80971729126E+02 0.  0.
    5000000    2    1    2    0    0  0.18872262628E+03  0.31390723659E+02  0.31080573623E+03  0.70231408426E+03  0.60003604898E+03 0.  0.
        -24    2    4    4    0    0 -0.36597969471E+02  0.20738623275E+03  0.33544316744E+03  0.40430322295E+03  0.81181996787E+02 0.  0.
         24    2    4    4    0    0  0.22532059575E+03 -0.17599550909E+03 -0.24637431209E+02  0.29801086131E+03  0.80372136676E+02 0.  0.
         11    1    5    5    0    0 -0.15189878437E+02  0.19956543407E+03  0.31740357395E+03  0.37523609053E+03  0.00000000000E+00 0. -1.
        -12    1    5    5    0    0 -0.21408091034E+02  0.78207986806E+01  0.18039593492E+02  0.29067132420E+02  0.00000000000E+00 0.  1.
         15    1    3    3    0    0 -0.12950005281E+03  0.16110415323E+01  0.20659408116E+03  0.24383833011E+03  0.17770000000E+01 0. -1.
        -16    1    3    3    0    0 -0.59222573475E+02 -0.33001765192E+02  0.22782644589E+03  0.23770006134E+03  0.00000000000E+00 0.  1.
          2    1    6    6  502    0  0.18034381373E+03 -0.16538219609E+03  0.19391244763E+01  0.24470170031E+03  0.00000000000E+00 0. -1.
         -1    1    6    6    0  502  0.44976782028E+02 -0.10613312999E+02 -0.26576555686E+02  0.53309161000E+02  0.00000000000E+00 0.  1.
<mgrwt>
<rscale>  0 0.35557995E+03</rscale>
<asrwt>0</asrwt>
<pdfrwt beam="1">  1        3 0.14839067E+00 0.35557995E+03</pdfrwt>
<pdfrwt beam="2">  1       -4 0.33740478E-01 0.35557995E+03</pdfrwt>
<totfact> 0.63992077E+00</totfact>
</mgrwt>
</event>
<event>
12    3  0.1176505E-007  0.1274977E+04  0.7818608E-02  0.9049648E-01
          1   -1    0    0  501    0  0.00000000000E+00  0.00000000000E+00  0.16990896499E+04  0.16990896499E+04  0.00000000000E+00 0. -1.
         -2   -1    0    0    0  501 -0.00000000000E+00 -0.00000000000E+00 -0.10388936107E+04  0.10388936107E+04  0.00000000000E+00 0.  1.
        -24    2    1    2    0    0 -0.98267336395E+03  0.78754701856E+03  0.34640683163E+03  0.13081654357E+04  0.73633330692E+02 0.  0.
    5000000    2    1    2    0    0  0.98267336395E+03 -0.78754701856E+03  0.31378920762E+03  0.14298178249E+04  0.60003174827E+03 0.  0.
        -24    2    4    4    0    0  0.89723046514E+03 -0.62818194359E+03  0.45377590634E+03  0.11880353276E+04  0.76683144888E+02 0.  0.
         24    2    4    4    0    0  0.85442898809E+02 -0.15936507497E+03 -0.13998669873E+03  0.24178249727E+03  0.78516139023E+02 0.  0.
         13    1    5    5    0    0  0.64355624419E+03 -0.47875785251E+03  0.30467501373E+03  0.85802131953E+03  0.00000000000E+00 0. -1.
        -14    1    5    5    0    0  0.25367422095E+03 -0.14942409108E+03  0.14910089261E+03  0.33001400810E+03  0.00000000000E+00 0.  1.
         15    1    3    3    0    0 -0.11465898154E+03  0.10427772370E+03  0.20025340388E+02  0.15628402891E+03  0.17770000000E+01 0. -1.
        -16    1    3    3    0    0 -0.86801438241E+03  0.68326929486E+03  0.32638149124E+03  0.11518814067E+04  0.00000000000E+00 0.  1.
          4    1    6    6  502    0  0.59299081166E+02 -0.15662993545E+03 -0.10373429001E+03  0.19700284422E+03  0.00000000000E+00 0. -1.
         -3    1    6    6    0  502  0.26143817643E+02 -0.27351395151E+01 -0.36252408713E+02  0.44779653043E+02  0.00000000000E+00 0.  1.
<mgrwt>
<rscale>  0 0.12749767E+04</rscale>
<asrwt>0</asrwt>
<pdfrwt beam="1">  1        1 0.26139841E+00 0.12749767E+04</pdfrwt>
<pdfrwt beam="2">  1       -2 0.15982979E+00 0.12749767E+04</pdfrwt>
<totfact> 0.10232023E+00</totfact>
</mgrwt>
</event>
<event>
12    3  0.1176505E-007  0.4120423E+03  0.7818608E-02  0.1039688E+00
         -2   -1    0    0    0  501 -0.00000000000E+00  0.00000000000E+00  0.10873812181E+03  0.10873812181E+03  0.00000000000E+00 0.  1.
          1   -1    0    0  501    0  0.00000000000E+00 -0.00000000000E+00 -0.22190532741E+04  0.22190532741E+04  0.00000000000E+00 0. -1.
        -24    2    1    2    0    0  0.27251641078E+03  0.29435183677E+02 -0.97225091030E+03  0.10122450470E+04  0.65089004253E+02 0.  0.
    5000000    2    1    2    0    0 -0.27251641078E+03 -0.29435183677E+02 -0.11380642419E+04  0.13155463488E+04  0.60028356046E+03 0.  0.
        -24    2    4    4    0    0 -0.31839341293E+03 -0.17966977553E+03 -0.36378568084E+03  0.52147783176E+03  0.77094187772E+02 0.  0.
         24    2    4    4    0    0  0.45877002151E+02  0.15023459186E+03 -0.77427856110E+03  0.79406851708E+03  0.79764576858E+02 0.  0.
         13    1    5    5    0    0 -0.55106510433E+02 -0.14339825013E+01 -0.43985226432E+02  0.70522932031E+02  0.00000000000E+00 0. -1.
        -14    1    5    5    0    0 -0.26328690250E+03 -0.17823579303E+03 -0.31980045441E+03  0.45095489972E+03  0.00000000000E+00 0.  1.
         15    1    3    3    0    0  0.23321885162E+03  0.46689647763E+02 -0.85136699430E+03  0.88396825320E+03  0.17770000000E+01 0. -1.
        -16    1    3    3    0    0  0.39297559162E+02 -0.17254464086E+02 -0.12088391600E+03  0.12827679382E+03  0.00000000000E+00 0.  1.
          4    1    6    6  502    0  0.63702512293E+00  0.10909187886E+03 -0.39065391266E+03  0.40560069442E+03  0.00000000000E+00 0. -1.
         -3    1    6    6    0  502  0.45239977028E+02  0.41142712995E+02 -0.38362464844E+03  0.38846782266E+03  0.00000000000E+00 0.  1.
<mgrwt>
<rscale>  0 0.41204229E+03</rscale>
<asrwt>0</asrwt>
<pdfrwt beam="1">  1        1 0.34139280E+00 0.41204229E+03</pdfrwt>
<pdfrwt beam="2">  1       -2 0.16728942E-01 0.41204229E+03</pdfrwt>
<totfact> 0.59003130E+01</totfact>
</mgrwt>
</event>
<event>
12    3  0.1176505E-007  0.4444689E+03  0.7818608E-02  0.1029384E+00
          1   -1    0    0  501    0  0.00000000000E+00  0.00000000000E+00  0.25463587257E+04  0.25463587257E+04  0.00000000000E+00 0. -1.
         -4   -1    0    0    0  501 -0.00000000000E+00 -0.00000000000E+00 -0.83369987389E+02  0.83369987389E+02  0.00000000000E+00 0.  1.
        -24    2    1    2    0    0 -0.24967736885E+03 -0.20119184459E+02  0.88328179070E+03  0.92146582561E+03  0.78542828282E+02 0.  0.
    5000000    2    1    2    0    0  0.24967736885E+03  0.20119184459E+02  0.15797069476E+04  0.17082628875E+04  0.59995373348E+03 0.  0.
        -24    2    4    4    0    0  0.39806825441E+03 -0.12929916487E+03  0.10468977390E+04  0.11299626481E+04  0.75127231229E+02 0.  0.
         24    2    4    4    0    0 -0.14839088556E+03  0.14941834933E+03  0.53280920857E+03  0.57830023939E+03  0.78738911002E+02 0.  0.
         11    1    5    5    0    0  0.23447598764E+03 -0.99277769126E+02  0.55285039544E+03  0.60866955235E+03  0.00000000000E+00 0. -1.
        -12    1    5    5    0    0  0.16359226677E+03 -0.30021395746E+02  0.49404734357E+03  0.52129309571E+03  0.00000000000E+00 0.  1.
         15    1    3    3    0    0 -0.10557878153E+03 -0.37011559502E+02  0.48032691831E+03  0.49318742971E+03  0.17770000000E+01 0. -1.
        -16    1    3    3    0    0 -0.14409858733E+03  0.16892375042E+02  0.40295487239E+03  0.42827839590E+03  0.00000000000E+00 0.  1.
          2    1    6    6  502    0 -0.78896131976E+02  0.88858275519E+02  0.19695100180E+03  0.23002193347E+03  0.00000000000E+00 0. -1.
         -1    1    6    6    0  502 -0.69494753580E+02  0.60560073812E+02  0.33585820677E+03  0.34827830591E+03  0.00000000000E+00 0.  1.
<mgrwt>
<rscale>  0 0.44446888E+03</rscale>
<asrwt>0</asrwt>
<pdfrwt beam="1">  1        1 0.39174744E+00 0.44446888E+03</pdfrwt>
<pdfrwt beam="2">  1       -4 0.12826154E-01 0.44446888E+03</pdfrwt>
<totfact> 0.34352722E+01</totfact>
</mgrwt>
</event>
<event>
12    3  0.1176505E-007  0.6860560E+03  0.7818608E-02  0.9741380E-01
          1   -1    0    0  501    0  0.00000000000E+00  0.00000000000E+00  0.20195172154E+04  0.20195172154E+04  0.00000000000E+00 0. -1.
         -2   -1    0    0    0  501 -0.00000000000E+00 -0.00000000000E+00 -0.30316589144E+03  0.30316589144E+03  0.00000000000E+00 0.  1.
        -24    2    1    2    0    0 -0.17172823911E+03 -0.61531953282E+03  0.10072871396E+04  0.11953575464E+04  0.78380906272E+02 0.  0.
    5000000    2    1    2    0    0  0.17172823911E+03  0.61531953282E+03  0.70906418434E+03  0.11273255604E+04  0.59998515494E+03 0.  0.
        -24    2    4    4    0    0  0.25830414041E+03  0.49772093136E+03  0.21461138175E+03  0.60566084438E+03  0.79497539428E+02 0.  0.
         24    2    4    4    0    0 -0.86575901296E+02  0.11759860147E+03  0.49445280259E+03  0.52166471607E+03  0.79534170329E+02 0.  0.
         11    1    5    5    0    0  0.28002161699E+02  0.21072956966E+02  0.17236707239E+01  0.35087912675E+02  0.00000000000E+00 0. -1.
        -12    1    5    5    0    0  0.23030197871E+03  0.47664797439E+03  0.21288771103E+03  0.57057293170E+03  0.00000000000E+00 0.  1.
         15    1    3    3    0    0 -0.14570824201E+03 -0.39736672581E+03  0.69251226237E+03  0.81160803214E+03  0.17770000000E+01 0. -1.
        -16    1    3    3    0    0 -0.26019997098E+02 -0.21795280702E+03  0.31477487724E+03  0.38374951424E+03  0.00000000000E+00 0.  1.
          2    1    6    6  502    0 -0.69235200191E+02  0.29658807558E+02  0.19330507811E+03  0.20746086627E+03  0.00000000000E+00 0. -1.
         -1    1    6    6    0  502 -0.17340701104E+02  0.87939793908E+02  0.30114772448E+03  0.31420384980E+03  0.00000000000E+00 0.  1.
<mgrwt>
<rscale>  0 0.68605599E+03</rscale>
<asrwt>0</asrwt>
<pdfrwt beam="1">  1        1 0.31069495E+00 0.68605599E+03</pdfrwt>
<pdfrwt beam="2">  1       -2 0.46640908E-01 0.68605599E+03</pdfrwt>
<totfact> 0.11627989E+01</totfact>
</mgrwt>
</event>
<event>
12    3  0.1176505E-007  0.6580947E+03  0.7818608E-02  0.9791708E-01
         -2   -1    0    0    0  501 -0.00000000000E+00  0.00000000000E+00  0.29236926868E+03  0.29236926868E+03  0.00000000000E+00 0.  1.
          1   -1    0    0  501    0  0.00000000000E+00 -0.00000000000E+00 -0.16060121391E+04  0.16060121391E+04  0.00000000000E+00 0. -1.
        -24    2    1    2    0    0 -0.32123836713E+03 -0.42849957632E+03 -0.35641061369E+03  0.64816177719E+03  0.79241330372E+02 0.  0.
    5000000    2    1    2    0    0  0.32123836713E+03  0.42849957632E+03 -0.95723225677E+03  0.12502196306E+04  0.59995796184E+03 0.  0.
        -24    2    4    4    0    0  0.30731479407E+03 -0.31072148670E+02 -0.26067191841E+03  0.41204456688E+03  0.80143714504E+02 0.  0.
         24    2    4    4    0    0  0.13923573059E+02  0.45957172499E+03 -0.69656033836E+03  0.83817506374E+03  0.77078506732E+02 0.  0.
         13    1    5    5    0    0  0.25145010806E+03  0.64689866649E+01 -0.21242863939E+03  0.32923385529E+03  0.00000000000E+00 0. -1.
        -14    1    5    5    0    0  0.55864686007E+02 -0.37541135335E+02 -0.48243279020E+02  0.82810711599E+02  0.00000000000E+00 0.  1.
         15    1    3    3    0    0 -0.17217889589E+03 -0.26113855043E+03 -0.24810525447E+03  0.39924715370E+03  0.17770000000E+01 0. -1.
        -16    1    3    3    0    0 -0.14905947124E+03 -0.16736102590E+03 -0.10830535922E+03  0.24891462350E+03  0.00000000000E+00 0.  1.
          4    1    6    6  502    0 -0.54338847183E+01  0.22512215232E+03 -0.40653756637E+03  0.46473896269E+03  0.00000000000E+00 0. -1.
         -3    1    6    6    0  502  0.19357457777E+02  0.23444957267E+03 -0.29002277199E+03  0.37343610105E+03  0.00000000000E+00 0.  1.
<mgrwt>
<rscale>  0 0.65809467E+03</rscale>
<asrwt>0</asrwt>
<pdfrwt beam="1">  1        1 0.24707879E+00 0.65809467E+03</pdfrwt>
<pdfrwt beam="2">  1       -2 0.44979887E-01 0.65809467E+03</pdfrwt>
<totfact> 0.23733521E+01</totfact>
</mgrwt>
</event>
<event>
12    3  0.1176505E-007  0.3881890E+03  0.7818608E-02  0.1047948E+00
          1   -1    0    0  501    0  0.00000000000E+00  0.00000000000E+00  0.32768101131E+03  0.32768101131E+03  0.00000000000E+00 0. -1.
         -2   -1    0    0    0  501 -0.00000000000E+00 -0.00000000000E+00 -0.65608203691E+03  0.65608203691E+03  0.00000000000E+00 0.  1.
        -24    2    1    2    0    0 -0.10182645434E+03 -0.21480257361E+03 -0.21201417009E+03  0.32806767839E+03  0.78546934078E+02 0.  0.
    5000000    2    1    2    0    0  0.10182645434E+03  0.21480257361E+03 -0.11638685552E+03  0.65569536983E+03  0.59990144644E+03 0.  0.
        -24    2    4    4    0    0  0.86688386041E+02  0.36348685742E+03  0.86042284372E+02  0.39170239562E+03  0.79936976713E+02 0.  0.
         24    2    4    4    0    0  0.15138068301E+02 -0.14868428380E+03 -0.20242913989E+03  0.26399297421E+03  0.79865865012E+02 0.  0.
         11    1    5    5    0    0  0.72848168665E+02  0.20310714701E+03  0.16683500753E+02  0.21642021173E+03  0.00000000000E+00 0. -1.
        -12    1    5    5    0    0  0.13840217376E+02  0.16037971040E+03  0.69358783619E+02  0.17528218389E+03  0.00000000000E+00 0.  1.
         15    1    3    3    0    0 -0.10181473951E+03 -0.18472609269E+03 -0.21042998388E+03  0.29794950302E+03  0.17770000000E+01 0. -1.
        -16    1    3    3    0    0 -0.11714830852E-01 -0.30076480924E+02 -0.15841862041E+01  0.30118175375E+02  0.00000000000E+00 0.  1.
          4    1    6    6  502    0  0.27428011429E+02 -0.35975190485E+02 -0.10564749660E+03  0.11492564414E+03  0.00000000000E+00 0. -1.
         -3    1    6    6    0  502 -0.12289943128E+02 -0.11270909332E+03 -0.96781643287E+02  0.14906733007E+03  0.00000000000E+00 0.  1.
<mgrwt>
<rscale>  0 0.38818898E+03</rscale>
<asrwt>0</asrwt>
<pdfrwt beam="1">  1        1 0.50412464E-01 0.38818898E+03</pdfrwt>
<pdfrwt beam="2">  1       -2 0.10093570E+00 0.38818898E+03</pdfrwt>
<totfact> 0.57529243E+01</totfact>
</mgrwt>
</event>
<event>
12    3  0.1176505E-007  0.2121343E+04  0.7818608E-02  0.8551900E-01
          1   -1    0    0  501    0  0.00000000000E+00  0.00000000000E+00  0.23185937383E+04  0.23185937383E+04  0.00000000000E+00 0. -1.
         -2   -1    0    0    0  501 -0.00000000000E+00 -0.00000000000E+00 -0.24189153614E+04  0.24189153614E+04  0.00000000000E+00 0.  1.
        -24    2    1    2    0    0  0.60918310052E+03 -0.20075966380E+04 -0.10621143219E+04  0.23528919496E+04  0.80407605107E+02 0.  0.
    5000000    2    1    2    0    0 -0.60918310052E+03  0.20075966380E+04  0.96179269872E+03  0.23846171501E+04  0.59983785001E+03 0.  0.
        -24    2    4    4    0    0 -0.39270979926E+02 -0.43883418340E+01  0.53209256004E+02  0.10323593588E+03  0.79151538991E+02 0.  0.
         24    2    4    4    0    0 -0.56991212060E+03  0.20119849798E+04  0.90858344271E+03  0.22813812142E+04  0.79328354708E+02 0.  0.
         13    1    5    5    0    0 -0.43146184580E+02  0.46476751412E+01  0.70824817238E+02  0.83062319164E+02  0.00000000000E+00 0. -1.
        -14    1    5    5    0    0  0.38752046543E+01 -0.90360169752E+01 -0.17615561234E+02  0.20173616718E+02  0.00000000000E+00 0.  1.
         15    1    3    3    0    0  0.34346675801E+03 -0.11663696165E+04 -0.65843179611E+03  0.13827230684E+04  0.17770000000E+01 0. -1.
        -16    1    3    3    0    0  0.26571634251E+03 -0.84122702156E+03 -0.40368252577E+03  0.97016888122E+03  0.00000000000E+00 0.  1.
          4    1    6    6  502    0 -0.38944425273E+03  0.14264213606E+04  0.67841528682E+03  0.16268349717E+04  0.00000000000E+00 0. -1.
         -1    1    6    6    0  502 -0.18046786787E+03  0.58556361927E+03  0.23016815589E+03  0.65454624247E+03  0.00000000000E+00 0.  1.
<mgrwt>
<rscale>  0 0.21213428E+04</rscale>
<asrwt>0</asrwt>
<pdfrwt beam="1">  1        1 0.35670673E+00 0.21213428E+04</pdfrwt>
<pdfrwt beam="2">  1       -2 0.37214082E+00 0.21213428E+04</pdfrwt>
<totfact> 0.15572022E-02</totfact>
</mgrwt>
</event>
<event>
12    3  0.1176505E-007  0.7525048E+03  0.7818608E-02  0.9631429E-01
          1   -1    0    0  501    0  0.00000000000E+00  0.00000000000E+00  0.56914686067E+03  0.56914686067E+03  0.00000000000E+00 0. -1.
         -2   -1    0    0    0  501 -0.00000000000E+00 -0.00000000000E+00 -0.11779306057E+04  0.11779306057E+04  0.00000000000E+00 0.  1.
        -24    2    1    2    0    0 -0.53964815784E+03  0.35459808385E+03 -0.57004671555E+03  0.86477703573E+03  0.76981350274E+02 0.  0.
    5000000    2    1    2    0    0  0.53964815784E+03 -0.35459808385E+03 -0.38737029501E+02  0.88230043065E+03  0.59999463093E+03 0.  0.
        -24    2    4    4    0    0  0.60602305108E+03 -0.43652012084E+03 -0.35372750792E+02  0.75140025774E+03  0.74413449700E+02 0.  0.
         24    2    4    4    0    0 -0.66374893242E+02  0.81922036990E+02 -0.33642787086E+01  0.13090017291E+03  0.77502840591E+02 0.  0.
         13    1    5    5    0    0  0.33497659300E+03 -0.21788635764E+03 -0.50824274399E+02  0.40282364574E+03  0.00000000000E+00 0. -1.
        -14    1    5    5    0    0  0.27104645808E+03 -0.21863376320E+03  0.15451523606E+02  0.34857661200E+03  0.00000000000E+00 0.  1.
         15    1    3    3    0    0 -0.46801675719E+03  0.28568483917E+03 -0.50881679772E+03  0.74803288946E+03  0.17770000000E+01 0. -1.
        -16    1    3    3    0    0 -0.71631400643E+02  0.68913244681E+02 -0.61229917831E+02  0.11674414627E+03  0.00000000000E+00 0.  1.
          2    1    6    6  502    0 -0.24214295051E+02  0.10246319626E+02 -0.33380966035E+02  0.42492446907E+02  0.00000000000E+00 0. -1.
         -1    1    6    6    0  502 -0.42160598191E+02  0.71675717364E+02  0.30016687326E+02  0.88407726006E+02  0.00000000000E+00 0.  1.
<mgrwt>
<rscale>  0 0.75250483E+03</rscale>
<asrwt>0</asrwt>
<pdfrwt beam="1">  1        1 0.87561055E-01 0.75250483E+03</pdfrwt>
<pdfrwt beam="2">  1       -2 0.18122009E+00 0.75250483E+03</pdfrwt>
<totfact> 0.58848548E+00</totfact>
</mgrwt>
</event>
<event>
12    3  0.1176505E-007  0.1389015E+04  0.7818608E-02  0.8961809E-01
         -2   -1    0    0    0  501 -0.00000000000E+00  0.00000000000E+00  0.67521952493E+03  0.67521952493E+03  0.00000000000E+00 0.  1.
          1   -1    0    0  501    0  0.00000000000E+00 -0.00000000000E+00 -0.39071867691E+04  0.39071867691E+04  0.00000000000E+00 0. -1.
        -24    2    1    2    0    0  0.13094772917E+04 -0.26957274922E+03 -0.27169058657E+04  0.30291422950E+04  0.82008022348E+02 0.  0.
    5000000    2    1    2    0    0 -0.13094772917E+04  0.26957274922E+03 -0.51506137849E+03  0.15532639990E+04  0.59995048323E+03 0.  0.
        -24    2    4    4    0    0 -0.26385550450E+03  0.28289785059E+03 -0.26349211525E+03  0.47479267783E+03  0.79681057929E+02 0.  0.
         24    2    4    4    0    0 -0.10456217872E+04 -0.13325101374E+02 -0.25156926324E+03  0.10784713212E+04  0.79440645481E+02 0.  0.
         11    1    5    5    0    0 -0.12981227696E+03  0.18565583949E+03 -0.17995429823E+03  0.28931447844E+03  0.00000000000E+00 0. -1.
        -12    1    5    5    0    0 -0.13404322755E+03  0.97242011101E+02 -0.83537817026E+02  0.18547819939E+03  0.00000000000E+00 0.  1.
         15    1    3    3    0    0  0.63854305349E+03 -0.96520072883E+02 -0.12597993930E+04  0.14156804103E+04  0.17770000000E+01 0. -1.
        -16    1    3    3    0    0  0.67093423826E+03 -0.17305267633E+03 -0.14571064727E+04  0.16134618848E+04  0.00000000000E+00 0.  1.
          4    1    6    6  502    0 -0.10261448370E+04 -0.20754143544E+02 -0.25445529634E+03  0.10574268101E+04  0.00000000000E+00 0. -1.
         -3    1    6    6    0  502 -0.19476950259E+02  0.74290421699E+01  0.28860331077E+01  0.21044511067E+02  0.00000000000E+00 0.  1.
<mgrwt>
<rscale>  0 0.13890152E+04</rscale>
<asrwt>0</asrwt>
<pdfrwt beam="1">  1        1 0.60110567E+00 0.13890152E+04</pdfrwt>
<pdfrwt beam="2">  1       -2 0.10387992E+00 0.13890152E+04</pdfrwt>
<totfact> 0.74980922E-02</totfact>
</mgrwt>
</event>
<event>
12    3  0.1176505E-007  0.8790291E+03  0.7818608E-02  0.9452183E-01
          1   -1    0    0  501    0  0.00000000000E+00  0.00000000000E+00  0.16411420834E+04  0.16411420834E+04  0.00000000000E+00 0. -1.
         -2   -1    0    0    0  501 -0.00000000000E+00 -0.00000000000E+00 -0.64857954649E+03  0.64857954649E+03  0.00000000000E+00 0.  1.
        -24    2    1    2    0    0  0.12232429390E+03 -0.76824664604E+03  0.10460766901E+04  0.13059558488E+04  0.77962140690E+02 0.  0.
    5000000    2    1    2    0    0 -0.12232429390E+03  0.76824664604E+03 -0.53514153234E+02  0.98376578106E+03  0.59980430589E+03 0.  0.
        -24    2    4    4    0    0  0.17059618424E+03  0.41363618759E+02 -0.19397282041E+01  0.19429421726E+03  0.83261475353E+02 0.  0.
         24    2    4    4    0    0 -0.29292047814E+03  0.72688302728E+03 -0.51574425029E+02  0.78947156381E+03  0.80275070104E+02 0.  0.
         13    1    5    5    0    0  0.48195232451E+02 -0.24061284511E+02 -0.11836297903E+02  0.55152731495E+02  0.00000000000E+00 0. -1.
        -14    1    5    5    0    0  0.12240095179E+03  0.65424903271E+02  0.98965696986E+01  0.13914148576E+03  0.00000000000E+00 0.  1.
         15    1    3    3    0    0  0.11681057054E+03 -0.54658096598E+03  0.71619721640E+03  0.90848063946E+03  0.17770000000E+01 0. -1.
        -16    1    3    3    0    0  0.55137233540E+01 -0.22166568006E+03  0.32987947372E+03  0.39747520935E+03  0.00000000000E+00 0.  1.
          4    1    6    6  502    0 -0.25591349102E+03  0.59359245152E+03 -0.68849224329E+02  0.65006455762E+03  0.00000000000E+00 0. -1.
         -3    1    6    6    0  502 -0.37006987123E+02  0.13329057576E+03  0.17274799300E+02  0.13940700618E+03  0.00000000000E+00 0.  1.
<mgrwt>
<rscale>  0 0.87902909E+03</rscale>
<asrwt>0</asrwt>
<pdfrwt beam="1">  1        1 0.25248340E+00 0.87902909E+03</pdfrwt>
<pdfrwt beam="2">  1       -2 0.99781470E-01 0.87902909E+03</pdfrwt>
<totfact> 0.38749030E+00</totfact>
</mgrwt>
</event>
<event>
12    3  0.1176505E-007  0.5501454E+03  0.7818608E-02  0.1001460E+00
         -2   -1    0    0    0  501 -0.00000000000E+00  0.00000000000E+00  0.20341435436E+03  0.20341435436E+03  0.00000000000E+00 0.  1.
          1   -1    0    0  501    0  0.00000000000E+00 -0.00000000000E+00 -0.19173736272E+04  0.19173736272E+04  0.00000000000E+00 0. -1.
        -24    2    1    2    0    0 -0.30610468646E+01 -0.47566421959E+03 -0.71438066064E+03  0.86157783968E+03  0.75570005375E+02 0.  0.
    5000000    2    1    2    0    0  0.30610468646E+01  0.47566421959E+03 -0.99957861223E+03  0.12592101419E+04  0.60015577951E+03 0.  0.
        -24    2    4    4    0    0 -0.18026393037E+03  0.34296815989E+03 -0.92696993172E+03  0.10078842877E+04  0.80219946659E+02 0.  0.
         24    2    4    4    0    0  0.18332497723E+03  0.13269605970E+03 -0.72608680502E+02  0.25132585419E+03  0.81709075157E+02 0.  0.
         13    1    5    5    0    0 -0.21751543592E+02  0.11036124594E+03 -0.30865861313E+03  0.32851616963E+03  0.00000000000E+00 0. -1.
        -14    1    5    5    0    0 -0.15851238677E+03  0.23260691395E+03 -0.61831131860E+03  0.67936811810E+03  0.00000000000E+00 0.  1.
         15    1    3    3    0    0  0.18823553704E+01 -0.37752199304E+03 -0.50728380579E+03  0.63234991566E+03  0.17770000000E+01 0. -1.
        -16    1    3    3    0    0 -0.49434022350E+01 -0.98142226554E+02 -0.20709685486E+03  0.22922792402E+03  0.00000000000E+00 0.  1.
          4    1    6    6  502    0  0.87170057667E+02  0.90078999843E+02 -0.33525000528E+01  0.12539571134E+03  0.00000000000E+00 0. -1.
         -3    1    6    6    0  502  0.96154919563E+02  0.42617059860E+02 -0.69256180450E+02  0.12593014285E+03  0.00000000000E+00 0.  1.
<mgrwt>
<rscale>  0 0.55014540E+03</rscale>
<asrwt>0</asrwt>
<pdfrwt beam="1">  1        1 0.29498057E+00 0.55014540E+03</pdfrwt>
<pdfrwt beam="2">  1       -2 0.31294515E-01 0.55014540E+03</pdfrwt>
<totfact> 0.30026284E+01</totfact>
</mgrwt>
</event>
<event>
12    3  0.1176505E-007  0.1034647E+04  0.7818608E-02  0.9271340E-01
          1   -1    0    0  501    0  0.00000000000E+00  0.00000000000E+00  0.18180795467E+04  0.18180795467E+04  0.00000000000E+00 0. -1.
         -2   -1    0    0    0  501 -0.00000000000E+00 -0.00000000000E+00 -0.60476722025E+03  0.60476722025E+03  0.00000000000E+00 0.  1.
        -24    2    1    2    0    0  0.91314807395E+03 -0.27640461496E+03  0.42734086705E+03  0.10488106549E+04  0.84526072858E+02 0.  0.
    5000000    2    1    2    0    0 -0.91314807395E+03  0.27640461496E+03  0.78597145939E+03  0.13740361121E+04  0.59998765502E+03 0.  0.
        -24    2    4    4    0    0  0.74276771708E+01 -0.92599552117E+02  0.14739099567E+03  0.19228030919E+03  0.81349642018E+02 0.  0.
         24    2    4    4    0    0 -0.92057575112E+03  0.36900416708E+03  0.63858046372E+03  0.11817558029E+04  0.71679705217E+02 0.  0.
         11    1    5    5    0    0 -0.31226813260E+02 -0.69127760289E+02  0.73328606697E+02  0.10550282304E+03  0.00000000000E+00 0. -1.
        -12    1    5    5    0    0  0.38654490431E+02 -0.23471791828E+02  0.74062388975E+02  0.86777486152E+02  0.00000000000E+00 0.  1.
         15    1    3    3    0    0  0.26587241606E+03 -0.11132491212E+03  0.15658192881E+03  0.32802810221E+03  0.17770000000E+01 0. -1.
        -16    1    3    3    0    0  0.64727565789E+03 -0.16507970284E+03  0.27075893824E+03  0.72078255266E+03  0.00000000000E+00 0.  1.
          4    1    6    6  502    0 -0.37287756308E+03  0.16005376838E+03  0.30171938680E+03  0.50565746726E+03  0.00000000000E+00 0. -1.
         -3    1    6    6    0  502 -0.54769818804E+03  0.20895039869E+03  0.33686107692E+03  0.67609833563E+03  0.00000000000E+00 0.  1.
<mgrwt>
<rscale>  0 0.10346473E+04</rscale>
<asrwt>0</asrwt>
<pdfrwt beam="1">  1        1 0.27970454E+00 0.10346473E+04</pdfrwt>
<pdfrwt beam="2">  1       -2 0.93041112E-01 0.10346473E+04</pdfrwt>
<totfact> 0.34015657E+00</totfact>
</mgrwt>
</event>
<event>
12    3  0.1176505E-007  0.1794577E+04  0.7818608E-02  0.8709189E-01
          1   -1    0    0  501    0  0.00000000000E+00  0.00000000000E+00  0.12011426549E+04  0.12011426549E+04  0.00000000000E+00 0. -1.
         -2   -1    0    0    0  501 -0.00000000000E+00 -0.00000000000E+00 -0.27015314939E+04  0.27015314939E+04  0.00000000000E+00 0.  1.
        -24    2    1    2    0    0 -0.17446401596E+04 -0.12560583623E+03 -0.80299653609E+03  0.19263412783E+04  0.80256906365E+02 0.  0.
    5000000    2    1    2    0    0  0.17446401596E+04  0.12560583623E+03 -0.69739230293E+03  0.19763328705E+04  0.59999123192E+03 0.  0.
        -24    2    4    4    0    0  0.45898206424E+03 -0.21701086433E+03 -0.15486340273E+03  0.53723529722E+03  0.82950832107E+02 0.  0.
         24    2    4    4    0    0  0.12856580953E+04  0.34261670056E+03 -0.54252890021E+03  0.14390975733E+04  0.79757609538E+02 0.  0.
         13    1    5    5    0    0  0.37449147582E+03 -0.19349350161E+03 -0.98175596130E+02  0.43280717219E+03  0.00000000000E+00 0. -1.
        -14    1    5    5    0    0  0.84490588420E+02 -0.23517362729E+02 -0.56687806595E+02  0.10442812503E+03  0.00000000000E+00 0.  1.
         15    1    3    3    0    0 -0.84648597193E+03 -0.66760064327E+02 -0.34618288770E+03  0.91697391257E+03  0.17770000000E+01 0. -1.
        -16    1    3    3    0    0 -0.89815418765E+03 -0.58845771904E+02 -0.45681364839E+03  0.10093673657E+04  0.00000000000E+00 0.  1.
          4    1    6    6  502    0  0.97103376817E+03  0.26908450840E+03 -0.37500419896E+03  0.10751470601E+04  0.00000000000E+00 0. -1.
         -3    1    6    6    0  502  0.31462432717E+03  0.73532192169E+02 -0.16752470125E+03  0.36395051320E+03  0.00000000000E+00 0.  1.
<mgrwt>
<rscale>  0 0.17945772E+04</rscale>
<asrwt>0</asrwt>
<pdfrwt beam="1">  1        1 0.18479118E+00 0.17945772E+04</pdfrwt>
<pdfrwt beam="2">  1       -2 0.41562023E+00 0.17945772E+04</pdfrwt>
<totfact> 0.50223126E-02</totfact>
</mgrwt>
</event>
<event>
12    3  0.1176505E-007  0.1225643E+04  0.7818608E-02  0.9090702E-01
         -2   -1    0    0    0  501 -0.00000000000E+00  0.00000000000E+00  0.74082671689E+03  0.74082671689E+03  0.00000000000E+00 0.  1.
          1   -1    0    0  501    0  0.00000000000E+00 -0.00000000000E+00 -0.26825153324E+04  0.26825153324E+04  0.00000000000E+00 0. -1.
        -24    2    1    2    0    0 -0.45713048806E+02  0.11678445843E+04 -0.12078175447E+03  0.11779575716E+04  0.83935404878E+02 0.  0.
    5000000    2    1    2    0    0  0.45713048806E+02 -0.11678445843E+04 -0.18209068611E+04  0.22453844778E+04  0.60008249449E+03 0.  0.
        -24    2    4    4    0    0  0.25960658449E+03 -0.89669262573E+03 -0.11229312521E+04  0.14624326220E+04  0.79254862611E+02 0.  0.
         24    2    4    4    0    0 -0.21389353568E+03 -0.27115195861E+03 -0.69797560897E+03  0.78295185573E+03  0.81054477992E+02 0.  0.
         13    1    5    5    0    0  0.22350335599E+03 -0.81778687388E+03 -0.10464175751E+04  0.13467438000E+04  0.00000000000E+00 0. -1.
        -14    1    5    5    0    0  0.36103228498E+02 -0.78905751852E+02 -0.76513677009E+02  0.11568882207E+03  0.00000000000E+00 0.  1.
         15    1    3    3    0    0 -0.55514069417E+02  0.76409392224E+03 -0.10980318443E+03  0.77393877726E+03  0.17770000000E+01 0. -1.
        -16    1    3    3    0    0  0.98010206109E+01  0.40375066211E+03 -0.10978570036E+02  0.40401879431E+03  0.00000000000E+00 0.  1.
          4    1    6    6  502    0 -0.31003369855E+02 -0.59023353931E+02 -0.20975822230E+03  0.22009878935E+03  0.00000000000E+00 0. -1.
         -3    1    6    6    0  502 -0.18289016583E+03 -0.21212860468E+03 -0.48821738667E+03  0.56285306637E+03  0.00000000000E+00 0.  1.
<mgrwt>
<rscale>  0 0.12256433E+04</rscale>
<asrwt>0</asrwt>
<pdfrwt beam="1">  1        1 0.41269467E+00 0.12256433E+04</pdfrwt>
<pdfrwt beam="2">  1       -2 0.11397334E+00 0.12256433E+04</pdfrwt>
<totfact> 0.52520155E-01</totfact>
</mgrwt>
</event>
<event>
12    3  0.1176505E-007  0.5855321E+03  0.7818608E-02  0.9935885E-01
          1   -1    0    0  501    0  0.00000000000E+00  0.00000000000E+00  0.78881716579E+03  0.78881716579E+03  0.00000000000E+00 0. -1.
         -2   -1    0    0    0  501 -0.00000000000E+00 -0.00000000000E+00 -0.51601715780E+03  0.51601715780E+03  0.00000000000E+00 0.  1.
        -24    2    1    2    0    0  0.34156560170E+03 -0.35277861150E+03  0.60126628842E+02  0.50086570881E+03  0.78303497827E+02 0.  0.
    5000000    2    1    2    0    0 -0.34156560170E+03  0.35277861150E+03  0.21267337915E+03  0.80396861478E+03  0.60001313182E+03 0.  0.
        -24    2    4    4    0    0 -0.35685351287E+03  0.49869135327E+02 -0.76679428922E+02  0.37750085451E+03  0.82436642525E+02 0.  0.
         24    2    4    4    0    0  0.15287911168E+02  0.30290947617E+03  0.28935280807E+03  0.42646776027E+03  0.78497337720E+02 0.  0.
         13    1    5    5    0    0 -0.13099492488E+03 -0.13566578131E+02 -0.34553244591E+01  0.13174088832E+03  0.00000000000E+00 0. -1.
        -14    1    5    5    0    0 -0.22585858798E+03  0.63435713458E+02 -0.73224104463E+02  0.24575996619E+03  0.00000000000E+00 0.  1.
         15    1    3    3    0    0  0.17248781699E+03 -0.22455692497E+03  0.55887787175E+02  0.28862512373E+03  0.17770000000E+01 0. -1.
        -16    1    3    3    0    0  0.16907778471E+03 -0.12822168653E+03  0.42388416668E+01  0.21224058508E+03  0.00000000000E+00 0.  1.
          2    1    6    6  502    0 -0.14450983299E+02  0.18622465844E+02  0.43357590965E+02  0.49350864701E+02  0.00000000000E+00 0. -1.
         -1    1    6    6    0  502  0.29738894467E+02  0.28428701033E+03  0.24599521711E+03  0.37711689557E+03  0.00000000000E+00 0.  1.
<mgrwt>
<rscale>  0 0.58553214E+03</rscale>
<asrwt>0</asrwt>
<pdfrwt beam="1">  1        1 0.12135649E+00 0.58553214E+03</pdfrwt>
<pdfrwt beam="2">  1       -2 0.79387255E-01 0.58553214E+03</pdfrwt>
<totfact> 0.28919574E+01</totfact>
</mgrwt>
</event>
<event>
12    3  0.1176505E-007  0.1717883E+04  0.7818608E-02  0.8751230E-01
         -2   -1    0    0    0  501 -0.00000000000E+00  0.00000000000E+00  0.20615469869E+04  0.20615469869E+04  0.00000000000E+00 0.  1.
          1   -1    0    0  501    0  0.00000000000E+00 -0.00000000000E+00 -0.16694791718E+04  0.16694791718E+04  0.00000000000E+00 0. -1.
        -24    2    1    2    0    0 -0.11016927865E+03 -0.16670317384E+04 -0.49813579049E+03  0.17451849583E+04  0.79994912183E+02 0.  0.
    5000000    2    1    2    0    0  0.11016927865E+03  0.16670317384E+04  0.89020360558E+03  0.19858412004E+04  0.59997560532E+03 0.  0.
        -24    2    4    4    0    0  0.33982735277E+03  0.10354714967E+04  0.47230225917E+03  0.11904354322E+04  0.79895206768E+02 0.  0.
         24    2    4    4    0    0 -0.22965807413E+03  0.63156024171E+03  0.41790134641E+03  0.79540576819E+03  0.80110116831E+02 0.  0.
         13    1    5    5    0    0  0.63319009587E+02  0.18664213111E+03  0.11970994958E+03  0.23059716848E+03  0.00000000000E+00 0. -1.
        -14    1    5    5    0    0  0.27650834319E+03  0.84882936561E+03  0.35259230959E+03  0.95983826375E+03  0.00000000000E+00 0.  1.
         15    1    3    3    0    0 -0.74370844903E+02 -0.14952415015E+04 -0.44778715803E+03  0.15626242885E+04  0.17770000000E+01 0. -1.
        -16    1    3    3    0    0 -0.35798433744E+02 -0.17179023689E+03 -0.50348632462E+02  0.18256066975E+03  0.00000000000E+00 0.  1.
          4    1    6    6  502    0 -0.13933698818E+03  0.32078606385E+03  0.25678123659E+03  0.43388373847E+03  0.00000000000E+00 0. -1.
         -3    1    6    6    0  502 -0.90321085943E+02  0.31077417786E+03  0.16112010982E+03  0.36152202973E+03  0.00000000000E+00 0.  1.
<mgrwt>
<rscale>  0 0.17178832E+04</rscale>
<asrwt>0</asrwt>
<pdfrwt beam="1">  1        1 0.25684295E+00 0.17178832E+04</pdfrwt>
<pdfrwt beam="2">  1       -2 0.31716107E+00 0.17178832E+04</pdfrwt>
<totfact> 0.10048847E-01</totfact>
</mgrwt>
</event>
<event>
12    3  0.1176505E-007  0.1018917E+04  0.7818608E-02  0.9288037E-01
          1   -1    0    0  501    0  0.00000000000E+00  0.00000000000E+00  0.74734624029E+03  0.74734624029E+03  0.00000000000E+00 0. -1.
         -2   -1    0    0    0  501 -0.00000000000E+00 -0.00000000000E+00 -0.15732952682E+04  0.15732952682E+04  0.00000000000E+00 0.  1.
        -24    2    1    2    0    0  0.71291672219E+03 -0.61422079719E+03 -0.21121248898E+02  0.94481065829E+03  0.81875713038E+02 0.  0.
    5000000    2    1    2    0    0 -0.71291672219E+03  0.61422079719E+03 -0.80482777901E+03  0.13758308502E+04  0.59970437219E+03 0.  0.
        -24    2    4    4    0    0 -0.79558967488E+03  0.55172472582E+03 -0.62694660431E+03  0.11559898498E+04  0.76729292864E+02 0.  0.
         24    2    4    4    0    0  0.82672952694E+02  0.62496071370E+02 -0.17788117470E+03  0.21984100037E+03  0.77121832776E+02 0.  0.
         11    1    5    5    0    0 -0.20508612346E+03  0.10912589534E+03 -0.12875438391E+03  0.26560585544E+03  0.00000000000E+00 0. -1.
        -12    1    5    5    0    0 -0.59050355142E+03  0.44259883048E+03 -0.49819222040E+03  0.89038399438E+03  0.00000000000E+00 0.  1.
         15    1    3    3    0    0  0.22310840217E+03 -0.19213921887E+03 -0.44606058425E+02  0.29780479635E+03  0.17770000000E+01 0. -1.
        -16    1    3    3    0    0  0.48980832001E+03 -0.42208157831E+03  0.23484809527E+02  0.64700586194E+03  0.00000000000E+00 0.  1.
          4    1    6    6  502    0  0.46896090631E+02 -0.79120602242E+01 -0.46276264182E+02  0.66357641912E+02  0.00000000000E+00 0. -1.
         -3    1    6    6    0  502  0.35776862062E+02  0.70408131594E+02 -0.13160491051E+03  0.15348335846E+03  0.00000000000E+00 0.  1.
<mgrwt>
<rscale>  0 0.10189170E+04</rscale>
<asrwt>0</asrwt>
<pdfrwt beam="1">  1        1 0.11497635E+00 0.10189170E+04</pdfrwt>
<pdfrwt beam="2">  1       -2 0.24204542E+00 0.10189170E+04</pdfrwt>
<totfact> 0.15504451E+00</totfact>
</mgrwt>
</event>
<event>
12    3  0.1176505E-007  0.2192992E+04  0.7818608E-02  0.8521351E-01
          1   -1    0    0  501    0  0.00000000000E+00  0.00000000000E+00  0.35019825949E+04  0.35019825949E+04  0.00000000000E+00 0. -1.
         -2   -1    0    0    0  501 -0.00000000000E+00 -0.00000000000E+00 -0.14252325228E+04  0.14252325228E+04  0.00000000000E+00 0.  1.
        -24    2    1    2    0    0 -0.21652313503E+04  0.47546768659E+02  0.63949168221E+03  0.22595833635E+04  0.79245628837E+02 0.  0.
    5000000    2    1    2    0    0  0.21652313503E+04 -0.47546768659E+02  0.14372583900E+04  0.26676317542E+04  0.60004999873E+03 0.  0.
        -24    2    4    4    0    0  0.14147506471E+04 -0.25454344436E+03  0.11162665390E+04  0.18217214838E+04  0.79412971424E+02 0.  0.
         24    2    4    4    0    0  0.75048070318E+03  0.20699667570E+03  0.32099185098E+03  0.84591027036E+03  0.80371061435E+02 0.  0.
         11    1    5    5    0    0  0.11295004983E+04 -0.20751740456E+03  0.93072898003E+03  0.14782054265E+04  0.00000000000E+00 0. -1.
        -12    1    5    5    0    0  0.28525014885E+03 -0.47026039805E+02  0.18553755894E+03  0.34351605729E+03  0.00000000000E+00 0.  1.
         15    1    3    3    0    0 -0.12251909583E+04  0.65324096640E+02  0.35359593675E+03  0.12768685782E+04  0.17770000000E+01 0. -1.
        -16    1    3    3    0    0 -0.94004039202E+03 -0.17777327981E+02  0.28589574546E+03  0.98271478533E+03  0.00000000000E+00 0.  1.
          2    1    6    6  502    0  0.70903773552E+02  0.40523631850E+02  0.48953427597E+02  0.95215271442E+02  0.00000000000E+00 0. -1.
         -1    1    6    6    0  502  0.67957692963E+03  0.16647304385E+03  0.27203842338E+03  0.75069499892E+03  0.00000000000E+00 0.  1.
<mgrwt>
<rscale>  0 0.21929919E+04</rscale>
<asrwt>0</asrwt>
<pdfrwt beam="1">  1        1 0.53876655E+00 0.21929919E+04</pdfrwt>
<pdfrwt beam="2">  1       -2 0.21926654E+00 0.21929919E+04</pdfrwt>
<totfact> 0.19056721E-02</totfact>
</mgrwt>
</event>
<event>
12    3  0.1176505E-007  0.7790374E+03  0.7818608E-02  0.9590865E-01
          1   -1    0    0  501    0  0.00000000000E+00  0.00000000000E+00  0.37600073276E+03  0.37600073276E+03  0.00000000000E+00 0. -1.
         -2   -1    0    0    0  501 -0.00000000000E+00 -0.00000000000E+00 -0.20724527060E+04  0.20724527060E+04  0.00000000000E+00 0.  1.
        -24    2    1    2    0    0 -0.51760401427E+03 -0.42265119711E+03 -0.19814104748E+03  0.70158764629E+03  0.80108680680E+02 0.  0.
    5000000    2    1    2    0    0  0.51760401427E+03  0.42265119711E+03 -0.14983109257E+04  0.17468657924E+04  0.60004709532E+03 0.  0.
        -24    2    4    4    0    0  0.49252546809E+03  0.35563449419E+02 -0.78783565663E+03  0.93342336544E+03  0.82146586288E+02 0.  0.
         24    2    4    4    0    0  0.25078546184E+02  0.38708774769E+03 -0.71047526909E+03  0.81344242699E+03  0.80297049386E+02 0.  0.
         11    1    5    5    0    0  0.23060988571E+03  0.24125785128E+02 -0.29521806721E+03  0.37538870535E+03  0.00000000000E+00 0. -1.
        -12    1    5    5    0    0  0.26191558238E+03  0.11437664291E+02 -0.49261758942E+03  0.55803466009E+03  0.00000000000E+00 0.  1.
         15    1    3    3    0    0 -0.46105610347E+03 -0.36976573607E+03 -0.14774166568E+03  0.60920455318E+03  0.17770000000E+01 0. -1.
        -16    1    3    3    0    0 -0.56547910804E+02 -0.52885461047E+02 -0.50399381795E+02  0.92383093106E+02  0.00000000000E+00 0.  1.
          4    1    6    6  502    0 -0.20271079301E+02  0.25765277282E+03 -0.44395465881E+03  0.51370381260E+03  0.00000000000E+00 0. -1.
         -3    1    6    6    0  502  0.45349625485E+02  0.12943497488E+03 -0.26652061028E+03  0.29973861439E+03  0.00000000000E+00 0.  1.
<mgrwt>
<rscale>  0 0.77903742E+03</rscale>
<asrwt>0</asrwt>
<pdfrwt beam="1">  1        1 0.57846267E-01 0.77903742E+03</pdfrwt>
<pdfrwt beam="2">  1       -2 0.31883887E+00 0.77903742E+03</pdfrwt>
<totfact> 0.14498391E+00</totfact>
</mgrwt>
</event>
<event>
12    3  0.1176505E-007  0.6229522E+03  0.7818608E-02  0.9858899E-01
          1   -1    0    0  501    0  0.00000000000E+00  0.00000000000E+00  0.21112509712E+03  0.21112509712E+03  0.00000000000E+00 0. -1.
         -2   -1    0    0    0  501 -0.00000000000E+00 -0.00000000000E+00 -0.20005868027E+04  0.20005868027E+04  0.00000000000E+00 0.  1.
        -24    2    1    2    0    0 -0.42961363817E+03  0.23934819878E+03 -0.49392374517E+03  0.70156135824E+03  0.79826279969E+02 0.  0.
    5000000    2    1    2    0    0  0.42961363817E+03 -0.23934819878E+03 -0.12955379604E+04  0.15101505416E+04  0.60023379862E+03 0.  0.
        -24    2    4    4    0    0  0.87523027647E+02  0.18193973399E+03 -0.25569189109E+03  0.33450923297E+03  0.75866571034E+02 0.  0.
         24    2    4    4    0    0  0.34209061053E+03 -0.42128793276E+03 -0.10398460693E+04  0.11756413086E+04  0.79643772663E+02 0.  0.
         13    1    5    5    0    0  0.20781946567E+02  0.93593501218E+02 -0.71496454477E+02  0.11959672143E+03  0.00000000000E+00 0. -1.
        -14    1    5    5    0    0  0.66741081080E+02  0.88346232768E+02 -0.18419543661E+03  0.21491251154E+03  0.00000000000E+00 0.  1.
         15    1    3    3    0    0 -0.30773520606E+03  0.17332587341E+03 -0.30130417023E+03  0.46425227642E+03  0.17770000000E+01 0. -1.
        -16    1    3    3    0    0 -0.12187843211E+03  0.66022325372E+02 -0.19261957494E+03  0.23730908182E+03  0.00000000000E+00 0.  1.
          4    1    6    6  502    0  0.18730790720E+03 -0.17333338145E+03 -0.44947267360E+03  0.51686980715E+03  0.00000000000E+00 0. -1.
         -3    1    6    6    0  502  0.15478270332E+03 -0.24795455131E+03 -0.59037339573E+03  0.65877150147E+03  0.00000000000E+00 0.  1.
<mgrwt>
<rscale>  0 0.62295217E+03</rscale>
<asrwt>0</asrwt>
<pdfrwt beam="1">  1        1 0.32480783E-01 0.62295217E+03</pdfrwt>
<pdfrwt beam="2">  1       -2 0.30778260E+00 0.62295217E+03</pdfrwt>
<totfact> 0.36644375E+00</totfact>
</mgrwt>
</event>
<event>
12    3  0.1176505E-007  0.5007087E+03  0.7818608E-02  0.1013594E+00
          1   -1    0    0  501    0  0.00000000000E+00  0.00000000000E+00  0.20701214898E+04  0.20701214898E+04  0.00000000000E+00 0. -1.
         -2   -1    0    0    0  501 -0.00000000000E+00 -0.00000000000E+00 -0.13692935380E+03  0.13692935380E+03  0.00000000000E+00 0.  1.
        -24    2    1    2    0    0 -0.35026754126E+03  0.57108126099E+02  0.57336477595E+03  0.67895451149E+03  0.79267735232E+02 0.  0.
    5000000    2    1    2    0    0  0.35026754126E+03 -0.57108126099E+02  0.13598273601E+04  0.15280963321E+04  0.59999938544E+03 0.  0.
        -24    2    4    4    0    0 -0.12925253822E+03 -0.61361799008E+02  0.62259212174E+03  0.64358484678E+03  0.78160194076E+02 0.  0.
         24    2    4    4    0    0  0.47952007948E+03  0.42536729094E+01  0.73723523833E+03  0.88451148534E+03  0.94271791696E+02 0.  0.
         13    1    5    5    0    0 -0.13720742060E+03 -0.57659823835E+02  0.61196890082E+03  0.62980669028E+03  0.00000000000E+00 0. -1.
        -14    1    5    5    0    0  0.79548823778E+01 -0.37019751730E+01  0.10623220926E+02  0.13778156505E+02  0.00000000000E+00 0.  1.
         15    1    3    3    0    0 -0.98877689049E+02  0.37561070810E+02  0.22792123471E+03  0.25127450804E+03  0.17770000000E+01 0. -1.
        -16    1    3    3    0    0 -0.25138985222E+03  0.19547055289E+02  0.34544354124E+03  0.42768000345E+03  0.00000000000E+00 0.  1.
          2    1    6    6  502    0  0.31720508407E+03  0.39869887266E+02  0.43854302935E+03  0.54270494918E+03  0.00000000000E+00 0. -1.
         -1    1    6    6    0  502  0.16231499541E+03 -0.35616214356E+02  0.29869220897E+03  0.34180653616E+03  0.00000000000E+00 0.  1.
<mgrwt>
<rscale>  0 0.50070868E+03</rscale>
<asrwt>0</asrwt>
<pdfrwt beam="1">  1        1 0.31848021E+00 0.50070868E+03</pdfrwt>
<pdfrwt beam="2">  1       -2 0.21066056E-01 0.50070868E+03</pdfrwt>
<totfact> 0.48950509E+01</totfact>
</mgrwt>
</event>
<event>
12    3  0.1176505E-007  0.6381087E+03  0.7818608E-02  0.9829352E-01
         -2   -1    0    0    0  501 -0.00000000000E+00  0.00000000000E+00  0.63253686652E+03  0.63253686652E+03  0.00000000000E+00 0.  1.
          1   -1    0    0  501    0  0.00000000000E+00 -0.00000000000E+00 -0.10147319543E+04  0.10147319543E+04  0.00000000000E+00 0. -1.
        -24    2    1    2    0    0 -0.28869060748E+03  0.54647295685E+03 -0.47118263682E+03  0.78131415715E+03  0.80397608823E+02 0.  0.
    5000000    2    1    2    0    0  0.28869060748E+03 -0.54647295685E+03  0.88987549057E+02  0.86595466365E+03  0.59998644668E+03 0.  0.
        -24    2    4    4    0    0  0.13263421107E+03 -0.41988165484E+03 -0.21210624794E+03  0.49521361797E+03  0.79718435684E+02 0.  0.
         24    2    4    4    0    0  0.15605639641E+03 -0.12659130201E+03  0.30109379699E+03  0.37074104569E+03  0.80078035452E+02 0.  0.
         13    1    5    5    0    0  0.73443460534E+02 -0.21608564017E+03 -0.15352809903E+03  0.27505967166E+03  0.00000000000E+00 0. -1.
        -14    1    5    5    0    0  0.59190750533E+02 -0.20379601467E+03 -0.58578148908E+02  0.22015394630E+03  0.00000000000E+00 0.  1.
         15    1    3    3    0    0 -0.11708012031E+03  0.17402175202E+03 -0.12160861029E+03  0.24245233877E+03  0.17770000000E+01 0. -1.
        -16    1    3    3    0    0 -0.17161048717E+03  0.37245120483E+03 -0.34957402653E+03  0.53886181838E+03  0.00000000000E+00 0.  1.
          2    1    6    6  502    0  0.21754084976E+02  0.10386782939E+02  0.40889341340E+02  0.47466448236E+02  0.00000000000E+00 0. -1.
         -3    1    6    6    0  502  0.13430231143E+03 -0.13697808495E+03  0.26020445565E+03  0.32327459745E+03  0.00000000000E+00 0.  1.
<mgrwt>
<rscale>  0 0.63810875E+03</rscale>
<asrwt>0</asrwt>
<pdfrwt beam="1">  1        1 0.15611261E+00 0.63810875E+03</pdfrwt>
<pdfrwt beam="2">  1       -2 0.97313364E-01 0.63810875E+03</pdfrwt>
<totfact> 0.11820932E+01</totfact>
</mgrwt>
</event>
<event>
12    3  0.1176505E-007  0.4912927E+03  0.7818608E-02  0.1016077E+00
          1   -1    0    0  501    0  0.00000000000E+00  0.00000000000E+00  0.11461943527E+04  0.11461943527E+04  0.00000000000E+00 0. -1.
         -2   -1    0    0    0  501 -0.00000000000E+00 -0.00000000000E+00 -0.32436238165E+03  0.32436238165E+03  0.00000000000E+00 0.  1.
        -24    2    1    2    0    0  0.46113719731E+02 -0.36438692032E+03  0.64177639776E+03  0.74383125799E+03  0.80645475899E+02 0.  0.
    5000000    2    1    2    0    0 -0.46113719731E+02  0.36438692032E+03  0.18005557330E+03  0.72672547637E+03  0.60067096291E+03 0.  0.
        -24    2    4    4    0    0  0.30011177925E+02 -0.11548400043E+03  0.18748067363E+03  0.23433114596E+03  0.74329387353E+02 0.  0.
         24    2    4    4    0    0 -0.76124897657E+02  0.47987092075E+03 -0.74251003345E+01  0.49239433042E+03  0.79535802539E+02 0.  0.
         11    1    5    5    0    0  0.21838192393E+02 -0.10224323819E+03  0.97310547622E+02  0.14282832031E+03  0.00000000000E+00 0. -1.
        -12    1    5    5    0    0  0.81729855321E+01 -0.13240762234E+02  0.90170126009E+02  0.91502825647E+02  0.00000000000E+00 0.  1.
         15    1    3    3    0    0  0.52865534355E+02 -0.23160952785E+03  0.46984384670E+03  0.52649229446E+03  0.17770000000E+01 0. -1.
        -16    1    3    3    0    0 -0.67518146239E+01 -0.13277739247E+03  0.17193255106E+03  0.21733896353E+03  0.00000000000E+00 0.  1.
          2    1    6    6  502    0  0.12357047539E+02  0.14718149609E+03 -0.11148591200E+02  0.14811948049E+03  0.00000000000E+00 0. -1.
         -1    1    6    6    0  502 -0.88481945196E+02  0.33268942467E+03  0.37234908659E+01  0.34427484993E+03  0.00000000000E+00 0.  1.
<mgrwt>
<rscale>  0 0.49129271E+03</rscale>
<asrwt>0</asrwt>
<pdfrwt beam="1">  1        1 0.17633759E+00 0.49129271E+03</pdfrwt>
<pdfrwt beam="2">  1       -2 0.49901905E-01 0.49129271E+03</pdfrwt>
<totfact> 0.41179503E+01</totfact>
</mgrwt>
</event>
<event>
12    3  0.1176505E-007  0.7248890E+03  0.7818608E-02  0.9675590E-01
          1   -1    0    0  501    0  0.00000000000E+00  0.00000000000E+00  0.16912388709E+04  0.16912388709E+04  0.00000000000E+00 0. -1.
         -2   -1    0    0    0  501 -0.00000000000E+00 -0.00000000000E+00 -0.34666753792E+03  0.34666753792E+03  0.00000000000E+00 0.  1.
        -24    2    1    2    0    0  0.68769124065E+01 -0.62527951166E+03  0.35870543548E+03  0.72522546031E+03  0.79124074785E+02 0.  0.
    5000000    2    1    2    0    0 -0.68769124065E+01  0.62527951166E+03  0.98586589747E+03  0.13126809485E+04  0.60014826928E+03 0.  0.
        -24    2    4    4    0    0 -0.11263833232E+03 -0.41832910844E+02  0.36267353380E+03  0.39021163620E+03  0.79345085356E+02 0.  0.
         24    2    4    4    0    0  0.10576141991E+03  0.66711242250E+03  0.62319236367E+03  0.92246931230E+03  0.79727334014E+02 0.  0.
         11    1    5    5    0    0  0.25792830138E+01  0.15196732062E+02  0.40680861700E+02  0.43503170860E+02  0.00000000000E+00 0. -1.
        -12    1    5    5    0    0 -0.11521761533E+03 -0.57029642906E+02  0.32199267210E+03  0.34670846534E+03  0.00000000000E+00 0.  1.
         15    1    3    3    0    0  0.33304770018E+02 -0.52350252692E+03  0.28690254316E+03  0.59789658838E+03  0.17770000000E+01 0. -1.
        -16    1    3    3    0    0 -0.26427857611E+02 -0.10177698474E+03  0.71802892321E+02  0.12732887193E+03  0.00000000000E+00 0.  1.
          4    1    6    6  502    0  0.23314970043E+02  0.83965602847E+02  0.11696932578E+03  0.14586169293E+03  0.00000000000E+00 0. -1.
         -3    1    6    6    0  502  0.82446449867E+02  0.58314681965E+03  0.50622303789E+03  0.77660761937E+03  0.00000000000E+00 0.  1.
<mgrwt>
<rscale>  0 0.72488903E+03</rscale>
<asrwt>0</asrwt>
<pdfrwt beam="1">  1        1 0.26019059E+00 0.72488903E+03</pdfrwt>
<pdfrwt beam="2">  1       -2 0.53333468E-01 0.72488903E+03</pdfrwt>
<totfact> 0.14591899E+01</totfact>
</mgrwt>
</event>
<event>
12    3  0.1176505E-007  0.9834552E+03  0.7818608E-02  0.9326879E-01
         -2   -1    0    0    0  501 -0.00000000000E+00  0.00000000000E+00  0.54619087061E+03  0.54619087061E+03  0.00000000000E+00 0.  1.
          1   -1    0    0  501    0  0.00000000000E+00 -0.00000000000E+00 -0.21793011380E+04  0.21793011380E+04  0.00000000000E+00 0. -1.
        -24    2    1    2    0    0  0.41807783445E+03 -0.81162272176E+03 -0.12862249787E+04  0.15792231771E+04  0.77785789699E+02 0.  0.
    5000000    2    1    2    0    0 -0.41807783445E+03  0.81162272176E+03 -0.34688528870E+03  0.11462688315E+04  0.60006858981E+03 0.  0.
        -24    2    4    4    0    0  0.11247785601E+03  0.56656280697E+02  0.18484170788E+02  0.15060635986E+03  0.80494775139E+02 0.  0.
         24    2    4    4    0    0 -0.53055569046E+03  0.75496644107E+03 -0.36536945949E+03  0.99566247167E+03  0.79907745250E+02 0.  0.
         11    1    5    5    0    0  0.84739569423E+02  0.27748464976E+02 -0.23869010333E+02  0.92306563086E+02  0.00000000000E+00 0. -1.
        -12    1    5    5    0    0  0.27738286588E+02  0.28907815721E+02  0.42353181121E+02  0.58299796772E+02  0.00000000000E+00 0.  1.
         15    1    3    3    0    0  0.15453997549E+03 -0.35753362201E+03 -0.59643153263E+03  0.71235288007E+03  0.17770000000E+01 0. -1.
        -16    1    3    3    0    0  0.26353785896E+03 -0.45408909975E+03 -0.68979344608E+03  0.86687029703E+03  0.00000000000E+00 0.  1.
          4    1    6    6  502    0 -0.22344684454E+03  0.29475615668E+03 -0.10705018495E+03  0.38505769221E+03  0.00000000000E+00 0. -1.
         -3    1    6    6    0  502 -0.30710884592E+03  0.46021028439E+03 -0.25831927454E+03  0.61060477946E+03  0.00000000000E+00 0.  1.
<mgrwt>
<rscale>  0 0.98345516E+03</rscale>
<asrwt>0</asrwt>
<pdfrwt beam="1">  1        1 0.33527710E+00 0.98345516E+03</pdfrwt>
<pdfrwt beam="2">  1       -2 0.84029364E-01 0.98345516E+03</pdfrwt>
<totfact> 0.24723291E+00</totfact>
</mgrwt>
</event>
<event>
12    3  0.1176505E-007  0.6213422E+03  0.7818608E-02  0.9862091E-01
         -2   -1    0    0    0  501 -0.00000000000E+00  0.00000000000E+00  0.47972336122E+03  0.47972336122E+03  0.00000000000E+00 0.  1.
          1   -1    0    0  501    0  0.00000000000E+00 -0.00000000000E+00 -0.84917454231E+03  0.84917454231E+03  0.00000000000E+00 0. -1.
        -24    2    1    2    0    0 -0.46109015280E+03 -0.16575549819E+03 -0.80107000322E+02  0.50196440758E+03  0.73973784450E+02 0.  0.
    5000000    2    1    2    0    0  0.46109015280E+03  0.16575549819E+03 -0.28934418077E+03  0.82693349595E+03  0.60001661443E+03 0.  0.
        -24    2    4    4    0    0  0.40374587982E+03 -0.13784697481E+03 -0.69961658044E+02  0.43930768095E+03  0.78000519298E+02 0.  0.
         24    2    4    4    0    0  0.57344272978E+02  0.30360247299E+03 -0.21938252272E+03  0.38762581500E+03  0.81622631199E+02 0.  0.
         11    1    5    5    0    0  0.36985134297E+03 -0.14568088532E+03 -0.54458398036E+02  0.40122145177E+03  0.00000000000E+00 0. -1.
        -12    1    5    5    0    0  0.33894536857E+02  0.78339105148E+01 -0.15503260008E+02  0.38086229185E+02  0.00000000000E+00 0.  1.
         15    1    3    3    0    0 -0.28946377333E+03 -0.13626018178E+03 -0.70155356390E+02  0.32753785272E+03  0.17770000000E+01 0. -1.
        -16    1    3    3    0    0 -0.17162637948E+03 -0.29495316403E+02 -0.99516439318E+01  0.17442655486E+03  0.00000000000E+00 0.  1.
          2    1    6    6  502    0  0.13518984907E+02  0.23176369935E+03 -0.13549854605E+03  0.26880668011E+03  0.00000000000E+00 0. -1.
         -1    1    6    6    0  502  0.43825288072E+02  0.71838773647E+02 -0.83883976672E+02  0.11881913489E+03  0.00000000000E+00 0.  1.
<mgrwt>
<rscale>  0 0.62134218E+03</rscale>
<asrwt>0</asrwt>
<pdfrwt beam="1">  1        1 0.13064224E+00 0.62134218E+03</pdfrwt>
<pdfrwt beam="2">  1       -2 0.73803595E-01 0.62134218E+03</pdfrwt>
<totfact> 0.30091033E+01</totfact>
</mgrwt>
</event>
<event>
12    3  0.1176505E-007  0.3933441E+03  0.7818608E-02  0.1046109E+00
          3   -1    0    0  501    0  0.00000000000E+00  0.00000000000E+00  0.26372271378E+03  0.26372271378E+03  0.00000000000E+00 0. -1.
         -4   -1    0    0    0  501 -0.00000000000E+00 -0.00000000000E+00 -0.68220463455E+03  0.68220463455E+03  0.00000000000E+00 0.  1.
        -24    2    1    2    0    0 -0.17335054510E+03 -0.10027211007E+03 -0.10027420316E+03  0.23781944681E+03  0.79989161273E+02 0.  0.
    5000000    2    1    2    0    0  0.17335054510E+03  0.10027211007E+03 -0.31820771761E+03  0.70810790152E+03  0.60004644912E+03 0.  0.
        -24    2    4    4    0    0 -0.13335679476E+03  0.20475315662E+03 -0.17577732363E+02  0.25816084129E+03  0.81425754198E+02 0.  0.
         24    2    4    4    0    0  0.30670733986E+03 -0.10448104655E+03 -0.30062998525E+03  0.44994706022E+03  0.84191968494E+02 0.  0.
         11    1    5    5    0    0 -0.10428137916E+03  0.12296749247E+03 -0.44538189137E+02  0.16727002282E+03  0.00000000000E+00 0. -1.
        -12    1    5    5    0    0 -0.29075415609E+02  0.81785664144E+02  0.26960456775E+02  0.90890818469E+02  0.00000000000E+00 0.  1.
         15    1    3    3    0    0 -0.18955883992E+02 -0.46345317772E+02 -0.37751911140E+02  0.62734189570E+02  0.17770000000E+01 0. -1.
        -16    1    3    3    0    0 -0.15439466110E+03 -0.53926792295E+02 -0.62522292021E+02  0.17508525724E+03  0.00000000000E+00 0.  1.
          2    1    6    6  502    0  0.99405628955E+02 -0.46564665702E+02 -0.53151382718E+02  0.12196235749E+03  0.00000000000E+00 0. -1.
         -1    1    6    6    0  502  0.20730171091E+03 -0.57916380850E+02 -0.24747860253E+03  0.32798470273E+03  0.00000000000E+00 0.  1.
<mgrwt>
<rscale>  0 0.39334413E+03</rscale>
<asrwt>0</asrwt>
<pdfrwt beam="1">  1        3 0.40572725E-01 0.39334413E+03</pdfrwt>
<pdfrwt beam="2">  1       -4 0.10495456E+00 0.39334413E+03</pdfrwt>
<totfact> 0.99289155E+00</totfact>
</mgrwt>
</event>
<event>
12    3  0.1176505E-007  0.5561670E+03  0.7818608E-02  0.1000077E+00
         -2   -1    0    0    0  501 -0.00000000000E+00  0.00000000000E+00  0.70822750645E+03  0.70822750645E+03  0.00000000000E+00 0.  1.
          1   -1    0    0  501    0  0.00000000000E+00 -0.00000000000E+00 -0.59040188407E+03  0.59040188407E+03  0.00000000000E+00 0. -1.
        -24    2    1    2    0    0  0.40890171626E+03 -0.42267605440E+02 -0.24529880115E+03  0.48572229384E+03  0.82264699912E+02 0.  0.
    5000000    2    1    2    0    0 -0.40890171626E+03  0.42267605440E+02  0.36312442353E+03  0.81290709667E+03  0.59997619688E+03 0.  0.
        -24    2    4    4    0    0 -0.30072135193E+03  0.29386464719E+03  0.13980675642E+03  0.45063750095E+03  0.82088158430E+02 0.  0.
         24    2    4    4    0    0 -0.10818036434E+03 -0.25159704175E+03  0.22331766711E+03  0.36226959572E+03  0.79777295611E+02 0.  0.
         13    1    5    5    0    0 -0.31742978585E+02  0.36696733259E+02 -0.98957772231E+01  0.49519625687E+02  0.00000000000E+00 0. -1.
        -14    1    5    5    0    0 -0.26897837334E+03  0.25716791393E+03  0.14970253364E+03  0.40111787527E+03  0.00000000000E+00 0.  1.
         15    1    3    3    0    0  0.18602100499E+03 -0.16615664001E+02 -0.15921125412E+03  0.24542060988E+03  0.17770000000E+01 0. -1.
        -16    1    3    3    0    0  0.22288071127E+03 -0.25651941439E+02 -0.86087547027E+02  0.24030168395E+03  0.00000000000E+00 0.  1.
          4    1    6    6  502    0 -0.43569179093E+02 -0.17502605238E+03  0.17393906395E+03  0.25057372238E+03  0.00000000000E+00 0. -1.
         -3    1    6    6    0  502 -0.64611185245E+02 -0.76570989364E+02  0.49378603161E+02  0.11169587334E+03  0.00000000000E+00 0.  1.
<mgrwt>
<rscale>  0 0.55616701E+03</rscale>
<asrwt>0</asrwt>
<pdfrwt beam="1">  1        1 0.90831059E-01 0.55616701E+03</pdfrwt>
<pdfrwt beam="2">  1       -2 0.10895808E+00 0.55616701E+03</pdfrwt>
<totfact> 0.21442940E+01</totfact>
</mgrwt>
</event>
<event>
12    3  0.1176505E-007  0.1391246E+04  0.7818608E-02  0.8960180E-01
         -2   -1    0    0    0  501 -0.00000000000E+00  0.00000000000E+00  0.14487476476E+04  0.14487476476E+04  0.00000000000E+00 0.  1.
          1   -1    0    0  501    0  0.00000000000E+00 -0.00000000000E+00 -0.14538521212E+04  0.14538521212E+04  0.00000000000E+00 0. -1.
        -24    2    1    2    0    0  0.21943760812E+03  0.13208460911E+04  0.36326377548E+03  0.13896767989E+04  0.80335387925E+02 0.  0.
    5000000    2    1    2    0    0 -0.21943760812E+03 -0.13208460911E+04 -0.36836824909E+03  0.15129229699E+04  0.60037778586E+03 0.  0.
        -24    2    4    4    0    0 -0.34357762549E+03 -0.12131566419E+04 -0.23189787404E+03  0.12846642228E+04  0.82407031473E+02 0.  0.
         24    2    4    4    0    0  0.12414001737E+03 -0.10768944922E+03 -0.13647037505E+03  0.22825874714E+03  0.80437124474E+02 0.  0.
         11    1    5    5    0    0 -0.63741143241E+02 -0.25607728694E+03 -0.15782026610E+02  0.26436259681E+03  0.00000000000E+00 0. -1.
        -12    1    5    5    0    0 -0.27983648225E+03 -0.95707935495E+03 -0.21611584743E+03  0.10203016260E+04  0.00000000000E+00 0.  1.
         15    1    3    3    0    0  0.11105098049E+03  0.76575718695E+03  0.17215718332E+03  0.79269013059E+03  0.17770000000E+01 0. -1.
        -16    1    3    3    0    0  0.10838662762E+03  0.55508890416E+03  0.19110659216E+03  0.59698666831E+03  0.00000000000E+00 0.  1.
          4    1    6    6  502    0  0.10642898089E+03 -0.12010842937E+03 -0.11257197402E+03  0.19602451917E+03  0.00000000000E+00 0. -1.
         -3    1    6    6    0  502  0.17711036480E+02  0.12418980153E+02 -0.23898401029E+02  0.32234227972E+02  0.00000000000E+00 0.  1.
<mgrwt>
<rscale>  0 0.13912462E+04</rscale>
<asrwt>0</asrwt>
<pdfrwt beam="1">  1        1 0.22366956E+00 0.13912462E+04</pdfrwt>
<pdfrwt beam="2">  1       -2 0.22288425E+00 0.13912462E+04</pdfrwt>
<totfact> 0.55824624E-01</totfact>
</mgrwt>
</event>
<event>
12    3  0.1176505E-007  0.6194544E+03  0.7818608E-02  0.9865847E-01
          1   -1    0    0  501    0  0.00000000000E+00  0.00000000000E+00  0.15536277877E+04  0.15536277877E+04  0.00000000000E+00 0. -1.
         -2   -1    0    0    0  501 -0.00000000000E+00 -0.00000000000E+00 -0.31359973515E+03  0.31359973515E+03  0.00000000000E+00 0.  1.
        -24    2    1    2    0    0  0.49141215909E+03  0.90779383156E+02  0.86239986357E+03  0.99988389032E+03  0.79419537475E+02 0.  0.
    5000000    2    1    2    0    0 -0.49141215909E+03 -0.90779383156E+02  0.37762818898E+03  0.86734363253E+03  0.59996259989E+03 0.  0.
        -24    2    4    4    0    0 -0.26742342751E+03 -0.31020983568E+03  0.74759869411E+02  0.42338453234E+03  0.76941486914E+02 0.  0.
         24    2    4    4    0    0 -0.22398873158E+03  0.21943045253E+03  0.30286831957E+03  0.44395910019E+03  0.83963017310E+02 0.  0.
         13    1    5    5    0    0 -0.16142941410E+03 -0.18160167859E+03  0.58691952204E+01  0.24304952757E+03  0.00000000000E+00 0. -1.
        -14    1    5    5    0    0 -0.10599401342E+03 -0.12860815710E+03  0.68890674191E+02  0.18033500476E+03  0.00000000000E+00 0.  1.
         15    1    3    3    0    0  0.41025242184E+03  0.10501626451E+03  0.72968466994E+03  0.84366956844E+03  0.17770000000E+01 0. -1.
        -16    1    3    3    0    0  0.81159737245E+02 -0.14236881350E+02  0.13271519363E+03  0.15621432188E+03  0.00000000000E+00 0.  1.
          4    1    6    6  502    0 -0.39559754683E+02  0.89308191412E+02  0.74270077482E+02  0.12270685251E+03  0.00000000000E+00 0. -1.
         -3    1    6    6    0  502 -0.18442897689E+03  0.13012226112E+03  0.22859824209E+03  0.32125224768E+03  0.00000000000E+00 0.  1.
<mgrwt>
<rscale>  0 0.61945439E+03</rscale>
<asrwt>0</asrwt>
<pdfrwt beam="1">  1        1 0.23901966E+00 0.61945439E+03</pdfrwt>
<pdfrwt beam="2">  1       -2 0.48246114E-01 0.61945439E+03</pdfrwt>
<totfact> 0.22500759E+01</totfact>
</mgrwt>
</event>
<event>
12    3  0.1176505E-007  0.5417775E+03  0.7818608E-02  0.1003415E+00
          3   -1    0    0  501    0  0.00000000000E+00  0.00000000000E+00  0.13140048217E+04  0.13140048217E+04  0.00000000000E+00 0. -1.
         -4   -1    0    0    0  501 -0.00000000000E+00 -0.00000000000E+00 -0.27749118005E+03  0.27749118005E+03  0.00000000000E+00 0.  1.
        -24    2    1    2    0    0  0.41951078644E+03  0.15883283579E+03  0.33875121870E+03  0.56773250787E+03  0.79690919567E+02 0.  0.
    5000000    2    1    2    0    0 -0.41951078644E+03 -0.15883283579E+03  0.69776242300E+03  0.10237634939E+04  0.60000176906E+03 0.  0.
        -24    2    4    4    0    0 -0.17995757137E+02 -0.20994657277E+03  0.14966983837E+02  0.22595990382E+03  0.80202598691E+02 0.  0.
         24    2    4    4    0    0 -0.40151502930E+03  0.51113736979E+02  0.68279543916E+03  0.79780359010E+03  0.80336939055E+02 0.  0.
         11    1    5    5    0    0  0.22636739599E+02 -0.63141345017E+02 -0.19361791762E+02  0.69814972681E+02  0.00000000000E+00 0. -1.
        -12    1    5    5    0    0 -0.40632496736E+02 -0.14680522776E+03  0.34328775599E+02  0.15614493114E+03  0.00000000000E+00 0.  1.
         15    1    3    3    0    0  0.20111555287E+03  0.44233383824E+02  0.18689417628E+03  0.27809467580E+03  0.17770000000E+01 0. -1.
        -16    1    3    3    0    0  0.21839523357E+03  0.11459945197E+03  0.15185704242E+03  0.28963783208E+03  0.00000000000E+00 0.  1.
          4    1    6    6  502    0 -0.58913090878E+02  0.35174635789E+02  0.93618664405E+02  0.11607093350E+03  0.00000000000E+00 0. -1.
         -3    1    6    6    0  502 -0.34260193842E+03  0.15939101190E+02  0.58917677476E+03  0.68173265660E+03  0.00000000000E+00 0.  1.
<mgrwt>
<rscale>  0 0.54177749E+03</rscale>
<asrwt>0</asrwt>
<pdfrwt beam="1">  1        3 0.20215458E+00 0.54177749E+03</pdfrwt>
<pdfrwt beam="2">  1       -4 0.42690952E-01 0.54177749E+03</pdfrwt>
<totfact> 0.17477187E+00</totfact>
</mgrwt>
</event>
<event>
12    3  0.1176505E-007  0.2162898E+04  0.7818608E-02  0.8534031E-01
          1   -1    0    0  501    0  0.00000000000E+00  0.00000000000E+00  0.19920058412E+04  0.19920058412E+04  0.00000000000E+00 0. -1.
         -2   -1    0    0    0  501 -0.00000000000E+00 -0.00000000000E+00 -0.38902845631E+04  0.38902845631E+04  0.00000000000E+00 0.  1.
        -24    2    1    2    0    0  0.15069731071E+04 -0.15453867215E+04 -0.27399747776E+04  0.34890150087E+04  0.81091831747E+02 0.  0.
    5000000    2    1    2    0    0 -0.15069731071E+04  0.15453867215E+04  0.84169605568E+03  0.23932753956E+04  0.60010566107E+03 0.  0.
        -24    2    4    4    0    0 -0.77634205072E+03  0.68390208572E+03  0.70088524716E+03  0.12521958455E+04  0.79531523444E+02 0.  0.
         24    2    4    4    0    0 -0.73063105635E+03  0.86148463577E+03  0.14081080852E+03  0.11410795501E+04  0.79103334978E+02 0.  0.
         11    1    5    5    0    0 -0.42311502252E+03  0.42247025091E+03  0.38909589139E+03  0.71337440933E+03  0.00000000000E+00 0. -1.
        -12    1    5    5    0    0 -0.35322702820E+03  0.26143183480E+03  0.31178935577E+03  0.53882143616E+03  0.00000000000E+00 0.  1.
         15    1    3    3    0    0  0.48773499259E+03 -0.51937500601E+03 -0.84729636744E+03  0.11070456684E+04  0.17770000000E+01 0. -1.
        -16    1    3    3    0    0  0.10192381145E+04 -0.10260117155E+04 -0.18926784101E+04  0.23819693404E+04  0.00000000000E+00 0.  1.
          2    1    6    6  502    0 -0.17927654332E+03  0.20011634196E+03  0.49736191435E+00  0.26867615576E+03  0.00000000000E+00 0. -1.
         -3    1    6    6    0  502 -0.55135451304E+03  0.66136829381E+03  0.14031344661E+03  0.87240339431E+03  0.00000000000E+00 0.  1.
<mgrwt>
<rscale>  0 0.21628981E+04</rscale>
<asrwt>0</asrwt>
<pdfrwt beam="1">  1        1 0.30646243E+00 0.21628981E+04</pdfrwt>
<pdfrwt beam="2">  1       -2 0.59850532E+00 0.21628981E+04</pdfrwt>
<totfact> 0.11495839E-03</totfact>
</mgrwt>
</event>
<event>
12    3  0.1176505E-007  0.5318476E+03  0.7818608E-02  0.1005785E+00
         -2   -1    0    0    0  501 -0.00000000000E+00  0.00000000000E+00  0.48607769162E+03  0.48607769162E+03  0.00000000000E+00 0.  1.
          1   -1    0    0  501    0  0.00000000000E+00 -0.00000000000E+00 -0.71062933264E+03  0.71062933264E+03  0.00000000000E+00 0. -1.
        -24    2    1    2    0    0  0.18098486171E+03  0.38865120309E+03 -0.74309751362E+02  0.44398515642E+03  0.88292707196E+02 0.  0.
    5000000    2    1    2    0    0 -0.18098486171E+03 -0.38865120309E+03 -0.15024188966E+03  0.75272186784E+03  0.60017689649E+03 0.  0.
        -24    2    4    4    0    0 -0.12045832393E+03  0.73733851647E+02  0.12550479522E+03  0.20512920974E+03  0.79872713627E+02 0.  0.
         24    2    4    4    0    0 -0.60526537782E+02 -0.46238505474E+03 -0.27574668489E+03  0.54759265810E+03  0.79737596897E+02 0.  0.
         11    1    5    5    0    0 -0.12418074676E+03  0.46772182711E+02  0.89770057785E+02  0.16020973197E+03  0.00000000000E+00 0. -1.
        -12    1    5    5    0    0  0.37224228350E+01  0.26961668936E+02  0.35734737439E+02  0.44919477773E+02  0.00000000000E+00 0.  1.
         15    1    3    3    0    0 -0.12330729139E+01  0.72580936450E+02 -0.65051417133E+01  0.72903960129E+02  0.17770000000E+01 0. -1.
        -16    1    3    3    0    0  0.18221793462E+03  0.31607026664E+03 -0.67804609648E+02  0.37108119629E+03  0.00000000000E+00 0.  1.
          4    1    6    6  502    0 -0.55615135018E+02 -0.42871800858E+03 -0.22738810010E+03  0.48846445335E+03  0.00000000000E+00 0. -1.
         -3    1    6    6    0  502 -0.49114027645E+01 -0.33667046158E+02 -0.48358584782E+02  0.59128204744E+02  0.00000000000E+00 0.  1.
<mgrwt>
<rscale>  0 0.53184759E+03</rscale>
<asrwt>0</asrwt>
<pdfrwt beam="1">  1        1 0.10932759E+00 0.53184759E+03</pdfrwt>
<pdfrwt beam="2">  1       -2 0.74781183E-01 0.53184759E+03</pdfrwt>
<totfact> 0.39017591E+01</totfact>
</mgrwt>
</event>
<event>
12    3  0.1176505E-007  0.1586937E+04  0.7818608E-02  0.8828614E-01
         -2   -1    0    0    0  501 -0.00000000000E+00  0.00000000000E+00  0.75148522149E+03  0.75148522149E+03  0.00000000000E+00 0.  1.
          1   -1    0    0  501    0  0.00000000000E+00 -0.00000000000E+00 -0.35360538367E+04  0.35360538367E+04  0.00000000000E+00 0. -1.
        -24    2    1    2    0    0  0.15316934502E+04 -0.82656367545E+02 -0.88275780631E+03  0.17716299555E+04  0.80588177022E+02 0.  0.
    5000000    2    1    2    0    0 -0.15316934502E+04  0.82656367545E+02 -0.19018108089E+04  0.25159091026E+04  0.59999779962E+03 0.  0.
        -24    2    4    4    0    0 -0.13033377125E+04 -0.14487299363E+03 -0.15300565943E+04  0.20166728248E+04  0.78858882894E+02 0.  0.
         24    2    4    4    0    0 -0.22835573766E+03  0.22752936117E+03 -0.37175421458E+03  0.49923627782E+03  0.84378385392E+02 0.  0.
         13    1    5    5    0    0 -0.14028886501E+03 -0.40401408498E+02 -0.17270182502E+03  0.22613969094E+03  0.00000000000E+00 0. -1.
        -14    1    5    5    0    0 -0.11630488475E+04 -0.10447158513E+03 -0.13573547693E+04  0.17905331339E+04  0.00000000000E+00 0.  1.
         15    1    3    3    0    0  0.30811510455E+03 -0.37671811910E+01 -0.21204219832E+03  0.37405101377E+03  0.17770000000E+01 0. -1.
        -16    1    3    3    0    0  0.12235783456E+04 -0.78889186354E+02 -0.67071560799E+03  0.13975789418E+04  0.00000000000E+00 0.  1.
          4    1    6    6  502    0 -0.46998722623E+02  0.76950592776E+02 -0.59628543174E+02  0.10810104911E+03  0.00000000000E+00 0. -1.
         -3    1    6    6    0  502 -0.18135701504E+03  0.15057876840E+03 -0.31212567140E+03  0.39113522872E+03  0.00000000000E+00 0.  1.
<mgrwt>
<rscale>  0 0.15869366E+04</rscale>
<asrwt>0</asrwt>
<pdfrwt beam="1">  1        1 0.54400827E+00 0.15869366E+04</pdfrwt>
<pdfrwt beam="2">  1       -2 0.11561311E+00 0.15869366E+04</pdfrwt>
<totfact> 0.11340399E-01</totfact>
</mgrwt>
</event>
<event>
12    3  0.1176505E-007  0.4459466E+03  0.7818608E-02  0.1028938E+00
         -2   -1    0    0    0  501 -0.00000000000E+00  0.00000000000E+00  0.78768749614E+03  0.78768749614E+03  0.00000000000E+00 0.  1.
          1   -1    0    0  501    0  0.00000000000E+00 -0.00000000000E+00 -0.41273552872E+03  0.41273552872E+03  0.00000000000E+00 0. -1.
        -24    2    1    2    0    0  0.24330915232E+03  0.21786933459E+03  0.39277709761E+03  0.51716345440E+03  0.80732890424E+02 0.  0.
    5000000    2    1    2    0    0 -0.24330915232E+03 -0.21786933459E+03 -0.17825130187E+02  0.68325957046E+03  0.59988291758E+03 0.  0.
        -24    2    4    4    0    0 -0.34915691290E+03 -0.25597094380E+03  0.15123178985E+03  0.46563944904E+03  0.80730219567E+02 0.  0.
         24    2    4    4    0    0  0.10584776057E+03  0.38101609214E+02 -0.16905692004E+03  0.21762012142E+03  0.78248284274E+02 0.  0.
         11    1    5    5    0    0 -0.79424517658E+02 -0.10350483036E+03  0.49096190267E+02  0.13939849286E+03  0.00000000000E+00 0. -1.
        -12    1    5    5    0    0 -0.26973239524E+03 -0.15246611344E+03  0.10213559958E+03  0.32624095618E+03  0.00000000000E+00 0.  1.
         15    1    3    3    0    0  0.21033418680E+02  0.58263993179E+02  0.59135118943E+02  0.85657560227E+02  0.17770000000E+01 0. -1.
        -16    1    3    3    0    0  0.22227573364E+03  0.15960534141E+03  0.33364197867E+03  0.43150589417E+03  0.00000000000E+00 0.  1.
          2    1    6    6  502    0  0.84820060451E+02  0.17644074998E+02 -0.61788574037E+02  0.10641232973E+03  0.00000000000E+00 0. -1.
         -1    1    6    6    0  502  0.21027700119E+02  0.20457534215E+02 -0.10726834600E+03  0.11120779169E+03  0.00000000000E+00 0.  1.
<mgrwt>
<rscale>  0 0.44594657E+03</rscale>
<asrwt>0</asrwt>
<pdfrwt beam="1">  1        1 0.63497774E-01 0.44594657E+03</pdfrwt>
<pdfrwt beam="2">  1       -2 0.12118269E+00 0.44594657E+03</pdfrwt>
<totfact> 0.27307290E+01</totfact>
</mgrwt>
</event>
<event>
12    3  0.1176505E-007  0.7904490E+03  0.7818608E-02  0.9573946E-01
          1   -1    0    0  501    0  0.00000000000E+00  0.00000000000E+00  0.16937758354E+04  0.16937758354E+04  0.00000000000E+00 0. -1.
         -2   -1    0    0    0  501 -0.00000000000E+00 -0.00000000000E+00 -0.56305424368E+03  0.56305424368E+03  0.00000000000E+00 0.  1.
        -24    2    1    2    0    0  0.73615768237E+03 -0.17327116713E+03 -0.12681367542E+02  0.76046094700E+03  0.78670224124E+02 0.  0.
    5000000    2    1    2    0    0 -0.73615768237E+03  0.17327116713E+03  0.11434029593E+04  0.14963691321E+04  0.59983266126E+03 0.  0.
        -24    2    4    4    0    0 -0.55617214671E+03 -0.96938175017E+00  0.10927599082E+04  0.12287010536E+04  0.79080122043E+02 0.  0.
         24    2    4    4    0    0 -0.17998553566E+03  0.17424054888E+03  0.50643051073E+02  0.26766807847E+03  0.79541936667E+02 0.  0.
         11    1    5    5    0    0 -0.40658356667E+03  0.32832387988E+02  0.77063739821E+03  0.87193472342E+03  0.00000000000E+00 0. -1.
        -12    1    5    5    0    0 -0.14958858003E+03 -0.33801769738E+02  0.32212251001E+03  0.35676633020E+03  0.00000000000E+00 0.  1.
         15    1    3    3    0    0  0.20153579617E+03 -0.63789055946E+02  0.27932573210E+02  0.21323486388E+03  0.17770000000E+01 0. -1.
        -16    1    3    3    0    0  0.53462188620E+03 -0.10948211118E+03 -0.40613940753E+02  0.54722608313E+03  0.00000000000E+00 0.  1.
          2    1    6    6  502    0 -0.42345901245E+02  0.94238761794E+02  0.13523704497E+02  0.10419697769E+03  0.00000000000E+00 0. -1.
         -1    1    6    6    0  502 -0.13763963442E+03  0.80001787084E+02  0.37119346577E+02  0.16347110078E+03  0.00000000000E+00 0.  1.
<mgrwt>
<rscale>  0 0.79044901E+03</rscale>
<asrwt>0</asrwt>
<pdfrwt beam="1">  1        1 0.26058089E+00 0.79044901E+03</pdfrwt>
<pdfrwt beam="2">  1       -2 0.86623731E-01 0.79044901E+03</pdfrwt>
<totfact> 0.50238430E+00</totfact>
</mgrwt>
</event>
<event>
12    3  0.1176505E-007  0.1035763E+04  0.7818608E-02  0.9270168E-01
          1   -1    0    0  501    0  0.00000000000E+00  0.00000000000E+00  0.26429434161E+04  0.26429434161E+04  0.00000000000E+00 0. -1.
         -2   -1    0    0    0  501 -0.00000000000E+00 -0.00000000000E+00 -0.59664136172E+03  0.59664136172E+03  0.00000000000E+00 0.  1.
        -24    2    1    2    0    0  0.94303219126E+03  0.37152061365E+03  0.17960535864E+03  0.10323365751E+04  0.78252407250E+02 0.  0.
    5000000    2    1    2    0    0 -0.94303219126E+03 -0.37152061365E+03  0.18666966958E+04  0.22072482028E+04  0.60004232728E+03 0.  0.
        -24    2    4    4    0    0 -0.89364063352E+03 -0.28635907183E+03  0.18544336216E+04  0.20798685087E+04  0.79585532021E+02 0.  0.
         24    2    4    4    0    0 -0.49391557744E+02 -0.85161541823E+02  0.12263074202E+02  0.12737969405E+03  0.79894863945E+02 0.  0.
         13    1    5    5    0    0 -0.38142494395E+03 -0.16136432147E+03  0.78702010924E+03  0.88933912792E+03  0.00000000000E+00 0. -1.
        -14    1    5    5    0    0 -0.51221568957E+03 -0.12499475036E+03  0.10674135123E+04  0.11905293808E+04  0.00000000000E+00 0.  1.
         15    1    3    3    0    0  0.80189353387E+03  0.28653823094E+03  0.15957862791E+03  0.86637514604E+03  0.17770000000E+01 0. -1.
        -16    1    3    3    0    0  0.14113865739E+03  0.84982382712E+02  0.20026730727E+02  0.16596142903E+03  0.00000000000E+00 0.  1.
          2    1    6    6  502    0 -0.13242797254E+02 -0.75160961941E+02  0.34524176999E+02  0.83764316248E+02  0.00000000000E+00 0. -1.
         -1    1    6    6    0  502 -0.36148760490E+02 -0.10000579882E+02 -0.22261102796E+02  0.43615377800E+02  0.00000000000E+00 0.  1.
<mgrwt>
<rscale>  0 0.10357630E+04</rscale>
<asrwt>0</asrwt>
<pdfrwt beam="1">  1        1 0.40660667E+00 0.10357630E+04</pdfrwt>
<pdfrwt beam="2">  1       -2 0.91790980E-01 0.10357630E+04</pdfrwt>
<totfact> 0.96466303E-01</totfact>
</mgrwt>
</event>
<event>
12    3  0.1176505E-007  0.9043120E+03  0.7818608E-02  0.9420207E-01
          1   -1    0    0  501    0  0.00000000000E+00  0.00000000000E+00  0.21595922134E+04  0.21595922134E+04  0.00000000000E+00 0. -1.
         -2   -1    0    0    0  501 -0.00000000000E+00 -0.00000000000E+00 -0.46622561813E+03  0.46622561813E+03  0.00000000000E+00 0.  1.
        -24    2    1    2    0    0  0.81100126494E+03 -0.31161154762E+03  0.11339868521E+04  0.14308894361E+04  0.81814358880E+02 0.  0.
    5000000    2    1    2    0    0 -0.81100126494E+03  0.31161154762E+03  0.55937974312E+03  0.11949283954E+04  0.60010279510E+03 0.  0.
        -24    2    4    4    0    0 -0.42346155439E+03  0.34076831978E+03  0.57785140603E+03  0.79801898876E+03  0.86483080216E+02 0.  0.
         24    2    4    4    0    0 -0.38753971055E+03 -0.29156772158E+02 -0.18471662904E+02  0.39690940660E+03  0.78477577066E+02 0.  0.
         13    1    5    5    0    0 -0.96296261834E+02  0.11746953791E+03  0.12804088169E+03  0.19866184778E+03  0.00000000000E+00 0. -1.
        -14    1    5    5    0    0 -0.32716529255E+03  0.22329878186E+03  0.44981052434E+03  0.59935714098E+03  0.00000000000E+00 0.  1.
         15    1    3    3    0    0  0.42276609577E+03 -0.19548994072E+03  0.56250751484E+03  0.73031866376E+03  0.17770000000E+01 0. -1.
        -16    1    3    3    0    0  0.38823516918E+03 -0.11612160690E+03  0.57147933727E+03  0.70057077237E+03  0.00000000000E+00 0.  1.
          4    1    6    6  502    0 -0.10581781039E+03  0.43511675015E+01 -0.38030274243E+02  0.11252841158E+03  0.00000000000E+00 0. -1.
         -3    1    6    6    0  502 -0.28172190016E+03 -0.33507939660E+02  0.19558611339E+02  0.28438099502E+03  0.00000000000E+00 0.  1.
<mgrwt>
<rscale>  0 0.90431202E+03</rscale>
<asrwt>0</asrwt>
<pdfrwt beam="1">  1        1 0.33224495E+00 0.90431202E+03</pdfrwt>
<pdfrwt beam="2">  1       -2 0.71727020E-01 0.90431202E+03</pdfrwt>
<totfact> 0.36738671E+00</totfact>
</mgrwt>
</event>
<event>
12    3  0.1176505E-007  0.2012767E+04  0.7818608E-02  0.8600675E-01
          1   -1    0    0  501    0  0.00000000000E+00  0.00000000000E+00  0.22019253684E+04  0.22019253684E+04  0.00000000000E+00 0. -1.
         -2   -1    0    0    0  501 -0.00000000000E+00 -0.00000000000E+00 -0.20764657690E+04  0.20764657690E+04  0.00000000000E+00 0.  1.
        -24    2    1    2    0    0  0.20037239150E+04 -0.15263832126E+03 -0.53239707447E+03  0.20804543163E+04  0.81458778814E+02 0.  0.
    5000000    2    1    2    0    0 -0.20037239150E+04  0.15263832126E+03  0.65785667385E+03  0.21979368212E+04  0.59995239967E+03 0.  0.
        -24    2    4    4    0    0 -0.15096445940E+04  0.54084458856E+02  0.73722135764E+03  0.16827578559E+04  0.78909712039E+02 0.  0.
         24    2    4    4    0    0 -0.49407932100E+03  0.98553862408E+02 -0.79364683793E+02  0.51517896524E+03  0.72686821059E+02 0.  0.
         11    1    5    5    0    0 -0.46045488915E+03 -0.62933786517E+01  0.19337733142E+03  0.49945280444E+03  0.00000000000E+00 0. -1.
        -12    1    5    5    0    0 -0.10491897048E+04  0.60377837508E+02  0.54384402622E+03  0.11833050515E+04  0.00000000000E+00 0.  1.
         15    1    3    3    0    0  0.65967536544E+03 -0.33365646526E+02 -0.13957508502E+03  0.67510681839E+03  0.17770000000E+01 0. -1.
        -16    1    3    3    0    0  0.13440485496E+04 -0.11927267474E+03 -0.39282198944E+03  0.14053474979E+04  0.00000000000E+00 0.  1.
          2    1    6    6  502    0 -0.12958220394E+03  0.16373568140E+02  0.99985937906E+01  0.13099470673E+03  0.00000000000E+00 0. -1.
         -1    1    6    6    0  502 -0.36449711706E+03  0.82180294268E+02 -0.89363277584E+02  0.38418425851E+03  0.00000000000E+00 0.  1.
<mgrwt>
<rscale>  0 0.20127670E+04</rscale>
<asrwt>0</asrwt>
<pdfrwt beam="1">  1        1 0.33875775E+00 0.20127670E+04</pdfrwt>
<pdfrwt beam="2">  1       -2 0.31945627E+00 0.20127670E+04</pdfrwt>
<totfact> 0.40762364E-02</totfact>
</mgrwt>
</event>
<event>
12    3  0.1176505E-007  0.4262581E+03  0.7818608E-02  0.1035049E+00
         -2   -1    0    0    0  501 -0.00000000000E+00  0.00000000000E+00  0.15116281747E+03  0.15116281747E+03  0.00000000000E+00 0.  1.
          1   -1    0    0  501    0  0.00000000000E+00 -0.00000000000E+00 -0.12966005145E+04  0.12966005145E+04  0.00000000000E+00 0. -1.
        -24    2    1    2    0    0  0.93002576467E+02  0.20840609067E+03 -0.27208022030E+03  0.36388040066E+03  0.79364487322E+02 0.  0.
    5000000    2    1    2    0    0 -0.93002576467E+02 -0.20840609067E+03 -0.87335747672E+03  0.10838829313E+04  0.59997195664E+03 0.  0.
        -24    2    4    4    0    0  0.11459616277E+03 -0.34287037153E+03 -0.61609059518E+03  0.71857633934E+03  0.78051020402E+02 0.  0.
         24    2    4    4    0    0 -0.20759873924E+03  0.13446428086E+03 -0.25726688154E+03  0.36530659196E+03  0.78004989771E+02 0.  0.
         11    1    5    5    0    0  0.74760627978E+02 -0.11145420360E+03 -0.24741260879E+03  0.28146791999E+03  0.00000000000E+00 0. -1.
        -12    1    5    5    0    0  0.39835534797E+02 -0.23141616793E+03 -0.36867798639E+03  0.43710841934E+03  0.00000000000E+00 0.  1.
         15    1    3    3    0    0  0.23069165692E+02  0.12432784367E+03 -0.18495878778E+03  0.22405916634E+03  0.17770000000E+01 0. -1.
        -16    1    3    3    0    0  0.69933410775E+02  0.84078247000E+02 -0.87121432527E+02  0.13982123432E+03  0.00000000000E+00 0.  1.
          2    1    6    6  502    0 -0.83223744030E+02  0.61362703309E+02 -0.16280457758E+03  0.19286498751E+03  0.00000000000E+00 0. -1.
         -1    1    6    6    0  502 -0.12437499521E+03  0.73101577550E+02 -0.94462303963E+02  0.17244160445E+03  0.00000000000E+00 0.  1.
<mgrwt>
<rscale>  0 0.42625806E+03</rscale>
<asrwt>0</asrwt>
<pdfrwt beam="1">  1        1 0.19947700E+00 0.42625806E+03</pdfrwt>
<pdfrwt beam="2">  1       -2 0.23255818E-01 0.42625806E+03</pdfrwt>
<totfact> 0.13707731E+02</totfact>
</mgrwt>
</event>
<event>
12    3  0.1176505E-007  0.8227929E+03  0.7818608E-02  0.9527599E-01
          1   -1    0    0  501    0  0.00000000000E+00  0.00000000000E+00  0.13056664810E+04  0.13056664810E+04  0.00000000000E+00 0. -1.
         -2   -1    0    0    0  501 -0.00000000000E+00 -0.00000000000E+00 -0.82946739075E+03  0.82946739075E+03  0.00000000000E+00 0.  1.
        -24    2    1    2    0    0 -0.47391690535E+03  0.54868443157E+03 -0.41491416949E+03  0.83907028519E+03  0.78951483934E+02 0.  0.
    5000000    2    1    2    0    0  0.47391690535E+03 -0.54868443157E+03  0.89111325972E+03  0.12960635865E+04  0.60003844883E+03 0.  0.
        -24    2    4    4    0    0 -0.12859444785E+03 -0.13878519072E+03  0.23780398797E+03  0.31414876363E+03  0.79629440607E+02 0.  0.
         24    2    4    4    0    0  0.60251135320E+03 -0.40989924086E+03  0.65330927175E+03  0.98191482291E+03  0.79412823309E+02 0.  0.
         11    1    5    5    0    0 -0.35443704749E+02 -0.29677054702E+02  0.11973171584E+03  0.12834589031E+03  0.00000000000E+00 0. -1.
        -12    1    5    5    0    0 -0.93150743106E+02 -0.10910813602E+03  0.11807227214E+03  0.18580287332E+03  0.00000000000E+00 0.  1.
         15    1    3    3    0    0 -0.15727097668E+03  0.22328424730E+03 -0.18732677110E+03  0.33118649142E+03  0.17770000000E+01 0. -1.
        -16    1    3    3    0    0 -0.31664592867E+03  0.32540018428E+03 -0.22758739839E+03  0.50788379377E+03  0.00000000000E+00 0.  1.
          2    1    6    6  502    0  0.13975665305E+03 -0.97646133867E+02  0.10982755916E+03  0.20280232317E+03  0.00000000000E+00 0. -1.
         -1    1    6    6    0  502  0.46275470015E+03 -0.31225310699E+03  0.54348171259E+03  0.77911249974E+03  0.00000000000E+00 0.  1.
<mgrwt>
<rscale>  0 0.82279288E+03</rscale>
<asrwt>0</asrwt>
<pdfrwt beam="1">  1        1 0.20087177E+00 0.82279288E+03</pdfrwt>
<pdfrwt beam="2">  1       -2 0.12761037E+00 0.82279288E+03</pdfrwt>
<totfact> 0.36477319E+00</totfact>
</mgrwt>
</event>
<event>
12    3  0.1176505E-007  0.7442421E+03  0.7818608E-02  0.9644427E-01
          1   -1    0    0  501    0  0.00000000000E+00  0.00000000000E+00  0.11433497113E+04  0.11433497113E+04  0.00000000000E+00 0. -1.
         -2   -1    0    0    0  501 -0.00000000000E+00 -0.00000000000E+00 -0.49609516970E+03  0.49609516970E+03  0.00000000000E+00 0.  1.
        -24    2    1    2    0    0  0.14240137833E+03 -0.60980302151E+03  0.19182141503E+03  0.65972972579E+03  0.79435371366E+02 0.  0.
    5000000    2    1    2    0    0 -0.14240137833E+03  0.60980302151E+03  0.45543312660E+03  0.97971515526E+03  0.60023709902E+03 0.  0.
        -24    2    4    4    0    0 -0.18888921744E+03 -0.34244369884E+02  0.56993777621E+02  0.21681935550E+03  0.83129590985E+02 0.  0.
         24    2    4    4    0    0  0.46487839104E+02  0.64404739140E+03  0.39843934898E+03  0.76289579976E+03  0.79359466507E+02 0.  0.
         13    1    5    5    0    0 -0.12710818574E+03  0.15887108895E+02  0.22306206657E+02  0.13002483596E+03  0.00000000000E+00 0. -1.
        -14    1    5    5    0    0 -0.61781031699E+02 -0.50131478779E+02  0.34687570964E+02  0.86794519537E+02  0.00000000000E+00 0.  1.
         15    1    3    3    0    0  0.45127054058E+02 -0.35512469573E+03  0.94393654036E+02  0.37022063715E+03  0.17770000000E+01 0. -1.
        -16    1    3    3    0    0  0.97274324276E+02 -0.25467832579E+03  0.97427760997E+02  0.28950908863E+03  0.00000000000E+00 0.  1.
          2    1    6    6  502    0 -0.14377411929E+02  0.33076046540E+03  0.19011510513E+03  0.38177604514E+03  0.00000000000E+00 0. -1.
         -1    1    6    6    0  502  0.60865251032E+02  0.31328692600E+03  0.20832424385E+03  0.38111975462E+03  0.00000000000E+00 0.  1.
<mgrwt>
<rscale>  0 0.74424210E+03</rscale>
<asrwt>0</asrwt>
<pdfrwt beam="1">  1        1 0.17589995E+00 0.74424210E+03</pdfrwt>
<pdfrwt beam="2">  1       -2 0.76322334E-01 0.74424210E+03</pdfrwt>
<totfact> 0.16265868E+01</totfact>
</mgrwt>
</event>
<event>
12    3  0.1176505E-007  0.4160695E+03  0.7818608E-02  0.1038353E+00
         -2   -1    0    0    0  501 -0.00000000000E+00  0.00000000000E+00  0.17178464149E+03  0.17178464149E+03  0.00000000000E+00 0.  1.
          1   -1    0    0  501    0  0.00000000000E+00 -0.00000000000E+00 -0.10931465454E+04  0.10931465454E+04  0.00000000000E+00 0. -1.
        -24    2    1    2    0    0  0.20316053325E+03 -0.60424845650E+02 -0.29246649256E+03  0.37015953837E+03  0.80969564232E+02 0.  0.
    5000000    2    1    2    0    0 -0.20316053325E+03  0.60424845650E+02 -0.62889541136E+03  0.89477164853E+03  0.60015123123E+03 0.  0.
        -24    2    4    4    0    0 -0.19602244492E+02 -0.25038220800E+03 -0.30835425583E+03  0.40522124818E+03  0.77758696095E+02 0.  0.
         24    2    4    4    0    0 -0.18355828876E+03  0.31080705365E+03 -0.32054115553E+03  0.48955040035E+03  0.81352886400E+02 0.  0.
         11    1    5    5    0    0 -0.38963342069E+01 -0.23227611503E+03 -0.24568611694E+03  0.33812577999E+03  0.00000000000E+00 0. -1.
        -12    1    5    5    0    0 -0.15705910285E+02 -0.18106092966E+02 -0.62668138889E+02  0.67095468194E+02  0.00000000000E+00 0.  1.
         15    1    3    3    0    0  0.83565747958E+02 -0.12162949452E+02 -0.57666087549E+02  0.10227270874E+03  0.17770000000E+01 0. -1.
        -16    1    3    3    0    0  0.11959478529E+03 -0.48261896198E+02 -0.23480040501E+03  0.26788682963E+03  0.00000000000E+00 0.  1.
          4    1    6    6  502    0 -0.17608517108E+03  0.28028404062E+03 -0.25842879480E+03  0.41994115407E+03  0.00000000000E+00 0. -1.
         -3    1    6    6    0  502 -0.74731176768E+01  0.30523013027E+02 -0.62112360729E+02  0.69609246278E+02  0.00000000000E+00 0.  1.
<mgrwt>
<rscale>  0 0.41606949E+03</rscale>
<asrwt>0</asrwt>
<pdfrwt beam="1">  1        1 0.16817639E+00 0.41606949E+03</pdfrwt>
<pdfrwt beam="2">  1       -2 0.26428407E-01 0.41606949E+03</pdfrwt>
<totfact> 0.15260465E+02</totfact>
</mgrwt>
</event>
<event>
12    3  0.1176505E-007  0.7933250E+03  0.7818608E-02  0.9569729E-01
          1   -1    0    0  501    0  0.00000000000E+00  0.00000000000E+00  0.79345731796E+03  0.79345731796E+03  0.00000000000E+00 0. -1.
         -2   -1    0    0    0  501 -0.00000000000E+00 -0.00000000000E+00 -0.87704619789E+03  0.87704619789E+03  0.00000000000E+00 0.  1.
        -24    2    1    2    0    0 -0.59476108041E+02 -0.71749610522E+03 -0.11245838780E+03  0.73300445785E+03  0.79439145356E+02 0.  0.
    5000000    2    1    2    0    0  0.59476108041E+02  0.71749610522E+03  0.28869507863E+02  0.93749905799E+03  0.59977743107E+03 0.  0.
        -24    2    4    4    0    0 -0.20365731252E+03  0.23903513172E+03  0.17283357810E+03  0.36724307588E+03  0.79887019729E+02 0.  0.
         24    2    4    4    0    0  0.26313342056E+03  0.47846097350E+03 -0.14396407024E+03  0.57025598211E+03  0.79385965010E+02 0.  0.
         13    1    5    5    0    0 -0.94537612796E+02  0.15704430751E+03  0.69452303223E+02  0.19602014483E+03  0.00000000000E+00 0. -1.
        -14    1    5    5    0    0 -0.10911969973E+03  0.81990824211E+02  0.10338127488E+03  0.17122293105E+03  0.00000000000E+00 0.  1.
         15    1    3    3    0    0 -0.37455929917E+02 -0.59571532266E+03 -0.12069656048E+03  0.60897496646E+03  0.17770000000E+01 0. -1.
        -16    1    3    3    0    0 -0.22020178125E+02 -0.12178078256E+03  0.82381726839E+01  0.12402949139E+03  0.00000000000E+00 0.  1.
          2    1    6    6  502    0  0.15615698659E+03  0.27028684990E+03 -0.42032755326E+02  0.31497101170E+03  0.00000000000E+00 0. -1.
         -1    1    6    6    0  502  0.10697643398E+03  0.20817412359E+03 -0.10193131491E+03  0.25528497041E+03  0.00000000000E+00 0.  1.
<mgrwt>
<rscale>  0 0.79332499E+03</rscale>
<asrwt>0</asrwt>
<pdfrwt beam="1">  1        1 0.12207036E+00 0.79332499E+03</pdfrwt>
<pdfrwt beam="2">  1       -2 0.13493018E+00 0.79332499E+03</pdfrwt>
<totfact> 0.78869463E+00</totfact>
</mgrwt>
</event>
<event>
12    3  0.1176505E-007  0.1524218E+04  0.7818608E-02  0.8868506E-01
         -2   -1    0    0    0  501 -0.00000000000E+00  0.00000000000E+00  0.14044626255E+04  0.14044626255E+04  0.00000000000E+00 0.  1.
          1   -1    0    0  501    0  0.00000000000E+00 -0.00000000000E+00 -0.20079077896E+04  0.20079077896E+04  0.00000000000E+00 0. -1.
        -24    2    1    2    0    0  0.72408161972E+03  0.13154878050E+04  0.33803848271E+03  0.15412065094E+04  0.79026145971E+02 0.  0.
    5000000    2    1    2    0    0 -0.72408161972E+03 -0.13154878050E+04 -0.94148364681E+03  0.18711639056E+04  0.60005045416E+03 0.  0.
        -24    2    4    4    0    0 -0.16551763257E+03 -0.64058055269E+03 -0.67857566795E+03  0.95121125158E+03  0.81230393349E+02 0.  0.
         24    2    4    4    0    0 -0.55856398715E+03 -0.67490725228E+03 -0.26290797886E+03  0.91995265407E+03  0.98482249495E+02 0.  0.
         13    1    5    5    0    0 -0.12942113763E+03 -0.34981921225E+03 -0.40001605894E+03  0.54693341417E+03  0.00000000000E+00 0. -1.
        -14    1    5    5    0    0 -0.36096494938E+02 -0.29076134045E+03 -0.27855960902E+03  0.40427783741E+03  0.00000000000E+00 0.  1.
         15    1    3    3    0    0  0.52209266936E+03  0.89134731156E+03  0.20758700571E+03  0.10536490440E+04  0.17770000000E+01 0. -1.
        -16    1    3    3    0    0  0.20198895036E+03  0.42414049342E+03  0.13045147699E+03  0.48755746541E+03  0.00000000000E+00 0.  1.
          2    1    6    6  502    0 -0.15568900526E+03 -0.13534191525E+03 -0.36264939996E+02  0.20945559495E+03  0.00000000000E+00 0. -1.
         -1    1    6    6    0  502 -0.40287498189E+03 -0.53956533703E+03 -0.22664303886E+03  0.71049705912E+03  0.00000000000E+00 0.  1.
<mgrwt>
<rscale>  0 0.15242180E+04</rscale>
<asrwt>0</asrwt>
<pdfrwt beam="1">  1        1 0.30890889E+00 0.15242180E+04</pdfrwt>
<pdfrwt beam="2">  1       -2 0.21607117E+00 0.15242180E+04</pdfrwt>
<totfact> 0.25356343E-01</totfact>
</mgrwt>
</event>
<event>
12    3  0.1176505E-007  0.4411149E+03  0.7818608E-02  0.1030405E+00
         -2   -1    0    0    0  501 -0.00000000000E+00  0.00000000000E+00  0.10770556322E+04  0.10770556322E+04  0.00000000000E+00 0.  1.
          1   -1    0    0  501    0  0.00000000000E+00 -0.00000000000E+00 -0.34212322864E+03  0.34212322864E+03  0.00000000000E+00 0. -1.
        -24    2    1    2    0    0  0.39552582392E+03 -0.10327596077E+03  0.47302542803E+02  0.41900829889E+03  0.78891206910E+02 0.  0.
    5000000    2    1    2    0    0 -0.39552582392E+03  0.10327596077E+03  0.68762986075E+03  0.10001705619E+04  0.60033301270E+03 0.  0.
        -24    2    4    4    0    0 -0.37297891239E+03  0.71310467736E+02  0.92696706803E+02  0.39865036374E+03  0.78300582149E+02 0.  0.
         24    2    4    4    0    0 -0.22546911530E+02  0.31965493033E+02  0.59493315395E+03  0.60152019821E+03  0.79692755112E+02 0.  0.
         11    1    5    5    0    0 -0.31012546442E+03  0.30484444779E+02  0.62381057749E+02  0.31780261393E+03  0.00000000000E+00 0. -1.
        -12    1    5    5    0    0 -0.62853447965E+02  0.40826022957E+02  0.30315649054E+02  0.80847749809E+02  0.00000000000E+00 0.  1.
         15    1    3    3    0    0  0.24784801595E+03 -0.61888929414E+02  0.67719522973E+02  0.26428766546E+03  0.17770000000E+01 0. -1.
        -16    1    3    3    0    0  0.14767780797E+03 -0.41387031355E+02 -0.20416980169E+02  0.15472063343E+03  0.00000000000E+00 0.  1.
          2    1    6    6  502    0  0.29042065916E+02  0.13597453606E+02  0.28364722820E+03  0.28545416866E+03  0.00000000000E+00 0. -1.
         -1    1    6    6    0  502 -0.51588977445E+02  0.18368039428E+02  0.31128592575E+03  0.31606602955E+03  0.00000000000E+00 0.  1.
<mgrwt>
<rscale>  0 0.44111493E+03</rscale>
<asrwt>0</asrwt>
<pdfrwt beam="1">  1        1 0.52634343E-01 0.44111493E+03</pdfrwt>
<pdfrwt beam="2">  1       -2 0.16570086E+00 0.44111493E+03</pdfrwt>
<totfact> 0.15564903E+01</totfact>
</mgrwt>
</event>
<event>
12    3  0.1176505E-007  0.6756333E+03  0.7818608E-02  0.9759834E-01
         -2   -1    0    0    0  501 -0.00000000000E+00  0.00000000000E+00  0.22578612578E+03  0.22578612578E+03  0.00000000000E+00 0.  1.
          1   -1    0    0  501    0  0.00000000000E+00 -0.00000000000E+00 -0.25106743055E+04  0.25106743055E+04  0.00000000000E+00 0. -1.
        -24    2    1    2    0    0 -0.38726384068E+03 -0.44840012556E+03 -0.13565575509E+04  0.14823519352E+04  0.77993050839E+02 0.  0.
    5000000    2    1    2    0    0  0.38726384068E+03  0.44840012556E+03 -0.92833062881E+03  0.12541084961E+04  0.59996200598E+03 0.  0.
        -24    2    4    4    0    0  0.15170468423E+03 -0.76645742224E+02 -0.37986609915E+02  0.19100880813E+03  0.78437881341E+02 0.  0.
         24    2    4    4    0    0  0.23555915644E+03  0.52504586779E+03 -0.89034401890E+03  0.10630996879E+04  0.79417850952E+02 0.  0.
         11    1    5    5    0    0  0.38401806611E+02 -0.45280358747E+02  0.16223042494E+02  0.61548328548E+02  0.00000000000E+00 0. -1.
        -12    1    5    5    0    0  0.11330287762E+03 -0.31365383477E+02 -0.54209652409E+02  0.12946047958E+03  0.00000000000E+00 0.  1.
         15    1    3    3    0    0 -0.33497656027E+03 -0.40404783245E+03 -0.11360345146E+04  0.12514158073E+04  0.17770000000E+01 0. -1.
        -16    1    3    3    0    0 -0.52287280406E+02 -0.44352293109E+02 -0.22052303635E+03  0.23093612788E+03  0.00000000000E+00 0.  1.
          4    1    6    6  502    0  0.22985157940E+01  0.65677592610E+02 -0.10195005686E+03  0.12129568599E+03  0.00000000000E+00 0. -1.
         -3    1    6    6    0  502  0.23326064065E+03  0.45936827518E+03 -0.78839396203E+03  0.94180400195E+03  0.00000000000E+00 0.  1.
<mgrwt>
<rscale>  0 0.67563327E+03</rscale>
<asrwt>0</asrwt>
<pdfrwt beam="1">  1        1 0.38625758E+00 0.67563327E+03</pdfrwt>
<pdfrwt beam="2">  1       -2 0.34736327E-01 0.67563327E+03</pdfrwt>
<totfact> 0.96736145E+00</totfact>
</mgrwt>
</event>
<event>
12    3  0.1176505E-007  0.1133986E+04  0.7818608E-02  0.9172686E-01
         -4   -1    0    0    0  501 -0.00000000000E+00  0.00000000000E+00  0.11006762072E+04  0.11006762072E+04  0.00000000000E+00 0.  1.
          3   -1    0    0  501    0  0.00000000000E+00 -0.00000000000E+00 -0.13851203583E+04  0.13851203583E+04  0.00000000000E+00 0. -1.
        -24    2    1    2    0    0 -0.68711650965E+03  0.83008822262E+03 -0.56726133417E+03  0.12204427680E+04  0.80743876356E+02 0.  0.
    5000000    2    1    2    0    0  0.68711650965E+03 -0.83008822262E+03  0.28281718306E+03  0.12653537974E+04  0.59996593103E+03 0.  0.
        -24    2    4    4    0    0  0.99602278876E+02 -0.50665481041E+03 -0.24714136397E+02  0.52320404251E+03  0.80696782452E+02 0.  0.
         24    2    4    4    0    0  0.58751423078E+03 -0.32343341221E+03  0.30753131946E+03  0.74214975489E+03  0.80178567802E+02 0.  0.
         13    1    5    5    0    0  0.48470769999E+02 -0.12326384366E+03 -0.32343349947E+02  0.13634325427E+03  0.00000000000E+00 0. -1.
        -14    1    5    5    0    0  0.51131508877E+02 -0.38339096675E+03  0.76292135506E+01  0.38686078825E+03  0.00000000000E+00 0.  1.
         15    1    3    3    0    0 -0.14516351566E+03  0.19479930639E+03 -0.16402506937E+03  0.29313238845E+03  0.17770000000E+01 0. -1.
        -16    1    3    3    0    0 -0.54195299400E+03  0.63528891623E+03 -0.40323626480E+03  0.92731037956E+03  0.00000000000E+00 0.  1.
          4    1    6    6  502    0  0.30115725896E+03 -0.15977154793E+03  0.11261189533E+03  0.35903214497E+03  0.00000000000E+00 0. -1.
         -3    1    6    6    0  502  0.28635697182E+03 -0.16366186428E+03  0.19491942413E+03  0.38311760992E+03  0.00000000000E+00 0.  1.
<mgrwt>
<rscale>  0 0.11339855E+04</rscale>
<asrwt>0</asrwt>
<pdfrwt beam="1">  1        3 0.21309544E+00 0.11339855E+04</pdfrwt>
<pdfrwt beam="2">  1       -4 0.16933480E+00 0.11339855E+04</pdfrwt>
<totfact> 0.56925383E-02</totfact>
</mgrwt>
</event>
<event>
12    3  0.1176505E-007  0.9257221E+03  0.7818608E-02  0.9393987E-01
         -2   -1    0    0    0  501 -0.00000000000E+00  0.00000000000E+00  0.41826367647E+03  0.41826367647E+03  0.00000000000E+00 0.  1.
          1   -1    0    0  501    0  0.00000000000E+00 -0.00000000000E+00 -0.25078913309E+04  0.25078913309E+04  0.00000000000E+00 0. -1.
        -24    2    1    2    0    0 -0.75120312869E+03  0.50283782416E+03 -0.61829056817E+03  0.10980565621E+04  0.79328234725E+02 0.  0.
    5000000    2    1    2    0    0  0.75120312869E+03 -0.50283782416E+03 -0.14713370862E+04  0.18280984453E+04  0.59996590434E+03 0.  0.
        -24    2    4    4    0    0  0.14767879878E+03 -0.12225800591E+02 -0.73251987584E+01  0.16834857242E+03  0.79555549721E+02 0.  0.
         24    2    4    4    0    0  0.60352432991E+03 -0.49061202357E+03 -0.14640118875E+04  0.16597498729E+04  0.80604338201E+02 0.  0.
         13    1    5    5    0    0  0.12008275395E+02  0.22163389025E+02 -0.12819005682E+02  0.28279699393E+02  0.00000000000E+00 0. -1.
        -14    1    5    5    0    0  0.13567052338E+03 -0.34389189616E+02  0.54938069238E+01  0.14006887303E+03  0.00000000000E+00 0.  1.
         15    1    3    3    0    0 -0.49576529164E+03  0.31614166760E+03 -0.44432423419E+03  0.73699115409E+03  0.17770000000E+01 0. -1.
        -16    1    3    3    0    0 -0.25543783706E+03  0.18669615656E+03 -0.17396633398E+03  0.36106540797E+03  0.00000000000E+00 0.  1.
          4    1    6    6  502    0  0.34739346832E+03 -0.33261312894E+03 -0.90979578919E+03  0.10290977084E+04  0.00000000000E+00 0. -1.
         -3    1    6    6    0  502  0.25613086159E+03 -0.15799889463E+03 -0.55421609827E+03  0.63065216447E+03  0.00000000000E+00 0.  1.
<mgrwt>
<rscale>  0 0.92572207E+03</rscale>
<asrwt>0</asrwt>
<pdfrwt beam="1">  1        1 0.38582944E+00 0.92572207E+03</pdfrwt>
<pdfrwt beam="2">  1       -2 0.64348257E-01 0.92572207E+03</pdfrwt>
<totfact> 0.26903898E+00</totfact>
</mgrwt>
</event>
<event>
12    3  0.1176505E-007  0.6813158E+03  0.7818608E-02  0.9749729E-01
         -2   -1    0    0    0  501 -0.00000000000E+00  0.00000000000E+00  0.77430262194E+03  0.77430262194E+03  0.00000000000E+00 0.  1.
          1   -1    0    0  501    0  0.00000000000E+00 -0.00000000000E+00 -0.65165252846E+03  0.65165252846E+03  0.00000000000E+00 0. -1.
        -24    2    1    2    0    0  0.55117443084E+03 -0.10881771709E+02 -0.13036535181E+03  0.57309337387E+03  0.86771101455E+02 0.  0.
    5000000    2    1    2    0    0 -0.55117443084E+03  0.10881771709E+02  0.25301544529E+03  0.85286177653E+03  0.59953709489E+03 0.  0.
        -24    2    4    4    0    0 -0.20500768902E+03 -0.27357558214E+03  0.17114809181E+03  0.39037141767E+03  0.78907684709E+02 0.  0.
         24    2    4    4    0    0 -0.34616674183E+03  0.28445735385E+03  0.81867353480E+02  0.46249035886E+03  0.80297379596E+02 0.  0.
         13    1    5    5    0    0 -0.20012237673E+03 -0.22270289211E+03  0.14002451879E+03  0.33053352279E+03  0.00000000000E+00 0. -1.
        -14    1    5    5    0    0 -0.48853122859E+01 -0.50872690029E+02  0.31123573017E+02  0.59837894885E+02  0.00000000000E+00 0.  1.
         15    1    3    3    0    0  0.60039959484E+02 -0.28114660168E+02 -0.93515979798E+01  0.66976420963E+02  0.17770000000E+01 0. -1.
        -16    1    3    3    0    0  0.49113447136E+03  0.17232888458E+02 -0.12101375383E+03  0.50611695291E+03  0.00000000000E+00 0.  1.
          2    1    6    6  502    0 -0.16568240235E+03  0.88076550729E+02  0.20108110791E+02  0.18871267408E+03  0.00000000000E+00 0. -1.
         -1    1    6    6    0  502 -0.18048433947E+03  0.19638080312E+03  0.61759242689E+02  0.27377768478E+03  0.00000000000E+00 0.  1.
<mgrwt>
<rscale>  0 0.68131581E+03</rscale>
<asrwt>0</asrwt>
<pdfrwt beam="1">  1        1 0.10025424E+00 0.68131581E+03</pdfrwt>
<pdfrwt beam="2">  1       -2 0.11912348E+00 0.68131581E+03</pdfrwt>
<totfact> 0.14756321E+01</totfact>
</mgrwt>
</event>
<event>
12    3  0.1176505E-007  0.1086183E+04  0.7818608E-02  0.9218765E-01
         -2   -1    0    0    0  501 -0.00000000000E+00  0.00000000000E+00  0.67892833828E+03  0.67892833828E+03  0.00000000000E+00 0.  1.
          1   -1    0    0  501    0  0.00000000000E+00 -0.00000000000E+00 -0.20649840952E+04  0.20649840952E+04  0.00000000000E+00 0. -1.
        -24    2    1    2    0    0 -0.56424979550E+03 -0.83433205474E+03 -0.11797110321E+04  0.15534827048E+04  0.84276838040E+02 0.  0.
    5000000    2    1    2    0    0  0.56424979550E+03  0.83433205474E+03 -0.20634472479E+03  0.11904297287E+04  0.60004748499E+03 0.  0.
        -24    2    4    4    0    0  0.67557603615E+03  0.63684272615E+03 -0.17212623872E+03  0.94772231904E+03  0.81108035777E+02 0.  0.
         24    2    4    4    0    0 -0.11132624065E+03  0.19748932858E+03 -0.34218486073E+02  0.24270740966E+03  0.79626723883E+02 0.  0.
         11    1    5    5    0    0  0.46761988196E+03  0.41858639801E+03 -0.81133438483E+02  0.63282348363E+03  0.00000000000E+00 0. -1.
        -12    1    5    5    0    0  0.20795615420E+03  0.21825632814E+03 -0.90992800238E+02  0.31489883540E+03  0.00000000000E+00 0.  1.
         15    1    3    3    0    0 -0.35090542100E+03 -0.48554587537E+03 -0.64381401532E+03  0.87942541220E+03  0.17770000000E+01 0. -1.
        -16    1    3    3    0    0 -0.21334437450E+03 -0.34878617936E+03 -0.53589701679E+03  0.67405729256E+03  0.00000000000E+00 0.  1.
          4    1    6    6  502    0 -0.60187902903E+02  0.16279255304E+03 -0.46537578860E+02  0.17969347575E+03  0.00000000000E+00 0. -1.
         -3    1    6    6    0  502 -0.51138337745E+02  0.34696775545E+02  0.12319092787E+02  0.63013933917E+02  0.00000000000E+00 0.  1.
<mgrwt>
<rscale>  0 0.10861826E+04</rscale>
<asrwt>0</asrwt>
<pdfrwt beam="1">  1        1 0.31768986E+00 0.10861826E+04</pdfrwt>
<pdfrwt beam="2">  1       -2 0.10445051E+00 0.10861826E+04</pdfrwt>
<totfact> 0.17508577E+00</totfact>
</mgrwt>
</event>
<event>
12    3  0.1176505E-007  0.1985200E+04  0.7818608E-02  0.8613571E-01
          1   -1    0    0  501    0  0.00000000000E+00  0.00000000000E+00  0.18231066384E+04  0.18231066384E+04  0.00000000000E+00 0. -1.
         -4   -1    0    0    0  501 -0.00000000000E+00 -0.00000000000E+00 -0.22299877636E+04  0.22299877636E+04  0.00000000000E+00 0.  1.
        -24    2    1    2    0    0 -0.14967492127E+04 -0.12820656364E+04 -0.20757722123E+03  0.19833860242E+04  0.82348750217E+02 0.  0.
    5000000    2    1    2    0    0  0.14967492127E+04  0.12820656364E+04 -0.19930390397E+03  0.20697083777E+04  0.60001685070E+03 0.  0.
        -24    2    4    4    0    0  0.14965935238E+04  0.12474509274E+04 -0.25441171214E+03  0.19664568665E+04  0.79380707559E+02 0.  0.
         24    2    4    4    0    0  0.15568882840E+00  0.34614708969E+02  0.55107808167E+02  0.10325151121E+03  0.80161098609E+02 0.  0.
         11    1    5    5    0    0  0.33698679414E+03  0.26143197556E+03 -0.26298869945E+02  0.42731534939E+03  0.00000000000E+00 0. -1.
        -12    1    5    5    0    0  0.11596067297E+04  0.98601895185E+03 -0.22811284219E+03  0.15391415171E+04  0.00000000000E+00 0.  1.
         15    1    3    3    0    0 -0.30568429221E+03 -0.28284723092E+03 -0.73656743379E+02  0.42293488401E+03  0.17770000000E+01 0. -1.
        -16    1    3    3    0    0 -0.11910649205E+04 -0.99921840546E+03 -0.13392047785E+03  0.15604511402E+04  0.00000000000E+00 0.  1.
          4    1    6    6  502    0 -0.16178620945E+02  0.29191079208E+02  0.71860914740E+02  0.79232934745E+02  0.00000000000E+00 0. -1.
         -3    1    6    6    0  502  0.16334309773E+02  0.54236297610E+01 -0.16753106573E+02  0.24018576465E+02  0.00000000000E+00 0.  1.
<mgrwt>
<rscale>  0 0.19852001E+04</rscale>
<asrwt>0</asrwt>
<pdfrwt beam="1">  1        1 0.28047795E+00 0.19852001E+04</pdfrwt>
<pdfrwt beam="2">  1       -4 0.34307504E+00 0.19852001E+04</pdfrwt>
<totfact> 0.27469461E-02</totfact>
</mgrwt>
</event>
<event>
12    3  0.1176505E-007  0.7949479E+03  0.7818608E-02  0.9567359E-01
          3   -1    0    0  501    0  0.00000000000E+00  0.00000000000E+00  0.48315340981E+03  0.48315340981E+03  0.00000000000E+00 0. -1.
         -4   -1    0    0    0  501 -0.00000000000E+00 -0.00000000000E+00 -0.14917293598E+04  0.14917293598E+04  0.00000000000E+00 0.  1.
        -24    2    1    2    0    0  0.66095089363E+03  0.32585292574E+03 -0.52666720649E+03  0.90930404574E+03  0.80120460517E+02 0.  0.
    5000000    2    1    2    0    0 -0.66095089363E+03 -0.32585292574E+03 -0.48190874355E+03  0.10655787239E+04  0.60015478568E+03 0.  0.
        -24    2    4    4    0    0 -0.11221590313E+03 -0.27598304439E+03  0.28921196085E+02  0.30965619468E+03  0.79318809977E+02 0.  0.
         24    2    4    4    0    0 -0.54873499051E+03 -0.49869881353E+02 -0.51082993963E+03  0.75592252925E+03  0.82912894828E+02 0.  0.
         13    1    5    5    0    0 -0.85693564415E+01 -0.14452347302E+02  0.22732941000E+02  0.28268194475E+02  0.00000000000E+00 0. -1.
        -14    1    5    5    0    0 -0.10364654668E+03 -0.26153069708E+03  0.61882550843E+01  0.28138800020E+03  0.00000000000E+00 0.  1.
         15    1    3    3    0    0  0.22455337025E+03  0.14839194435E+03 -0.16906702061E+03  0.31785405523E+03  0.17770000000E+01 0. -1.
        -16    1    3    3    0    0  0.43639752338E+03  0.17746098139E+03 -0.35760018588E+03  0.59144999051E+03  0.00000000000E+00 0.  1.
          4    1    6    6  502    0 -0.46161091699E+03 -0.50686368035E+02 -0.38694366420E+03  0.60446600058E+03  0.00000000000E+00 0. -1.
         -3    1    6    6    0  502 -0.87124073514E+02  0.81648668147E+00 -0.12388627543E+03  0.15145652867E+03  0.00000000000E+00 0.  1.
<mgrwt>
<rscale>  0 0.79494795E+03</rscale>
<asrwt>0</asrwt>
<pdfrwt beam="1">  1        3 0.74331295E-01 0.79494795E+03</pdfrwt>
<pdfrwt beam="2">  1       -4 0.22949682E+00 0.79494795E+03</pdfrwt>
<totfact> 0.32988446E-01</totfact>
</mgrwt>
</event>
<event>
12    3  0.1176505E-007  0.1397247E+04  0.7818608E-02  0.8955814E-01
          1   -1    0    0  501    0  0.00000000000E+00  0.00000000000E+00  0.11113914325E+04  0.11113914325E+04  0.00000000000E+00 0. -1.
         -2   -1    0    0    0  501 -0.00000000000E+00 -0.00000000000E+00 -0.19239427845E+04  0.19239427845E+04  0.00000000000E+00 0.  1.
        -24    2    1    2    0    0  0.13561993303E+04 -0.15590267868E+03 -0.69531474940E+02  0.13692918362E+04  0.80890283482E+02 0.  0.
    5000000    2    1    2    0    0 -0.13561993303E+04  0.15590267868E+03 -0.74301987702E+03  0.16660423808E+04  0.60003033933E+03 0.  0.
        -24    2    4    4    0    0 -0.12697439288E+04  0.48756680862E+02 -0.48179004520E+03  0.13612976311E+04  0.79892016635E+02 0.  0.
         24    2    4    4    0    0 -0.86455401573E+02  0.10714599781E+03 -0.26122983182E+03  0.30474474965E+03  0.75322878999E+02 0.  0.
         13    1    5    5    0    0 -0.57986860081E+03 -0.12851404832E+01 -0.18545913331E+03  0.60880566350E+03  0.00000000000E+00 0. -1.
        -14    1    5    5    0    0 -0.68987532796E+03  0.50041821346E+02 -0.29633091190E+03  0.75249196764E+03  0.00000000000E+00 0.  1.
         15    1    3    3    0    0  0.77515357014E+03 -0.54707076166E+02 -0.18624919793E+02  0.77730686788E+03  0.17770000000E+01 0. -1.
        -16    1    3    3    0    0  0.58104576020E+03 -0.10119560251E+03 -0.50906555147E+02  0.59198496836E+03  0.00000000000E+00 0.  1.
          2    1    6    6  502    0  0.12830710985E+02  0.21006957648E+02 -0.30432186927E+02  0.39141249535E+02  0.00000000000E+00 0. -1.
         -1    1    6    6    0  502 -0.99286112558E+02  0.86139040166E+02 -0.23079764489E+03  0.26560350012E+03  0.00000000000E+00 0.  1.
<mgrwt>
<rscale>  0 0.13972468E+04</rscale>
<asrwt>0</asrwt>
<pdfrwt beam="1">  1        1 0.17098330E+00 0.13972468E+04</pdfrwt>
<pdfrwt beam="2">  1       -2 0.29599120E+00 0.13972468E+04</pdfrwt>
<totfact> 0.35091982E-01</totfact>
</mgrwt>
</event>
<event>
12    3  0.1176505E-007  0.4533314E+03  0.7818608E-02  0.1026733E+00
          3   -1    0    0  501    0  0.00000000000E+00  0.00000000000E+00  0.29270260127E+03  0.29270260127E+03  0.00000000000E+00 0. -1.
         -4   -1    0    0    0  501 -0.00000000000E+00 -0.00000000000E+00 -0.11500024672E+04  0.11500024672E+04  0.00000000000E+00 0.  1.
        -24    2    1    2    0    0 -0.38540219914E+02 -0.41134409861E+03 -0.41146097674E+03  0.58864925720E+03  0.80737207093E+02 0.  0.
    5000000    2    1    2    0    0  0.38540219914E+02  0.41134409861E+03 -0.44583888918E+03  0.85405581126E+03  0.59995807989E+03 0.  0.
        -24    2    4    4    0    0  0.92156160916E+02  0.37975952215E+03 -0.56971402338E+03  0.69547010808E+03  0.79965931103E+02 0.  0.
         24    2    4    4    0    0 -0.53615941001E+02  0.31584576454E+02  0.12387513420E+03  0.15858570318E+03  0.77020268621E+02 0.  0.
         13    1    5    5    0    0  0.36880158660E+02  0.11481768397E+03 -0.11700453941E+03  0.16802770277E+03  0.00000000000E+00 0. -1.
        -14    1    5    5    0    0  0.55276002256E+02  0.26494183818E+03 -0.45270948397E+03  0.52744240531E+03  0.00000000000E+00 0.  1.
         15    1    3    3    0    0 -0.11723454765E+02 -0.36030739229E+03 -0.32919159084E+03  0.48818963277E+03  0.17770000000E+01 0. -1.
        -16    1    3    3    0    0 -0.26816765150E+02 -0.51036706315E+02 -0.82269385893E+02  0.10045962443E+03  0.00000000000E+00 0.  1.
          2    1    6    6  502    0 -0.13377143935E+02  0.50901451832E+02  0.52048509860E+02  0.74019951075E+02  0.00000000000E+00 0. -1.
         -1    1    6    6    0  502 -0.40238797067E+02 -0.19316875378E+02  0.71826624343E+02  0.84565752100E+02  0.00000000000E+00 0.  1.
<mgrwt>
<rscale>  0 0.45333137E+03</rscale>
<asrwt>0</asrwt>
<pdfrwt beam="1">  1        3 0.45031170E-01 0.45333137E+03</pdfrwt>
<pdfrwt beam="2">  1       -4 0.17692345E+00 0.45333137E+03</pdfrwt>
<totfact> 0.21152789E+00</totfact>
</mgrwt>
</event>
<event>
12    3  0.1176505E-007  0.4423924E+03  0.7818608E-02  0.1030015E+00
          1   -1    0    0  501    0  0.00000000000E+00  0.00000000000E+00  0.58541983975E+03  0.58541983975E+03  0.00000000000E+00 0. -1.
         -2   -1    0    0    0  501 -0.00000000000E+00 -0.00000000000E+00 -0.53523769300E+03  0.53523769300E+03  0.00000000000E+00 0.  1.
        -24    2    1    2    0    0  0.20288993979E+03  0.30721886158E+03  0.15838824013E+03  0.40841511000E+03  0.78538594867E+02 0.  0.
    5000000    2    1    2    0    0 -0.20288993979E+03 -0.30721886158E+03 -0.10820609339E+03  0.71224242275E+03  0.60002746065E+03 0.  0.
        -24    2    4    4    0    0 -0.29082786214E+03 -0.17867174693E+03  0.16509150132E+03  0.38784547284E+03  0.81636195679E+02 0.  0.
         24    2    4    4    0    0  0.87937922347E+02 -0.12854711465E+03 -0.27329759471E+03  0.32439694991E+03  0.79273999288E+02 0.  0.
         13    1    5    5    0    0 -0.83553238218E+02 -0.26956735800E+02  0.11453218466E+02  0.88538045127E+02  0.00000000000E+00 0. -1.
        -14    1    5    5    0    0 -0.20727462392E+03 -0.15171501113E+03  0.15363828286E+03  0.29930742771E+03  0.00000000000E+00 0.  1.
         15    1    3    3    0    0  0.19570279777E+03  0.25261986218E+03  0.12029259110E+03  0.34145255165E+03  0.17770000000E+01 0. -1.
        -16    1    3    3    0    0  0.71871420222E+01  0.54598999404E+02  0.38095649033E+02  0.66962558356E+02  0.00000000000E+00 0.  1.
          2    1    6    6  502    0 -0.35938086028E+01 -0.32936615354E+02 -0.10608080147E+03  0.11113447949E+03  0.00000000000E+00 0. -1.
         -1    1    6    6    0  502  0.91531730950E+02 -0.95610499301E+02 -0.16721679324E+03  0.21326247042E+03  0.00000000000E+00 0.  1.
<mgrwt>
<rscale>  0 0.44239241E+03</rscale>
<asrwt>0</asrwt>
<pdfrwt beam="1">  1        1 0.90064591E-01 0.44239241E+03</pdfrwt>
<pdfrwt beam="2">  1       -2 0.82344260E-01 0.44239241E+03</pdfrwt>
<totfact> 0.42186360E+01</totfact>
</mgrwt>
</event>
<event>
12    3  0.1176505E-007  0.7125348E+03  0.7818608E-02  0.9696033E-01
          1   -1    0    0  501    0  0.00000000000E+00  0.00000000000E+00  0.27394023109E+03  0.27394023109E+03  0.00000000000E+00 0. -1.
         -2   -1    0    0    0  501 -0.00000000000E+00 -0.00000000000E+00 -0.20117493877E+04  0.20117493877E+04  0.00000000000E+00 0.  1.
        -24    2    1    2    0    0  0.37737148930E+03  0.48220446418E+03 -0.60045979669E+03  0.86145711774E+03  0.81400319740E+02 0.  0.
    5000000    2    1    2    0    0 -0.37737148930E+03 -0.48220446418E+03 -0.11373493599E+04  0.14242325011E+04  0.59995355182E+03 0.  0.
        -24    2    4    4    0    0  0.11382952268E+03 -0.20118674362E+03 -0.16041226446E+03  0.29228915965E+03  0.79168126259E+02 0.  0.
         24    2    4    4    0    0 -0.49120101198E+03 -0.28101772056E+03 -0.97693709549E+03  0.11319433414E+04  0.81487705926E+02 0.  0.
         13    1    5    5    0    0  0.12094586407E+03 -0.16337860596E+03 -0.14940228665E+03  0.25227269804E+03  0.00000000000E+00 0. -1.
        -14    1    5    5    0    0 -0.71163413802E+01 -0.37808137669E+02 -0.11009977805E+02  0.40016461611E+02  0.00000000000E+00 0.  1.
         15    1    3    3    0    0  0.22324963187E+03  0.33633321551E+03 -0.36171882964E+03  0.54203699084E+03  0.17770000000E+01 0. -1.
        -16    1    3    3    0    0  0.15412185743E+03  0.14587124867E+03 -0.23874096704E+03  0.31942012690E+03  0.00000000000E+00 0.  1.
          2    1    6    6  502    0 -0.26261106332E+03 -0.12632133963E+03 -0.57089726743E+03  0.64097218456E+03  0.00000000000E+00 0. -1.
         -1    1    6    6    0  502 -0.22858994866E+03 -0.15469638093E+03 -0.40603982806E+03  0.49097115686E+03  0.00000000000E+00 0.  1.
<mgrwt>
<rscale>  0 0.71253478E+03</rscale>
<asrwt>0</asrwt>
<pdfrwt beam="1">  1        1 0.42144651E-01 0.71253478E+03</pdfrwt>
<pdfrwt beam="2">  1       -2 0.30949990E+00 0.71253478E+03</pdfrwt>
<totfact> 0.25205232E+00</totfact>
</mgrwt>
</event>
<event>
12    3  0.1382870E-007  0.8723944E+03  0.7818608E-02  0.9460763E-01
          1   -1    0    0  501    0  0.00000000000E+00  0.00000000000E+00  0.14483949934E+04  0.14483949934E+04  0.00000000000E+00 0. -1.
         -2   -1    0    0    0  501 -0.00000000000E+00 -0.00000000000E+00 -0.91772379488E+03  0.91772379488E+03  0.00000000000E+00 0.  1.
        -24    2    1    2    0    0 -0.78021805490E+03 -0.36363639928E+03  0.90569520415E+03  0.12518679211E+04  0.76927530660E+02 0.  0.
    5000000    2    1    2    0    0  0.78021805490E+03  0.36363639928E+03 -0.37502400564E+03  0.11142508672E+04  0.59995028636E+03 0.  0.
        -24    2    4    4    0    0  0.39987639095E+03  0.10678074620E+03 -0.47976445963E+03  0.63776619966E+03  0.72584660263E+02 0.  0.
         24    2    4    4    0    0  0.38034166395E+03  0.25685565308E+03  0.10474045399E+03  0.47648466751E+03  0.73705276728E+02 0.  0.
         11    1    5    5    0    0  0.13288828745E+03  0.71064591976E+02 -0.16422556461E+03  0.22288900656E+03  0.00000000000E+00 0. -1.
        -12    1    5    5    0    0  0.26698810350E+03  0.35716154226E+02 -0.31553889502E+03  0.41487719310E+03  0.00000000000E+00 0.  1.
         15    1    3    3    0    0 -0.48964020918E+03 -0.18758296300E+03  0.53887288021E+03  0.75187900703E+03  0.17770000000E+01 0. -1.
        -16    1    3    3    0    0 -0.29057784572E+03 -0.17605343628E+03  0.36682232394E+03  0.49998891407E+03  0.00000000000E+00 0.  1.
          4    1    6    6  502    0  0.15746317010E+03  0.12990283214E+03  0.14772196375E+02  0.20466463671E+03  0.00000000000E+00 0. -1.
         -3    1    6    6    0  502  0.22287849385E+03  0.12695282095E+03  0.89968257611E+02  0.27182003080E+03  0.00000000000E+00 0.  1.
<mgrwt>
<rscale>  0 0.87239442E+03</rscale>
<asrwt>0</asrwt>
<pdfrwt beam="1">  1        1 0.22283000E+00 0.87239442E+03</pdfrwt>
<pdfrwt beam="2">  1       -2 0.14118828E+00 0.87239442E+03</pdfrwt>
<totfact> 0.22221963E+00</totfact>
</mgrwt>
</event>
<event>
12    3  0.1176505E-007  0.5121294E+03  0.7818608E-02  0.1010661E+00
          3   -1    0    0  501    0  0.00000000000E+00  0.00000000000E+00  0.10144475116E+04  0.10144475116E+04  0.00000000000E+00 0. -1.
         -4   -1    0    0    0  501 -0.00000000000E+00 -0.00000000000E+00 -0.36424507939E+03  0.36424507939E+03  0.00000000000E+00 0.  1.
        -24    2    1    2    0    0  0.41378333518E+03 -0.94547994777E+02  0.66053261894E+02  0.43986114684E+03  0.94651060788E+02 0.  0.
    5000000    2    1    2    0    0 -0.41378333518E+03  0.94547994777E+02  0.58414917035E+03  0.93883144419E+03  0.60001521280E+03 0.  0.
        -24    2    4    4    0    0 -0.23828356880E+03  0.24861133446E+03  0.59478030640E+03  0.69178982181E+03  0.78885295838E+02 0.  0.
         24    2    4    4    0    0 -0.17549976638E+03 -0.15406333968E+03 -0.10631136048E+02  0.24704162238E+03  0.79880294832E+02 0.  0.
         11    1    5    5    0    0 -0.22060808926E+03  0.24350268923E+03  0.52267390804E+03  0.61737306619E+03  0.00000000000E+00 0. -1.
        -12    1    5    5    0    0 -0.17675479543E+02  0.51086452276E+01  0.72106398360E+02  0.74416755624E+02  0.00000000000E+00 0.  1.
         15    1    3    3    0    0  0.88328817990E+02  0.14874163143E+02  0.30632424936E+02  0.94682226437E+02  0.17770000000E+01 0. -1.
        -16    1    3    3    0    0  0.32545451719E+03 -0.10942215792E+03  0.35420836958E+02  0.34517892041E+03  0.00000000000E+00 0.  1.
          2    1    6    6  502    0 -0.15967028965E+03 -0.10092613703E+03  0.65163236789E+01  0.18900568511E+03  0.00000000000E+00 0. -1.
         -1    1    6    6    0  502 -0.15829476731E+02 -0.53137202650E+02 -0.17147459727E+02  0.58035937265E+02  0.00000000000E+00 0.  1.
<mgrwt>
<rscale>  0 0.51212944E+03</rscale>
<asrwt>0</asrwt>
<pdfrwt beam="1">  1        3 0.15606885E+00 0.51212944E+03</pdfrwt>
<pdfrwt beam="2">  1       -4 0.56037705E-01 0.51212944E+03</pdfrwt>
<totfact> 0.20105417E+00</totfact>
</mgrwt>
</event>
<event>
12    3  0.1176505E-007  0.2859420E+04  0.7818608E-02  0.8285054E-01
          1   -1    0    0  501    0  0.00000000000E+00  0.00000000000E+00  0.24790927010E+04  0.24790927010E+04  0.00000000000E+00 0. -1.
         -2   -1    0    0    0  501 -0.00000000000E+00 -0.00000000000E+00 -0.38805338449E+04  0.38805338449E+04  0.00000000000E+00 0.  1.
        -24    2    1    2    0    0  0.15466075974E+04  0.23688127238E+04 -0.19222196557E+04  0.34212039833E+04  0.80246554991E+02 0.  0.
    5000000    2    1    2    0    0 -0.15466075974E+04 -0.23688127238E+04  0.52077851170E+03  0.29384225626E+04  0.59987341772E+03 0.  0.
        -24    2    4    4    0    0 -0.15694051437E+04 -0.22966485135E+04  0.51686010037E+03  0.28305317417E+04  0.84490694287E+02 0.  0.
         24    2    4    4    0    0  0.22797546286E+02 -0.72164210335E+02  0.39184113277E+01  0.10789082098E+03  0.76796314595E+02 0.  0.
         13    1    5    5    0    0 -0.11620158464E+03 -0.14657764322E+03  0.18082011560E+02  0.18792225229E+03  0.00000000000E+00 0. -1.
        -14    1    5    5    0    0 -0.14532035591E+04 -0.21500708703E+04  0.49877808881E+03  0.26426094894E+04  0.00000000000E+00 0.  1.
         15    1    3    3    0    0  0.26831128258E+03  0.41940537682E+03 -0.37525963241E+03  0.62346993826E+03  0.17770000000E+01 0. -1.
        -16    1    3    3    0    0  0.12782963149E+04  0.19494073470E+04 -0.15469600233E+04  0.27977340450E+04  0.00000000000E+00 0.  1.
          4    1    6    6  502    0  0.43254096954E+01  0.16509815984E+02  0.28732292124E+01  0.17307184605E+02  0.00000000000E+00 0. -1.
         -3    1    6    6    0  502  0.18472136591E+02 -0.88674026319E+02  0.10451821153E+01  0.90583636379E+02  0.00000000000E+00 0.  1.
<mgrwt>
<rscale>  0 0.28594204E+04</rscale>
<asrwt>0</asrwt>
<pdfrwt beam="1">  1        1 0.38139888E+00 0.28594204E+04</pdfrwt>
<pdfrwt beam="2">  1       -2 0.59700521E+00 0.28594204E+04</pdfrwt>
<totfact> 0.50635759E-04</totfact>
</mgrwt>
</event>
<event>
12    3  0.1176505E-007  0.8335953E+03  0.7818608E-02  0.9512623E-01
          1   -1    0    0  501    0  0.00000000000E+00  0.00000000000E+00  0.17889390138E+04  0.17889390138E+04  0.00000000000E+00 0. -1.
         -2   -1    0    0    0  501 -0.00000000000E+00 -0.00000000000E+00 -0.39182261998E+03  0.39182261998E+03  0.00000000000E+00 0.  1.
        -24    2    1    2    0    0 -0.49835522054E+03 -0.52804642054E+03  0.55961933426E+03  0.92013068574E+03  0.79219514446E+02 0.  0.
    5000000    2    1    2    0    0  0.49835522054E+03  0.52804642054E+03  0.83749705955E+03  0.12606309480E+04  0.60049822172E+03 0.  0.
        -24    2    4    4    0    0  0.59636761742E+02 -0.11751376134E+03  0.17564843039E+03  0.23398143804E+03  0.80801700425E+02 0.  0.
         24    2    4    4    0    0  0.43871845880E+03  0.64556018188E+03  0.66184862916E+03  0.10266495100E+04  0.82120484257E+02 0.  0.
         13    1    5    5    0    0 -0.43670875218E+01 -0.77730845763E+02  0.73710550992E+02  0.10721194506E+03  0.00000000000E+00 0. -1.
        -14    1    5    5    0    0  0.64003849264E+02 -0.39782915572E+02  0.10193787940E+03  0.12676949297E+03  0.00000000000E+00 0.  1.
         15    1    3    3    0    0 -0.47304081615E+03 -0.46976503095E+03  0.50512166847E+03  0.83641966484E+03  0.17770000000E+01 0. -1.
        -16    1    3    3    0    0 -0.25314404386E+02 -0.58281389593E+02  0.54497665789E+02  0.83711020892E+02  0.00000000000E+00 0.  1.
          4    1    6    6  502    0  0.22412847765E+03  0.39235373835E+03  0.35494780974E+03  0.57459810140E+03  0.00000000000E+00 0. -1.
         -1    1    6    6    0  502  0.21458998115E+03  0.25320644353E+03  0.30690081942E+03  0.45205140860E+03  0.00000000000E+00 0.  1.
<mgrwt>
<rscale>  0 0.83359531E+03</rscale>
<asrwt>0</asrwt>
<pdfrwt beam="1">  1        1 0.27522138E+00 0.83359531E+03</pdfrwt>
<pdfrwt beam="2">  1       -2 0.60280404E-01 0.83359531E+03</pdfrwt>
<totfact> 0.95740656E+00</totfact>
</mgrwt>
</event>
<event>
12    3  0.1176505E-007  0.1204863E+04  0.7818608E-02  0.9108611E-01
         -2   -1    0    0    0  501 -0.00000000000E+00  0.00000000000E+00  0.51416835716E+03  0.51416835716E+03  0.00000000000E+00 0.  1.
          1   -1    0    0  501    0  0.00000000000E+00 -0.00000000000E+00 -0.34229665465E+04  0.34229665465E+04  0.00000000000E+00 0. -1.
        -24    2    1    2    0    0  0.54854333074E+03  0.99212680931E+03 -0.57404124444E+03  0.12732511999E+04  0.80186508559E+02 0.  0.
    5000000    2    1    2    0    0 -0.54854333074E+03 -0.99212680931E+03 -0.23347569449E+04  0.26638837038E+04  0.59997583632E+03 0.  0.
        -24    2    4    4    0    0 -0.55950639535E+03 -0.42036917427E+03 -0.13398347943E+04  0.15137112077E+04  0.80041834688E+02 0.  0.
         24    2    4    4    0    0  0.10963064614E+02 -0.57175763505E+03 -0.99492215059E+03  0.11501724961E+04  0.77457749305E+02 0.  0.
         11    1    5    5    0    0 -0.28954443363E+03 -0.25393740382E+03 -0.67592218206E+03  0.77794021641E+03  0.00000000000E+00 0. -1.
        -12    1    5    5    0    0 -0.26996196172E+03 -0.16643177045E+03 -0.66391261222E+03  0.73577099131E+03  0.00000000000E+00 0.  1.
         15    1    3    3    0    0  0.29963222203E+03  0.60510526701E+03 -0.36904595076E+03  0.76949978827E+03  0.17770000000E+01 0. -1.
        -16    1    3    3    0    0  0.24891110870E+03  0.38702154230E+03 -0.20499529369E+03  0.50375141158E+03  0.00000000000E+00 0.  1.
          2    1    6    6  502    0  0.13825594326E+02 -0.31638564333E+03 -0.47466512794E+03  0.57061195750E+03  0.00000000000E+00 0. -1.
         -1    1    6    6    0  502 -0.28625297120E+01 -0.25537199172E+03 -0.52025702265E+03  0.57956053856E+03  0.00000000000E+00 0.  1.
<mgrwt>
<rscale>  0 0.12048627E+04</rscale>
<asrwt>0</asrwt>
<pdfrwt beam="1">  1        1 0.52661023E+00 0.12048627E+04</pdfrwt>
<pdfrwt beam="2">  1       -2 0.79102825E-01 0.12048627E+04</pdfrwt>
<totfact> 0.35790757E-01</totfact>
</mgrwt>
</event>
<event>
12    3  0.1176505E-007  0.1180918E+04  0.7818608E-02  0.9129725E-01
          3   -1    0    0  501    0  0.00000000000E+00  0.00000000000E+00  0.21318082552E+04  0.21318082552E+04  0.00000000000E+00 0. -1.
         -4   -1    0    0    0  501 -0.00000000000E+00 -0.00000000000E+00 -0.83596112009E+03  0.83596112009E+03  0.00000000000E+00 0.  1.
        -24    2    1    2    0    0 -0.46491099684E+03  0.10422341535E+04  0.12256336290E+04  0.16765427172E+04  0.78888682986E+02 0.  0.
    5000000    2    1    2    0    0  0.46491099684E+03 -0.10422341535E+04  0.70213506193E+02  0.12912266582E+04  0.59995173195E+03 0.  0.
        -24    2    4    4    0    0  0.53875205530E+03 -0.81112147546E+03  0.21240152402E+03  0.99939682203E+03  0.74214388309E+02 0.  0.
         24    2    4    4    0    0 -0.73841058464E+02 -0.23111267803E+03 -0.14218801782E+03  0.29182983616E+03  0.77984928015E+02 0.  0.
         11    1    5    5    0    0  0.18754549916E+03 -0.27778927367E+03  0.37297444528E+02  0.33724070660E+03  0.00000000000E+00 0. -1.
        -12    1    5    5    0    0  0.35120655615E+03 -0.53333220179E+03  0.17510407949E+03  0.66215611543E+03  0.00000000000E+00 0.  1.
         15    1    3    3    0    0 -0.34860302376E+03  0.85703687511E+03  0.98623706890E+03  0.13522954512E+04  0.17770000000E+01 0. -1.
        -16    1    3    3    0    0 -0.11630797308E+03  0.18519727838E+03  0.23939656006E+03  0.32424726597E+03  0.00000000000E+00 0.  1.
          4    1    6    6  502    0 -0.22911893131E+01 -0.40529538376E+02 -0.59671155614E+02  0.72170214367E+02  0.00000000000E+00 0. -1.
         -3    1    6    6    0  502 -0.71549869151E+02 -0.19058313966E+03 -0.82516862209E+02  0.21965962179E+03  0.00000000000E+00 0.  1.
<mgrwt>
<rscale>  0 0.11809180E+04</rscale>
<asrwt>0</asrwt>
<pdfrwt beam="1">  1        3 0.32797050E+00 0.11809180E+04</pdfrwt>
<pdfrwt beam="2">  1       -4 0.12860940E+00 0.11809180E+04</pdfrwt>
<totfact> 0.26414327E-02</totfact>
</mgrwt>
</event>
<event>
12    3  0.1176505E-007  0.8529040E+03  0.7818608E-02  0.9486448E-01
         -2   -1    0    0    0  501 -0.00000000000E+00  0.00000000000E+00  0.60263936899E+03  0.60263936899E+03  0.00000000000E+00 0.  1.
          1   -1    0    0  501    0  0.00000000000E+00 -0.00000000000E+00 -0.15098760330E+04  0.15098760330E+04  0.00000000000E+00 0. -1.
        -24    2    1    2    0    0  0.76601992218E+03  0.61040855696E+01 -0.83608588218E+03  0.11368175443E+04  0.80565163289E+02 0.  0.
    5000000    2    1    2    0    0 -0.76601992218E+03 -0.61040855696E+01 -0.71150781859E+02  0.97569785775E+03  0.60008340655E+03 0.  0.
        -24    2    4    4    0    0 -0.37006146203E+03  0.26316992403E+03  0.79212918508E+02  0.46775865066E+03  0.79495749704E+02 0.  0.
         24    2    4    4    0    0 -0.39595846015E+03 -0.26927400960E+03 -0.15036370037E+03  0.50793920708E+03  0.78111467099E+02 0.  0.
         11    1    5    5    0    0 -0.21106352869E+03  0.11119092283E+03  0.65462223050E+02  0.24737933849E+03  0.00000000000E+00 0. -1.
        -12    1    5    5    0    0 -0.15899793334E+03  0.15197900119E+03  0.13750695458E+02  0.22037931218E+03  0.00000000000E+00 0.  1.
         15    1    3    3    0    0  0.35897652694E+03 -0.20484691908E+02 -0.44016817339E+03  0.56836163496E+03  0.17770000000E+01 0. -1.
        -16    1    3    3    0    0  0.40704339524E+03  0.26588777477E+02 -0.39591770879E+03  0.56845590931E+03  0.00000000000E+00 0.  1.
          2    1    6    6  502    0 -0.28138568928E+03 -0.17423804380E+03 -0.68222467838E+02  0.33792174710E+03  0.00000000000E+00 0. -1.
         -1    1    6    6    0  502 -0.11457277087E+03 -0.95035965795E+02 -0.82141232530E+02  0.17001745999E+03  0.00000000000E+00 0.  1.
<mgrwt>
<rscale>  0 0.85290404E+03</rscale>
<asrwt>0</asrwt>
<pdfrwt beam="1">  1        1 0.23228862E+00 0.85290404E+03</pdfrwt>
<pdfrwt beam="2">  1       -2 0.92713750E-01 0.85290404E+03</pdfrwt>
<totfact> 0.56784894E+00</totfact>
</mgrwt>
</event>
<event>
12    3  0.1176505E-007  0.7370142E+03  0.7818608E-02  0.9655946E-01
         -2   -1    0    0    0  501 -0.00000000000E+00  0.00000000000E+00  0.61435251124E+03  0.61435251124E+03  0.00000000000E+00 0.  1.
          1   -1    0    0  501    0  0.00000000000E+00 -0.00000000000E+00 -0.10640867463E+04  0.10640867463E+04  0.00000000000E+00 0. -1.
        -24    2    1    2    0    0  0.65734333253E+03 -0.53126594491E+02  0.31276595748E+02  0.66510314558E+03  0.80382068581E+02 0.  0.
    5000000    2    1    2    0    0 -0.65734333253E+03  0.53126594491E+02 -0.48101083080E+03  0.10133361120E+04  0.60046312508E+03 0.  0.
        -24    2    4    4    0    0 -0.47276880171E+03 -0.18159822045E+03 -0.48239515968E+03  0.70427730967E+03  0.82542021287E+02 0.  0.
         24    2    4    4    0    0 -0.18457453082E+03  0.23472481495E+03  0.13843288866E+01  0.30905880229E+03  0.79699000787E+02 0.  0.
         13    1    5    5    0    0 -0.26247469259E+03 -0.86536752152E+02 -0.31574755046E+03  0.41961659803E+03  0.00000000000E+00 0. -1.
        -14    1    5    5    0    0 -0.21029410912E+03 -0.95061468303E+02 -0.16664760923E+03  0.28466071163E+03  0.00000000000E+00 0.  1.
         15    1    3    3    0    0  0.61847313232E+03 -0.56825958006E+02  0.47339578760E+02  0.62288233107E+03  0.17770000000E+01 0. -1.
        -16    1    3    3    0    0  0.38870200207E+02  0.36993635148E+01 -0.16062983013E+02  0.42220814509E+02  0.00000000000E+00 0.  1.
          2    1    6    6  502    0 -0.10454522198E+03  0.18509353817E+03 -0.16456687208E+02  0.21321384539E+03  0.00000000000E+00 0. -1.
         -1    1    6    6    0  502 -0.80029308838E+02  0.49631276773E+02  0.17841016095E+02  0.95844956897E+02  0.00000000000E+00 0.  1.
<mgrwt>
<rscale>  0 0.73701417E+03</rscale>
<asrwt>0</asrwt>
<pdfrwt beam="1">  1        1 0.16370565E+00 0.73701417E+03</pdfrwt>
<pdfrwt beam="2">  1       -2 0.94515771E-01 0.73701417E+03</pdfrwt>
<totfact> 0.11460458E+01</totfact>
</mgrwt>
</event>
<event>
12    3  0.1176505E-007  0.1137867E+04  0.7818608E-02  0.9169051E-01
          1   -1    0    0  501    0  0.00000000000E+00  0.00000000000E+00  0.82836349883E+03  0.82836349883E+03  0.00000000000E+00 0. -1.
         -2   -1    0    0    0  501 -0.00000000000E+00 -0.00000000000E+00 -0.26221765784E+04  0.26221765784E+04  0.00000000000E+00 0.  1.
        -24    2    1    2    0    0  0.20736411530E+02  0.10594447679E+04 -0.19520196869E+04  0.22224959838E+04  0.79084291296E+02 0.  0.
    5000000    2    1    2    0    0 -0.20736411530E+02 -0.10594447679E+04  0.15820660730E+03  0.12280440934E+04  0.60017476606E+03 0.  0.
        -24    2    4    4    0    0 -0.29666846474E+03 -0.55229632254E+03  0.39670608768E+02  0.63322377687E+03  0.79719436358E+02 0.  0.
         24    2    4    4    0    0  0.27593205321E+03 -0.50714844535E+03  0.11853599853E+03  0.59482031655E+03  0.80139768023E+02 0.  0.
         13    1    5    5    0    0 -0.21827527453E+03 -0.32813958686E+03  0.13778665204E+02  0.39434697355E+03  0.00000000000E+00 0. -1.
        -14    1    5    5    0    0 -0.78393190211E+02 -0.22415673568E+03  0.25891943564E+02  0.23887680332E+03  0.00000000000E+00 0.  1.
         15    1    3    3    0    0 -0.13267499229E+02  0.81584100010E+03 -0.15327216277E+04  0.17363787921E+04  0.17770000000E+01 0. -1.
        -16    1    3    3    0    0  0.34003910759E+02  0.24360376779E+03 -0.41929805925E+03  0.48611719176E+03  0.00000000000E+00 0.  1.
          2    1    6    6  502    0  0.22710876294E+03 -0.46597928683E+03  0.11421120379E+03  0.53081002725E+03  0.00000000000E+00 0. -1.
         -1    1    6    6    0  502  0.48823290272E+02 -0.41169158519E+02  0.43247947422E+01  0.64010289296E+02  0.00000000000E+00 0.  1.
<mgrwt>
<rscale>  0 0.11378667E+04</rscale>
<asrwt>0</asrwt>
<pdfrwt beam="1">  1        1 0.12744054E+00 0.11378667E+04</pdfrwt>
<pdfrwt beam="2">  1       -2 0.40341178E+00 0.11378667E+04</pdfrwt>
<totfact> 0.12906730E-01</totfact>
</mgrwt>
</event>
<event>
12    3  0.1176505E-007  0.1292813E+04  0.7818608E-02  0.9035284E-01
         -2   -1    0    0    0  501 -0.00000000000E+00  0.00000000000E+00  0.11016059790E+04  0.11016059790E+04  0.00000000000E+00 0.  1.
          1   -1    0    0  501    0  0.00000000000E+00 -0.00000000000E+00 -0.15812188508E+04  0.15812188508E+04  0.00000000000E+00 0. -1.
        -24    2    1    2    0    0 -0.11930857552E+04  0.37332725307E+03 -0.20946929487E+03  0.12700932472E+04  0.80203577029E+02 0.  0.
    5000000    2    1    2    0    0  0.11930857552E+04 -0.37332725307E+03 -0.27014357690E+03  0.14127315827E+04  0.60000509613E+03 0.  0.
        -24    2    4    4    0    0  0.98627764474E+03 -0.47556337817E+03 -0.75124634740E+02  0.11002329697E+04  0.77231843514E+02 0.  0.
         24    2    4    4    0    0  0.20680811049E+03  0.10223612510E+03 -0.19501894216E+03  0.31249861301E+03  0.80007346510E+02 0.  0.
         11    1    5    5    0    0  0.76654717370E+03 -0.33310430369E+03 -0.57258407131E+02  0.83775388500E+03  0.00000000000E+00 0. -1.
        -12    1    5    5    0    0  0.21973047105E+03 -0.14245907448E+03 -0.17866227609E+02  0.26247908469E+03  0.00000000000E+00 0.  1.
         15    1    3    3    0    0 -0.45170814151E+02  0.10937309498E+02  0.69750122921E+01  0.47030157512E+02  0.17770000000E+01 0. -1.
        -16    1    3    3    0    0 -0.11479149411E+04  0.36238994357E+03 -0.21644430716E+03  0.12230630897E+04  0.00000000000E+00 0.  1.
          4    1    6    6  502    0  0.18523216591E+03  0.68191431464E+02 -0.13118005185E+03  0.23700049075E+03  0.00000000000E+00 0. -1.
         -3    1    6    6    0  502  0.21575944577E+02  0.34044693638E+02 -0.63838890308E+02  0.75498122262E+02  0.00000000000E+00 0.  1.
<mgrwt>
<rscale>  0 0.12928127E+04</rscale>
<asrwt>0</asrwt>
<pdfrwt beam="1">  1        1 0.24326444E+00 0.12928127E+04</pdfrwt>
<pdfrwt beam="2">  1       -2 0.16947784E+00 0.12928127E+04</pdfrwt>
<totfact> 0.10459814E+00</totfact>
</mgrwt>
</event>
<event>
12    3  0.1176505E-007  0.4168936E+03  0.7818608E-02  0.1038082E+00
         -2   -1    0    0    0  501 -0.00000000000E+00  0.00000000000E+00  0.14217121688E+03  0.14217121688E+03  0.00000000000E+00 0.  1.
          1   -1    0    0  501    0  0.00000000000E+00 -0.00000000000E+00 -0.22986549893E+04  0.22986549893E+04  0.00000000000E+00 0. -1.
        -24    2    1    2    0    0  0.15468217900E+03 -0.20897455241E+03 -0.11184542941E+03  0.29414822994E+03  0.80105187348E+02 0.  0.
    5000000    2    1    2    0    0 -0.15468217900E+03  0.20897455241E+03 -0.20446383430E+04  0.21466779762E+04  0.60006952926E+03 0.  0.
        -24    2    4    4    0    0  0.16135369988E+03  0.17967308143E+03 -0.43429122519E+03  0.50341064258E+03  0.80597606233E+02 0.  0.
         24    2    4    4    0    0 -0.31603587888E+03  0.29301470977E+02 -0.16103471178E+04  0.16432673337E+04  0.79827545914E+02 0.  0.
         13    1    5    5    0    0  0.11951503336E+03  0.15681089910E+03 -0.39559605412E+03  0.44200649239E+03  0.00000000000E+00 0. -1.
        -14    1    5    5    0    0  0.41838666516E+02  0.22862182335E+02 -0.38695171065E+02  0.61404150191E+02  0.00000000000E+00 0.  1.
         15    1    3    3    0    0  0.12161042084E+03 -0.11403615710E+03 -0.42614429838E+02  0.17208279095E+03  0.17770000000E+01 0. -1.
        -16    1    3    3    0    0  0.33071758154E+02 -0.94938395312E+02 -0.69230999572E+02  0.12206543898E+03  0.00000000000E+00 0.  1.
          4    1    6    6  502    0 -0.64209871793E+02  0.27515255402E+02 -0.49076014237E+03  0.49570708514E+03  0.00000000000E+00 0. -1.
         -1    1    6    6    0  502 -0.25182600708E+03  0.17862155749E+01 -0.11195869754E+04  0.11475602485E+04  0.00000000000E+00 0.  1.
<mgrwt>
<rscale>  0 0.41689357E+03</rscale>
<asrwt>0</asrwt>
<pdfrwt beam="1">  1        1 0.35363921E+00 0.41689357E+03</pdfrwt>
<pdfrwt beam="2">  1       -2 0.21872496E-01 0.41689357E+03</pdfrwt>
<totfact> 0.32894944E+01</totfact>
</mgrwt>
</event>
<event>
12    3  0.1176505E-007  0.6766635E+03  0.7818608E-02  0.9757994E-01
          1   -1    0    0  501    0  0.00000000000E+00  0.00000000000E+00  0.14009003203E+04  0.14009003203E+04  0.00000000000E+00 0. -1.
         -2   -1    0    0    0  501 -0.00000000000E+00 -0.00000000000E+00 -0.35546127603E+03  0.35546127603E+03  0.00000000000E+00 0.  1.
        -24    2    1    2    0    0  0.52345037350E+03 -0.15554663566E+03  0.20813263934E+03  0.59049289110E+03  0.84661735733E+02 0.  0.
    5000000    2    1    2    0    0 -0.52345037350E+03  0.15554663566E+03  0.83730640488E+03  0.11658687052E+04  0.59997731014E+03 0.  0.
        -24    2    4    4    0    0 -0.31423081349E+03 -0.20685131560E+03  0.42441234661E+03  0.57259666568E+03  0.78820242806E+02 0.  0.
         24    2    4    4    0    0 -0.20921956001E+03  0.36239795126E+03  0.41289405828E+03  0.59327203951E+03  0.79906884146E+02 0.  0.
         11    1    5    5    0    0 -0.74511277820E+02 -0.79830215438E+02  0.86839772656E+02  0.13952039254E+03  0.00000000000E+00 0. -1.
        -12    1    5    5    0    0 -0.23971953567E+03 -0.12702110016E+03  0.33757257395E+03  0.43307627314E+03  0.00000000000E+00 0.  1.
         15    1    3    3    0    0  0.19960027991E+03 -0.43595617783E+02  0.11897310606E+03  0.23642886314E+03  0.17770000000E+01 0. -1.
        -16    1    3    3    0    0  0.32385009358E+03 -0.11195101788E+03  0.89159533284E+02  0.35406402796E+03  0.00000000000E+00 0.  1.
          4    1    6    6  502    0 -0.59328224475E+02  0.18142601295E+03  0.19293248892E+03  0.27140040839E+03  0.00000000000E+00 0. -1.
         -3    1    6    6    0  502 -0.14989133553E+03  0.18097193831E+03  0.21996156936E+03  0.32187163112E+03  0.00000000000E+00 0.  1.
<mgrwt>
<rscale>  0 0.67666355E+03</rscale>
<asrwt>0</asrwt>
<pdfrwt beam="1">  1        1 0.21552312E+00 0.67666355E+03</pdfrwt>
<pdfrwt beam="2">  1       -2 0.54686351E-01 0.67666355E+03</pdfrwt>
<totfact> 0.21985088E+01</totfact>
</mgrwt>
</event>
<event>
12    3  0.1176505E-007  0.4938291E+03  0.7818608E-02  0.1015402E+00
         -2   -1    0    0    0  501 -0.00000000000E+00  0.00000000000E+00  0.71563250208E+03  0.71563250208E+03  0.00000000000E+00 0.  1.
          1   -1    0    0  501    0  0.00000000000E+00 -0.00000000000E+00 -0.57231121144E+03  0.57231121144E+03  0.00000000000E+00 0. -1.
        -24    2    1    2    0    0  0.44173493498E+03 -0.19692789870E+03  0.16273475382E+03  0.51649023248E+03  0.79807330982E+02 0.  0.
    5000000    2    1    2    0    0 -0.44173493498E+03  0.19692789870E+03 -0.19413463173E+02  0.77145348103E+03  0.60071061317E+03 0.  0.
        -24    2    4    4    0    0 -0.35982303026E+03  0.16753089602E+03  0.25095033734E+03  0.47629607607E+03  0.79640856589E+02 0.  0.
         24    2    4    4    0    0 -0.81911904721E+02  0.29397002677E+02 -0.27036380052E+03  0.29515740496E+03  0.80296732015E+02 0.  0.
         11    1    5    5    0    0 -0.16518567339E+03  0.50723763811E+02  0.71803674175E+02  0.18712288618E+03  0.00000000000E+00 0. -1.
        -12    1    5    5    0    0 -0.19463735688E+03  0.11680713221E+03  0.17914666317E+03  0.28917318989E+03  0.00000000000E+00 0.  1.
         15    1    3    3    0    0  0.15912790238E+03 -0.88965250322E+02  0.24781565623E+02  0.18399399122E+03  0.17770000000E+01 0. -1.
        -16    1    3    3    0    0  0.28260703260E+03 -0.10796264838E+03  0.13795318819E+03  0.33249624126E+03  0.00000000000E+00 0.  1.
          2    1    6    6  502    0 -0.82075263177E+02  0.89398821104E+01 -0.25881648709E+03  0.27166568482E+03  0.00000000000E+00 0. -1.
         -1    1    6    6    0  502  0.16335845529E+00  0.20457120567E+02 -0.11547313423E+02  0.23491720141E+02  0.00000000000E+00 0.  1.
<mgrwt>
<rscale>  0 0.49382910E+03</rscale>
<asrwt>0</asrwt>
<pdfrwt beam="1">  1        1 0.88047879E-01 0.49382910E+03</pdfrwt>
<pdfrwt beam="2">  1       -2 0.11009731E+00 0.49382910E+03</pdfrwt>
<totfact> 0.22023692E+01</totfact>
</mgrwt>
</event>
<event>
12    3  0.1176505E-007  0.2475020E+03  0.7818608E-02  0.1114894E+00
          1   -1    0    0  501    0  0.00000000000E+00  0.00000000000E+00  0.59649130409E+03  0.59649130409E+03  0.00000000000E+00 0. -1.
         -2   -1    0    0    0  501 -0.00000000000E+00 -0.00000000000E+00 -0.23773484630E+03  0.23773484630E+03  0.00000000000E+00 0.  1.
        -24    2    1    2    0    0 -0.76938271700E+02 -0.82207566390E+02  0.35034856503E+02  0.14329833987E+03  0.81421074754E+02 0.  0.
    5000000    2    1    2    0    0  0.76938271700E+02  0.82207566390E+02  0.32372160129E+03  0.69092781053E+03  0.59992331393E+03 0.  0.
        -24    2    4    4    0    0  0.34389397005E+02  0.21759455302E+03  0.43424551475E+03  0.49333247301E+03  0.79232201266E+02 0.  0.
         24    2    4    4    0    0  0.42548874695E+02 -0.13538698663E+03 -0.11052391346E+03  0.19759533752E+03  0.81782266271E+02 0.  0.
         13    1    5    5    0    0  0.89126497679E+01 -0.28933101534E+01  0.38199460687E+02  0.39331989097E+02  0.00000000000E+00 0. -1.
        -14    1    5    5    0    0  0.25476747237E+02  0.22048786317E+03  0.39604605406E+03  0.45400048391E+03  0.00000000000E+00 0.  1.
         15    1    3    3    0    0 -0.37683171869E+02 -0.22514897497E+02  0.53773360631E+02  0.69438275425E+02  0.17770000000E+01 0. -1.
        -16    1    3    3    0    0 -0.39255099831E+02 -0.59692668893E+02 -0.18738504128E+02  0.73860064441E+02  0.00000000000E+00 0.  1.
          2    1    6    6  502    0  0.40334003291E+02 -0.56691893798E+02 -0.10590969654E+02  0.70377349212E+02  0.00000000000E+00 0. -1.
         -1    1    6    6    0  502  0.22148714032E+01 -0.78695092832E+02 -0.99932943808E+02  0.12721798831E+03  0.00000000000E+00 0.  1.
<mgrwt>
<rscale>  0 0.24750197E+03</rscale>
<asrwt>0</asrwt>
<pdfrwt beam="1">  1        1 0.91767892E-01 0.24750197E+03</pdfrwt>
<pdfrwt beam="2">  1       -2 0.36574592E-01 0.24750197E+03</pdfrwt>
<totfact> 0.22275397E+02</totfact>
</mgrwt>
</event>
<event>
12    3  0.1176505E-007  0.4208810E+03  0.7818608E-02  0.1036780E+00
          1   -1    0    0  501    0  0.00000000000E+00  0.00000000000E+00  0.12906567098E+04  0.12906567098E+04  0.00000000000E+00 0. -1.
         -2   -1    0    0    0  501 -0.00000000000E+00 -0.00000000000E+00 -0.15257666651E+03  0.15257666651E+03  0.00000000000E+00 0.  1.
        -24    2    1    2    0    0  0.71403025226E+02  0.21814751542E+03  0.26514855532E+03  0.35939736169E+03  0.78587382652E+02 0.  0.
    5000000    2    1    2    0    0 -0.71403025226E+02 -0.21814751542E+03  0.87293148794E+03  0.10838360146E+04  0.60000366113E+03 0.  0.
        -24    2    4    4    0    0 -0.22594208077E+02 -0.40648847456E+03  0.46234501791E+03  0.62266359263E+03  0.90574034917E+02 0.  0.
         24    2    4    4    0    0 -0.48808817149E+02  0.18834095915E+03  0.41058647003E+03  0.46117242195E+03  0.79019844828E+02 0.  0.
         11    1    5    5    0    0 -0.19475717360E+02 -0.36023961460E+03  0.35687152952E+03  0.50745361569E+03  0.00000000000E+00 0. -1.
        -12    1    5    5    0    0 -0.31184907168E+01 -0.46248859965E+02  0.10547348839E+03  0.11520997694E+03  0.00000000000E+00 0.  1.
         15    1    3    3    0    0  0.13696794681E+02  0.64597886081E+02  0.13393402182E+03  0.14933843778E+03  0.17770000000E+01 0. -1.
        -16    1    3    3    0    0  0.57706230546E+02  0.15354962933E+03  0.13121453350E+03  0.21005892391E+03  0.00000000000E+00 0.  1.
          4    1    6    6  502    0  0.88530964869E+01  0.90866474370E+02  0.13249119096E+03  0.16090061891E+03  0.00000000000E+00 0. -1.
         -3    1    6    6    0  502 -0.57661913636E+02  0.97474484778E+02  0.27809527906E+03  0.30027180305E+03  0.00000000000E+00 0.  1.
<mgrwt>
<rscale>  0 0.42088097E+03</rscale>
<asrwt>0</asrwt>
<pdfrwt beam="1">  1        1 0.19856256E+00 0.42088097E+03</pdfrwt>
<pdfrwt beam="2">  1       -2 0.23473334E-01 0.42088097E+03</pdfrwt>
<totfact> 0.13622506E+02</totfact>
</mgrwt>
</event>
<event>
12    3  0.1176505E-007  0.5364148E+03  0.7818608E-02  0.1004688E+00
          1   -1    0    0  501    0  0.00000000000E+00  0.00000000000E+00  0.11218169514E+04  0.11218169514E+04  0.00000000000E+00 0. -1.
         -2   -1    0    0    0  501 -0.00000000000E+00 -0.00000000000E+00 -0.27808738426E+03  0.27808738426E+03  0.00000000000E+00 0.  1.
        -24    2    1    2    0    0  0.16028820711E+03  0.35191097182E+03  0.22077536439E+03  0.45242197588E+03  0.80063982593E+02 0.  0.
    5000000    2    1    2    0    0 -0.16028820711E+03 -0.35191097182E+03  0.62295420274E+03  0.94748235978E+03  0.60009769367E+03 0.  0.
        -24    2    4    4    0    0  0.11504860704E+03 -0.37465109573E+03  0.23480453969E+03  0.46450037473E+03  0.83831979278E+02 0.  0.
         24    2    4    4    0    0 -0.27533681415E+03  0.22740123908E+02  0.38814966305E+03  0.48298198505E+03  0.79271448137E+02 0.  0.
         13    1    5    5    0    0  0.12013942629E+03 -0.27042163981E+03  0.18385158133E+03  0.34837156742E+03  0.00000000000E+00 0. -1.
        -14    1    5    5    0    0 -0.50908192481E+01 -0.10422945592E+03  0.50952958361E+02  0.11612880731E+03  0.00000000000E+00 0.  1.
         15    1    3    3    0    0  0.15722490077E+03  0.32961853123E+03  0.22579720156E+03  0.42936648625E+03  0.17770000000E+01 0. -1.
        -16    1    3    3    0    0  0.30633063427E+01  0.22292440599E+02 -0.50218371751E+01  0.23055489633E+02  0.00000000000E+00 0.  1.
          4    1    6    6  502    0 -0.11864237145E+03  0.44407131489E+02  0.20493174523E+03  0.24092535325E+03  0.00000000000E+00 0. -1.
         -3    1    6    6    0  502 -0.15669444270E+03 -0.21667007582E+02  0.18321791782E+03  0.24205663180E+03  0.00000000000E+00 0.  1.
<mgrwt>
<rscale>  0 0.53641480E+03</rscale>
<asrwt>0</asrwt>
<pdfrwt beam="1">  1        1 0.17258722E+00 0.53641480E+03</pdfrwt>
<pdfrwt beam="2">  1       -2 0.42782675E-01 0.53641480E+03</pdfrwt>
<totfact> 0.57945010E+01</totfact>
</mgrwt>
</event>
<event>
12    3  0.1176505E-007  0.9073964E+03  0.7818608E-02  0.9416382E-01
          1   -1    0    0  501    0  0.00000000000E+00  0.00000000000E+00  0.70405119393E+03  0.70405119393E+03  0.00000000000E+00 0. -1.
         -2   -1    0    0    0  501 -0.00000000000E+00 -0.00000000000E+00 -0.13514753144E+04  0.13514753144E+04  0.00000000000E+00 0.  1.
        -24    2    1    2    0    0 -0.39827046859E+03 -0.71272284902E+03 -0.64267855281E+03  0.10420991439E+04  0.79634651601E+02 0.  0.
    5000000    2    1    2    0    0  0.39827046859E+03  0.71272284902E+03 -0.47455677068E+01  0.10134273645E+04  0.60034929587E+03 0.  0.
        -24    2    4    4    0    0  0.57010381036E+02 -0.92613366706E+02  0.11944214585E+01  0.13519947405E+03  0.80312215157E+02 0.  0.
         24    2    4    4    0    0  0.34126008756E+03  0.80533621572E+03 -0.59399891652E+01  0.87822789045E+03  0.78892815767E+02 0.  0.
         13    1    5    5    0    0  0.57667413901E+02 -0.54640031588E+02  0.32645700325E+02  0.85888331150E+02  0.00000000000E+00 0. -1.
        -14    1    5    5    0    0 -0.65703286524E+00 -0.37973335118E+02 -0.31451278867E+02  0.49311142904E+02  0.00000000000E+00 0.  1.
         15    1    3    3    0    0 -0.34999959957E+03 -0.57352010764E+03 -0.50573006195E+03  0.84094654221E+03  0.17770000000E+01 0. -1.
        -16    1    3    3    0    0 -0.48270869023E+02 -0.13920274138E+03 -0.13694849086E+03  0.20115260165E+03  0.00000000000E+00 0.  1.
          4    1    6    6  502    0  0.26758682884E+03  0.53830099673E+03 -0.86261535327E+01  0.60120303107E+03  0.00000000000E+00 0. -1.
         -3    1    6    6    0  502  0.73673258715E+02  0.26703521900E+03  0.26861643674E+01  0.27702485938E+03  0.00000000000E+00 0.  1.
<mgrwt>
<rscale>  0 0.90739642E+03</rscale>
<asrwt>0</asrwt>
<pdfrwt beam="1">  1        1 0.10831557E+00 0.90739642E+03</pdfrwt>
<pdfrwt beam="2">  1       -2 0.20791928E+00 0.90739642E+03</pdfrwt>
<totfact> 0.28169202E+00</totfact>
</mgrwt>
</event>
<event>
12    3  0.1176505E-007  0.8651984E+03  0.7818608E-02  0.9470162E-01
         -2   -1    0    0    0  501 -0.00000000000E+00  0.00000000000E+00  0.65098481855E+03  0.65098481855E+03  0.00000000000E+00 0.  1.
          1   -1    0    0  501    0  0.00000000000E+00 -0.00000000000E+00 -0.11832547755E+04  0.11832547755E+04  0.00000000000E+00 0. -1.
        -24    2    1    2    0    0  0.76917486330E+03 -0.56475997024E+02 -0.18095134035E+03  0.79584904347E+03  0.76241746049E+02 0.  0.
    5000000    2    1    2    0    0 -0.76917486330E+03  0.56475997024E+02 -0.35131861663E+03  0.10383905506E+04  0.60000888047E+03 0.  0.
        -24    2    4    4    0    0 -0.72964723008E+03  0.22451852144E+03 -0.19499639065E+03  0.79200131271E+03  0.80304670767E+02 0.  0.
         24    2    4    4    0    0 -0.39527633229E+02 -0.16804252442E+03 -0.15632222598E+03  0.24638923790E+03  0.80438140324E+02 0.  0.
         13    1    5    5    0    0 -0.55368861304E+02 -0.43778704895E+01 -0.13127746038E+02  0.57072009498E+02  0.00000000000E+00 0. -1.
        -14    1    5    5    0    0 -0.67427836877E+03  0.22889639193E+03 -0.18186864461E+03  0.73492930321E+03  0.00000000000E+00 0.  1.
         15    1    3    3    0    0  0.25651073295E+03  0.13553849825E+01 -0.29790163978E+02  0.25824446710E+03  0.17770000000E+01 0. -1.
        -16    1    3    3    0    0  0.51266413035E+03 -0.57831382006E+02 -0.15116117638E+03  0.53760457637E+03  0.00000000000E+00 0.  1.
          4    1    6    6  502    0  0.67877802160E+01  0.67206375029E+01 -0.61614024130E+01  0.11366785315E+02  0.00000000000E+00 0. -1.
         -3    1    6    6    0  502 -0.46315413445E+02 -0.17476316192E+03 -0.15016082357E+03  0.23502245259E+03  0.00000000000E+00 0.  1.
<mgrwt>
<rscale>  0 0.86519845E+03</rscale>
<asrwt>0</asrwt>
<pdfrwt beam="1">  1        1 0.18203920E+00 0.86519845E+03</pdfrwt>
<pdfrwt beam="2">  1       -2 0.10015151E+00 0.86519845E+03</pdfrwt>
<totfact> 0.80376036E+00</totfact>
</mgrwt>
</event>
<event>
12    3  0.1176505E-007  0.5500724E+03  0.7818608E-02  0.1001477E+00
          1   -1    0    0  501    0  0.00000000000E+00  0.00000000000E+00  0.90337699369E+03  0.90337699369E+03  0.00000000000E+00 0. -1.
         -2   -1    0    0    0  501 -0.00000000000E+00 -0.00000000000E+00 -0.34740334451E+03  0.34740334451E+03  0.00000000000E+00 0.  1.
        -24    2    1    2    0    0 -0.21894100042E+03  0.32681278911E+03  0.16494258085E+03  0.43383977964E+03  0.79177892272E+02 0.  0.
    5000000    2    1    2    0    0  0.21894100042E+03 -0.32681278911E+03  0.39103106832E+03  0.81694055856E+03  0.59978731151E+03 0.  0.
        -24    2    4    4    0    0 -0.18884658096E+03 -0.29319672838E+02  0.11706362862E+03  0.23767488775E+03  0.79137758140E+02 0.  0.
         24    2    4    4    0    0  0.40778758139E+03 -0.29749311627E+03  0.27396743970E+03  0.57926567082E+03  0.75483068355E+02 0.  0.
         11    1    5    5    0    0 -0.15439244114E+03 -0.14531074970E+02  0.53812786662E+02  0.16414625805E+03  0.00000000000E+00 0. -1.
        -12    1    5    5    0    0 -0.34454139819E+02 -0.14788597868E+02  0.63250841955E+02  0.73528629700E+02  0.00000000000E+00 0.  1.
         15    1    3    3    0    0 -0.91563646274E+02  0.18720187119E+03  0.56396999954E+02  0.21589863647E+03  0.17770000000E+01 0. -1.
        -16    1    3    3    0    0 -0.12737735415E+03  0.13961091792E+03  0.10854558090E+03  0.21794114317E+03  0.00000000000E+00 0.  1.
          2    1    6    6  502    0  0.27872582286E+03 -0.15903752042E+03  0.16453790204E+03  0.36062964166E+03  0.00000000000E+00 0. -1.
         -1    1    6    6    0  502  0.12906175852E+03 -0.13845559584E+03  0.10942953766E+03  0.21863602916E+03  0.00000000000E+00 0.  1.
<mgrwt>
<rscale>  0 0.55007245E+03</rscale>
<asrwt>0</asrwt>
<pdfrwt beam="1">  1        1 0.13898107E+00 0.55007245E+03</pdfrwt>
<pdfrwt beam="2">  1       -2 0.53446669E-01 0.55007245E+03</pdfrwt>
<totfact> 0.54383112E+01</totfact>
</mgrwt>
</event>
<event>
12    3  0.1176505E-007  0.5140460E+03  0.7818608E-02  0.1010176E+00
         -4   -1    0    0    0  501 -0.00000000000E+00  0.00000000000E+00  0.34410894792E+03  0.34410894792E+03  0.00000000000E+00 0.  1.
          3   -1    0    0  501    0  0.00000000000E+00 -0.00000000000E+00 -0.13467616138E+04  0.13467616138E+04  0.00000000000E+00 0. -1.
        -24    2    1    2    0    0  0.37528797974E+03  0.26593344557E+03 -0.76882631712E+03  0.89945785351E+03  0.79805132278E+02 0.  0.
    5000000    2    1    2    0    0 -0.37528797974E+03 -0.26593344557E+03 -0.23382634880E+03  0.79141270824E+03  0.60008136795E+03 0.  0.
        -24    2    4    4    0    0 -0.12394382572E+03  0.66698097285E+02 -0.31964930850E+03  0.35820377814E+03  0.79520803169E+02 0.  0.
         24    2    4    4    0    0 -0.25134415402E+03 -0.33263154286E+03  0.85822959692E+02  0.43320893010E+03  0.80540484509E+02 0.  0.
         13    1    5    5    0    0 -0.75700547303E+02  0.32470429090E+02 -0.26559131743E+03  0.27807130295E+03  0.00000000000E+00 0. -1.
        -14    1    5    5    0    0 -0.48243278421E+02  0.34227668195E+02 -0.54057991061E+02  0.80132475193E+02  0.00000000000E+00 0.  1.
         15    1    3    3    0    0  0.11008331054E+03  0.49604964165E+02 -0.25412398248E+03  0.28135590260E+03  0.17770000000E+01 0. -1.
        -16    1    3    3    0    0  0.26520466920E+03  0.21632848141E+03 -0.51470233463E+03  0.61810195091E+03  0.00000000000E+00 0.  1.
          4    1    6    6  502    0 -0.18576935349E+03 -0.29305869489E+03  0.81931601501E+02  0.35651989941E+03  0.00000000000E+00 0. -1.
         -3    1    6    6    0  502 -0.65574800525E+02 -0.39572847967E+02  0.38913581914E+01  0.76689030693E+02  0.00000000000E+00 0.  1.
<mgrwt>
<rscale>  0 0.51404596E+03</rscale>
<asrwt>0</asrwt>
<pdfrwt beam="1">  1        3 0.20719409E+00 0.51404596E+03</pdfrwt>
<pdfrwt beam="2">  1       -4 0.52939838E-01 0.51404596E+03</pdfrwt>
<totfact> 0.10425774E+00</totfact>
</mgrwt>
</event>
<event>
12    3  0.1176505E-007  0.8909924E+03  0.7818608E-02  0.9436912E-01
         -2   -1    0    0    0  501 -0.00000000000E+00  0.00000000000E+00  0.51454407163E+03  0.51454407163E+03  0.00000000000E+00 0.  1.
          1   -1    0    0  501    0  0.00000000000E+00 -0.00000000000E+00 -0.15641373104E+04  0.15641373104E+04  0.00000000000E+00 0. -1.
        -24    2    1    2    0    0 -0.78449291271E+03 -0.13010247711E+03 -0.43627583043E+03  0.90883920519E+03  0.57413552671E+02 0.  0.
    5000000    2    1    2    0    0  0.78449291271E+03  0.13010247711E+03 -0.61331740835E+03  0.11698421768E+04  0.60001390875E+03 0.  0.
        -24    2    4    4    0    0  0.61623989971E+03 -0.16699572906E+03 -0.36854054635E+03  0.74181511119E+03  0.82633754378E+02 0.  0.
         24    2    4    4    0    0  0.16825301300E+03  0.29709820617E+03 -0.24477686200E+03  0.42802706566E+03  0.81945324884E+02 0.  0.
         13    1    5    5    0    0  0.61112420841E+03 -0.17086930709E+03 -0.35568782177E+03  0.72744961665E+03  0.00000000000E+00 0. -1.
        -14    1    5    5    0    0  0.51156913039E+01  0.38735780280E+01 -0.12852724579E+02  0.14365494539E+02  0.00000000000E+00 0.  1.
         15    1    3    3    0    0 -0.32731260283E+03 -0.35784288701E+02 -0.15599179286E+03  0.36434962942E+03  0.17770000000E+01 0. -1.
        -16    1    3    3    0    0 -0.45718030988E+03 -0.94318188409E+02 -0.28028403756E+03  0.54448957577E+03  0.00000000000E+00 0.  1.
          2    1    6    6  502    0  0.16982447690E+03  0.27799936306E+03 -0.20785828002E+03  0.38643118842E+03  0.00000000000E+00 0. -1.
         -1    1    6    6    0  502 -0.15714639003E+01  0.19098843113E+02 -0.36918581986E+02  0.41595877234E+02  0.00000000000E+00 0.  1.
<mgrwt>
<rscale>  0 0.89099241E+03</rscale>
<asrwt>0</asrwt>
<pdfrwt beam="1">  1        1 0.24063651E+00 0.89099241E+03</pdfrwt>
<pdfrwt beam="2">  1       -2 0.79160627E-01 0.89099241E+03</pdfrwt>
<totfact> 0.74479949E+00</totfact>
</mgrwt>
</event>
<event>
12    3  0.1176505E-007  0.9580681E+03  0.7818608E-02  0.9355770E-01
          1   -1    0    0  501    0  0.00000000000E+00  0.00000000000E+00  0.76692939011E+03  0.76692939011E+03  0.00000000000E+00 0. -1.
         -2   -1    0    0    0  501 -0.00000000000E+00 -0.00000000000E+00 -0.14217568284E+04  0.14217568284E+04  0.00000000000E+00 0.  1.
        -24    2    1    2    0    0 -0.73609628401E+02  0.87325115107E+03  0.10047636420E+03  0.88542345538E+03  0.76767475828E+02 0.  0.
    5000000    2    1    2    0    0  0.73609628401E+02 -0.87325115107E+03 -0.75530380253E+03  0.13032627632E+04  0.60002003760E+03 0.  0.
        -24    2    4    4    0    0  0.30018434995E+03 -0.35681339650E+03 -0.22020062849E+03  0.52181219027E+03  0.79832332096E+02 0.  0.
         24    2    4    4    0    0 -0.22657472155E+03 -0.51643775456E+03 -0.53510317404E+03  0.78145057290E+03  0.79281348637E+02 0.  0.
         13    1    5    5    0    0  0.93136289466E+02 -0.65896246312E+02 -0.33681398750E+02  0.11895848148E+03  0.00000000000E+00 0. -1.
        -14    1    5    5    0    0  0.20704806048E+03 -0.29091715019E+03 -0.18651922974E+03  0.40285370879E+03  0.00000000000E+00 0.  1.
         15    1    3    3    0    0 -0.36220736838E+02  0.14894459586E+03  0.51758410247E+00  0.15329664065E+03  0.17770000000E+01 0. -1.
        -16    1    3    3    0    0 -0.37388891563E+02  0.72430655521E+03  0.99958780094E+02  0.73212681473E+03  0.00000000000E+00 0.  1.
          4    1    6    6  502    0 -0.16687001723E+02 -0.13620932006E+02 -0.69847459506E+01  0.22644480369E+02  0.00000000000E+00 0. -1.
         -3    1    6    6    0  502 -0.20988771982E+03 -0.50281682256E+03 -0.52811842809E+03  0.75880609253E+03  0.00000000000E+00 0.  1.
<mgrwt>
<rscale>  0 0.95806813E+03</rscale>
<asrwt>0</asrwt>
<pdfrwt beam="1">  1        1 0.11798914E+00 0.95806813E+03</pdfrwt>
<pdfrwt beam="2">  1       -2 0.21873182E+00 0.95806813E+03</pdfrwt>
<totfact> 0.20932446E+00</totfact>
</mgrwt>
</event>
<event>
12    3  0.1176505E-007  0.3447613E+03  0.7818608E-02  0.1064786E+00
         -2   -1    0    0    0  501 -0.00000000000E+00  0.00000000000E+00  0.37054788587E+03  0.37054788587E+03  0.00000000000E+00 0.  1.
          1   -1    0    0  501    0  0.00000000000E+00 -0.00000000000E+00 -0.58766451376E+03  0.58766451376E+03  0.00000000000E+00 0. -1.
        -24    2    1    2    0    0 -0.25224341461E+03  0.13718396957E+01  0.20677383310E+02  0.26526956022E+03  0.79446606247E+02 0.  0.
    5000000    2    1    2    0    0  0.25224341461E+03 -0.13718396957E+01 -0.23779401120E+03  0.69294283940E+03  0.59999597062E+03 0.  0.
        -24    2    4    4    0    0  0.16602322898E+03 -0.16480201500E+03  0.12567382496E+03  0.27741559887E+03  0.80262615884E+02 0.  0.
         24    2    4    4    0    0  0.86220185625E+02  0.16343017530E+03 -0.36346783616E+03  0.41552724053E+03  0.80066704041E+02 0.  0.
         11    1    5    5    0    0  0.14647590727E+03 -0.97915980111E+02  0.76234604586E+02  0.19197511690E+03  0.00000000000E+00 0. -1.
        -12    1    5    5    0    0  0.19547321714E+02 -0.66886034889E+02  0.49439220369E+02  0.85440481974E+02  0.00000000000E+00 0.  1.
         15    1    3    3    0    0 -0.12507131445E+03  0.29728983014E+02  0.37419451241E+02  0.13390302159E+03  0.17770000000E+01 0. -1.
        -16    1    3    3    0    0 -0.12717210015E+03 -0.28357143318E+02 -0.16742067932E+02  0.13136653864E+03  0.00000000000E+00 0.  1.
          2    1    6    6  502    0  0.15846129423E+02  0.28774639273E+02 -0.16519812978E+02  0.36769333742E+02  0.00000000000E+00 0. -1.
         -1    1    6    6    0  502  0.70374056202E+02  0.13465553603E+03 -0.34694802318E+03  0.37875790679E+03  0.00000000000E+00 0.  1.
<mgrwt>
<rscale>  0 0.34476126E+03</rscale>
<asrwt>0</asrwt>
<pdfrwt beam="1">  1        1 0.90409925E-01 0.34476126E+03</pdfrwt>
<pdfrwt beam="2">  1       -2 0.57007367E-01 0.34476126E+03</pdfrwt>
<totfact> 0.93749830E+01</totfact>
</mgrwt>
</event>
<event>
12    3  0.1176505E-007  0.8845564E+03  0.7818608E-02  0.9445095E-01
         -2   -1    0    0    0  501 -0.00000000000E+00  0.00000000000E+00  0.89183510842E+03  0.89183510842E+03  0.00000000000E+00 0.  1.
          1   -1    0    0  501    0  0.00000000000E+00 -0.00000000000E+00 -0.15658819167E+04  0.15658819167E+04  0.00000000000E+00 0. -1.
        -24    2    1    2    0    0  0.31632153956E+03 -0.75337161751E+03  0.45637778860E+03  0.93933072937E+03  0.80208620136E+02 0.  0.
    5000000    2    1    2    0    0 -0.31632153956E+03  0.75337161751E+03 -0.11304245969E+04  0.15183862958E+04  0.60000755282E+03 0.  0.
        -24    2    4    4    0    0  0.11467147493E+03  0.23777864788E+03 -0.11670033451E+03  0.29944966693E+03  0.79767802998E+02 0.  0.
         24    2    4    4    0    0 -0.43099301449E+03  0.51559296963E+03 -0.10137242624E+04  0.12189366288E+04  0.81108175430E+02 0.  0.
         13    1    5    5    0    0  0.89489075360E+02  0.23333656886E+03 -0.10978652908E+03  0.27296031020E+03  0.00000000000E+00 0. -1.
        -14    1    5    5    0    0  0.25182399570E+02  0.44420790193E+01 -0.69138054313E+01  0.26489356724E+02  0.00000000000E+00 0.  1.
         15    1    3    3    0    0  0.16619739617E+03 -0.47482576803E+03  0.30771736586E+03  0.58972385017E+03  0.17770000000E+01 0. -1.
        -16    1    3    3    0    0  0.15012414339E+03 -0.27854584948E+03  0.14866042273E+03  0.34960687919E+03  0.00000000000E+00 0.  1.
          2    1    6    6  502    0 -0.23428688648E+03  0.32131407097E+03 -0.65122876731E+03  0.76304127330E+03  0.00000000000E+00 0. -1.
         -1    1    6    6    0  502 -0.19670612802E+03  0.19427889866E+03 -0.36249549505E+03  0.45589535553E+03  0.00000000000E+00 0.  1.
<mgrwt>
<rscale>  0 0.88455643E+03</rscale>
<asrwt>0</asrwt>
<pdfrwt beam="1">  1        1 0.24090491E+00 0.88455643E+03</pdfrwt>
<pdfrwt beam="2">  1       -2 0.13720540E+00 0.88455643E+03</pdfrwt>
<totfact> 0.19840448E+00</totfact>
</mgrwt>
</event>
<event>
12    3  0.1176505E-007  0.4782303E+03  0.7818608E-02  0.1019623E+00
          1   -1    0    0  501    0  0.00000000000E+00  0.00000000000E+00  0.58157632440E+03  0.58157632440E+03  0.00000000000E+00 0. -1.
         -2   -1    0    0    0  501 -0.00000000000E+00 -0.00000000000E+00 -0.55584947974E+03  0.55584947974E+03  0.00000000000E+00 0.  1.
        -24    2    1    2    0    0 -0.31099740854E+03 -0.22050518095E+03 -0.12894314359E+03  0.41002199292E+03  0.78420516791E+02 0.  0.
    5000000    2    1    2    0    0  0.31099740854E+03  0.22050518095E+03  0.15466998825E+03  0.72740381122E+03  0.59987630089E+03 0.  0.
        -24    2    4    4    0    0  0.40033189855E+03  0.13896358215E+03  0.29772004918E+03  0.52397591121E+03  0.79605412445E+02 0.  0.
         24    2    4    4    0    0 -0.89334490010E+02  0.81541598801E+02 -0.14305006093E+03  0.20342790001E+03  0.79308934737E+02 0.  0.
         13    1    5    5    0    0  0.13321232886E+03  0.86227020221E+02  0.11768533131E+03  0.19756128361E+03  0.00000000000E+00 0. -1.
        -14    1    5    5    0    0  0.26711956969E+03  0.52736561925E+02  0.18003471786E+03  0.32641462760E+03  0.00000000000E+00 0.  1.
         15    1    3    3    0    0 -0.22734918532E+03 -0.11768827537E+03 -0.73542035956E+02  0.26636398219E+03  0.17770000000E+01 0. -1.
        -16    1    3    3    0    0 -0.83648223226E+02 -0.10281690558E+03 -0.55401107630E+02  0.14365801073E+03  0.00000000000E+00 0.  1.
          2    1    6    6  502    0  0.46441536459E+01  0.28812378735E+02 -0.72580134883E+01  0.30073245439E+02  0.00000000000E+00 0. -1.
         -1    1    6    6    0  502 -0.93978643656E+02  0.52729220066E+02 -0.13579204744E+03  0.17335465457E+03  0.00000000000E+00 0.  1.
<mgrwt>
<rscale>  0 0.47823030E+03</rscale>
<asrwt>0</asrwt>
<pdfrwt beam="1">  1        1 0.89473281E-01 0.47823030E+03</pdfrwt>
<pdfrwt beam="2">  1       -2 0.85515304E-01 0.47823030E+03</pdfrwt>
<totfact> 0.38931474E+01</totfact>
</mgrwt>
</event>
<event>
12    3  0.1176505E-007  0.5359380E+03  0.7818608E-02  0.1004802E+00
          1   -1    0    0  501    0  0.00000000000E+00  0.00000000000E+00  0.15340824438E+04  0.15340824438E+04  0.00000000000E+00 0. -1.
         -2   -1    0    0    0  501 -0.00000000000E+00 -0.00000000000E+00 -0.23427402369E+03  0.23427402369E+03  0.00000000000E+00 0.  1.
        -24    2    1    2    0    0 -0.32871802329E+03  0.23772079334E+03  0.21972532034E+03  0.46789816747E+03  0.77992078457E+02 0.  0.
    5000000    2    1    2    0    0  0.32871802329E+03 -0.23772079334E+03  0.10800830998E+04  0.13004583000E+04  0.60003797652E+03 0.  0.
        -24    2    4    4    0    0 -0.10102297668E+03 -0.19038928012E+03  0.15901960983E+03  0.27948920581E+03  0.79832700390E+02 0.  0.
         24    2    4    4    0    0  0.42974099996E+03 -0.47331513212E+02  0.92106348995E+03  0.10209690942E+04  0.84275379761E+02 0.  0.
         13    1    5    5    0    0 -0.97502348616E+02 -0.11769492354E+03  0.81691398764E+02  0.17329826209E+03  0.00000000000E+00 0. -1.
        -14    1    5    5    0    0 -0.35206280622E+01 -0.72694356588E+02  0.77328211062E+02  0.10619094372E+03  0.00000000000E+00 0.  1.
         15    1    3    3    0    0 -0.26005736851E+03  0.14825254278E+03  0.14509066091E+03  0.33266065137E+03  0.17770000000E+01 0. -1.
        -16    1    3    3    0    0 -0.68660654778E+02  0.89468250558E+02  0.74634659429E+02  0.13523751610E+03  0.00000000000E+00 0.  1.
          2    1    6    6  502    0  0.29979013105E+03 -0.51154806427E+02  0.71926510169E+03  0.78091819251E+03  0.00000000000E+00 0. -1.
         -1    1    6    6    0  502  0.12995086891E+03  0.38232932155E+01  0.20179838826E+03  0.24005090170E+03  0.00000000000E+00 0.  1.
<mgrwt>
<rscale>  0 0.53593798E+03</rscale>
<asrwt>0</asrwt>
<pdfrwt beam="1">  1        1 0.23601268E+00 0.53593798E+03</pdfrwt>
<pdfrwt beam="2">  1       -2 0.36042158E-01 0.53593798E+03</pdfrwt>
<totfact> 0.41574761E+01</totfact>
</mgrwt>
</event>
<event>
12    3  0.1176505E-007  0.7554948E+03  0.7818608E-02  0.9626769E-01
         -2   -1    0    0    0  501 -0.00000000000E+00  0.00000000000E+00  0.44693869228E+03  0.44693869228E+03  0.00000000000E+00 0.  1.
          1   -1    0    0  501    0  0.00000000000E+00 -0.00000000000E+00 -0.17533008542E+04  0.17533008542E+04  0.00000000000E+00 0. -1.
        -24    2    1    2    0    0  0.24408137070E+03  0.66590936933E+03 -0.98687492768E+03  0.12178777941E+04  0.79329658537E+02 0.  0.
    5000000    2    1    2    0    0 -0.24408137070E+03 -0.66590936933E+03 -0.31948723419E+03  0.98236175236E+03  0.59995959531E+03 0.  0.
        -24    2    4    4    0    0 -0.28452058628E+03 -0.65169530277E+03 -0.43631300436E+03  0.83676278579E+03  0.64375385267E+02 0.  0.
         24    2    4    4    0    0  0.40439215582E+02 -0.14214066556E+02  0.11682577017E+03  0.14559896657E+03  0.75587225423E+02 0.  0.
         11    1    5    5    0    0 -0.15144490250E+03 -0.38543216678E+03 -0.22109487394E+03  0.46944270893E+03  0.00000000000E+00 0. -1.
        -12    1    5    5    0    0 -0.13307568379E+03 -0.26626313600E+03 -0.21521813042E+03  0.36732007686E+03  0.00000000000E+00 0.  1.
         15    1    3    3    0    0  0.13994018143E+03  0.27876835040E+03 -0.46103984778E+03  0.55664705742E+03  0.17770000000E+01 0. -1.
        -16    1    3    3    0    0  0.10414118928E+03  0.38714101893E+03 -0.52583507990E+03  0.66123073665E+03  0.00000000000E+00 0.  1.
          2    1    6    6  502    0  0.62199095826E+02 -0.16890473859E+02  0.79896286889E+02  0.10265199602E+03  0.00000000000E+00 0. -1.
         -1    1    6    6    0  502 -0.21759880245E+02  0.26764073028E+01  0.36929483277E+02  0.42946970550E+02  0.00000000000E+00 0.  1.
<mgrwt>
<rscale>  0 0.75549477E+03</rscale>
<asrwt>0</asrwt>
<pdfrwt beam="1">  1        1 0.26973859E+00 0.75549477E+03</pdfrwt>
<pdfrwt beam="2">  1       -2 0.68759799E-01 0.75549477E+03</pdfrwt>
<totfact> 0.77093529E+00</totfact>
</mgrwt>
</event>
<event>
12    3  0.1176505E-007  0.3961966E+03  0.7818608E-02  0.1045105E+00
         -2   -1    0    0    0  501 -0.00000000000E+00  0.00000000000E+00  0.22113611100E+03  0.22113611100E+03  0.00000000000E+00 0.  1.
          1   -1    0    0  501    0  0.00000000000E+00 -0.00000000000E+00 -0.15560462138E+04  0.15560462138E+04  0.00000000000E+00 0. -1.
        -24    2    1    2    0    0  0.81188653758E+02 -0.37083566101E+03 -0.20145267565E+03  0.43973661002E+03  0.93136570110E+02 0.  0.
    5000000    2    1    2    0    0 -0.81188653758E+02  0.37083566101E+03 -0.11334574271E+04  0.13374457148E+04  0.59993717656E+03 0.  0.
        -24    2    4    4    0    0 -0.46288915349E+02  0.30844828412E+03 -0.16486664890E+03  0.36298989454E+03  0.85426248649E+02 0.  0.
         24    2    4    4    0    0 -0.34899738408E+02  0.62387376889E+02 -0.96859077824E+03  0.97445582022E+03  0.79283499748E+02 0.  0.
         11    1    5    5    0    0  0.34830687130E+01  0.20145594872E+03 -0.13060864869E+03  0.24011507690E+03  0.00000000000E+00 0. -1.
        -12    1    5    5    0    0 -0.49771984062E+02  0.10699233540E+03 -0.34258000213E+02  0.12287481765E+03  0.00000000000E+00 0.  1.
         15    1    3    3    0    0  0.87661239527E+02 -0.34491667909E+03 -0.20802493879E+03  0.41222511000E+03  0.17770000000E+01 0. -1.
        -16    1    3    3    0    0 -0.64725857695E+01 -0.25918981928E+02  0.65722631437E+01  0.27511500024E+02  0.00000000000E+00 0.  1.
          4    1    6    6  502    0 -0.13595194436E+02  0.67116970048E+02 -0.89706160120E+03  0.89967162528E+03  0.00000000000E+00 0. -1.
         -3    1    6    6    0  502 -0.21304543972E+02 -0.47295931586E+01 -0.71529177045E+02  0.74784194948E+02  0.00000000000E+00 0.  1.
<mgrwt>
<rscale>  0 0.39619665E+03</rscale>
<asrwt>0</asrwt>
<pdfrwt beam="1">  1        1 0.23939172E+00 0.39619665E+03</pdfrwt>
<pdfrwt beam="2">  1       -2 0.34020941E-01 0.39619665E+03</pdfrwt>
<totfact> 0.45927096E+01</totfact>
</mgrwt>
</event>
<event>
12    3  0.1176505E-007  0.4313028E+03  0.7818608E-02  0.1033449E+00
         -2   -1    0    0    0  501 -0.00000000000E+00  0.00000000000E+00  0.92074482542E+03  0.92074482542E+03  0.00000000000E+00 0.  1.
          1   -1    0    0  501    0  0.00000000000E+00 -0.00000000000E+00 -0.23572287292E+03  0.23572287292E+03  0.00000000000E+00 0. -1.
        -24    2    1    2    0    0 -0.20685737537E+03 -0.94387519012E+02  0.37173263248E+03  0.44238284321E+03  0.76278780942E+02 0.  0.
    5000000    2    1    2    0    0  0.20685737537E+03  0.94387519012E+02  0.31328932002E+03  0.71408485513E+03  0.60005666798E+03 0.  0.
        -24    2    4    4    0    0 -0.18432248650E+03 -0.56070179439E+02  0.14431562208E+03  0.25495694148E+03  0.84008328042E+02 0.  0.
         24    2    4    4    0    0  0.39117986187E+03  0.15045769845E+03  0.16897369794E+03  0.45912791365E+03  0.81161118403E+02 0.  0.
         11    1    5    5    0    0 -0.10585714615E+03 -0.74633376178E+02  0.90963421756E+02  0.15827261396E+03  0.00000000000E+00 0. -1.
        -12    1    5    5    0    0 -0.78465340347E+02  0.18563196739E+02  0.53352200325E+02  0.96684327523E+02  0.00000000000E+00 0.  1.
         15    1    3    3    0    0 -0.92374978704E+02 -0.14152974582E+02  0.20135154023E+03  0.22198883725E+03  0.17770000000E+01 0. -1.
        -16    1    3    3    0    0 -0.11448239667E+03 -0.80234544430E+02  0.17038109225E+03  0.22039400596E+03  0.00000000000E+00 0.  1.
          2    1    6    6  502    0  0.20488949240E+03  0.74811991893E+02  0.44377304555E+02  0.22258904597E+03  0.00000000000E+00 0. -1.
         -1    1    6    6    0  502  0.18629036947E+03  0.75645706557E+02  0.12459639338E+03  0.23653886768E+03  0.00000000000E+00 0.  1.
<mgrwt>
<rscale>  0 0.43130275E+03</rscale>
<asrwt>0</asrwt>
<pdfrwt beam="1">  1        1 0.36265058E-01 0.43130275E+03</pdfrwt>
<pdfrwt beam="2">  1       -2 0.14165305E+00 0.43130275E+03</pdfrwt>
<totfact> 0.37981998E+01</totfact>
</mgrwt>
</event>
<event>
12    3  0.1176505E-007  0.1094271E+04  0.7818608E-02  0.9210794E-01
         -2   -1    0    0    0  501 -0.00000000000E+00  0.00000000000E+00  0.44570609623E+03  0.44570609623E+03  0.00000000000E+00 0.  1.
          1   -1    0    0  501    0  0.00000000000E+00 -0.00000000000E+00 -0.31092500950E+04  0.31092500950E+04  0.00000000000E+00 0. -1.
        -24    2    1    2    0    0 -0.62461947529E+03 -0.80917303824E+03 -0.63678597046E+03  0.12070215172E+04  0.80585831155E+02 0.  0.
    5000000    2    1    2    0    0  0.62461947529E+03  0.80917303824E+03 -0.20267580283E+04  0.23479346740E+04  0.60011551656E+03 0.  0.
        -24    2    4    4    0    0 -0.81454698884E+02  0.21475657452E+03 -0.59042618098E+03  0.63853195829E+03  0.79779272365E+02 0.  0.
         24    2    4    4    0    0  0.70607417418E+03  0.59441646372E+03 -0.14363318473E+04  0.17094027157E+04  0.84479565366E+02 0.  0.
         13    1    5    5    0    0 -0.42387954046E+02  0.38329907450E+02 -0.20555871986E+03  0.21335488690E+03  0.00000000000E+00 0. -1.
        -14    1    5    5    0    0 -0.39066744837E+02  0.17642666707E+03 -0.38486746111E+03  0.42517707138E+03  0.00000000000E+00 0.  1.
         15    1    3    3    0    0 -0.26778969948E+03 -0.29145111238E+03 -0.22289352464E+03  0.45424635949E+03  0.17770000000E+01 0. -1.
        -16    1    3    3    0    0 -0.35682977582E+03 -0.51772192586E+03 -0.41389244582E+03  0.75277515775E+03  0.00000000000E+00 0.  1.
          2    1    6    6  502    0  0.46055116072E+03  0.33929579072E+03 -0.91953539083E+03  0.10829470625E+04  0.00000000000E+00 0. -1.
         -1    1    6    6    0  502  0.24552301345E+03  0.25512067300E+03 -0.51679645648E+03  0.62645565315E+03  0.00000000000E+00 0.  1.
<mgrwt>
<rscale>  0 0.10942708E+04</rscale>
<asrwt>0</asrwt>
<pdfrwt beam="1">  1        1 0.47834616E+00 0.10942708E+04</pdfrwt>
<pdfrwt beam="2">  1       -2 0.68570170E-01 0.10942708E+04</pdfrwt>
<totfact> 0.85905590E-01</totfact>
</mgrwt>
</event>
<event>
12    3  0.1176505E-007  0.1738321E+04  0.7818608E-02  0.8739805E-01
          1   -1    0    0  501    0  0.00000000000E+00  0.00000000000E+00  0.14800015094E+04  0.14800015094E+04  0.00000000000E+00 0. -1.
         -2   -1    0    0    0  501 -0.00000000000E+00 -0.00000000000E+00 -0.20811590354E+04  0.20811590354E+04  0.00000000000E+00 0.  1.
        -24    2    1    2    0    0 -0.40518232242E+03 -0.16428719935E+04 -0.99351461951E+02  0.16969469510E+04  0.80976169660E+02 0.  0.
    5000000    2    1    2    0    0  0.40518232242E+03  0.16428719935E+04 -0.50180606412E+03  0.18642135938E+04  0.60023486727E+03 0.  0.
        -24    2    4    4    0    0  0.23920347970E+03  0.15848931874E+03 -0.78522499585E+02  0.30980718141E+03  0.86472757892E+02 0.  0.
         24    2    4    4    0    0  0.16597884272E+03  0.14843826748E+04 -0.42328356453E+03  0.15544064124E+04  0.77906466288E+02 0.  0.
         11    1    5    5    0    0  0.91760594612E+02  0.72152601585E+02  0.10398282007E+02  0.11719269989E+03  0.00000000000E+00 0. -1.
        -12    1    5    5    0    0  0.14744288509E+03  0.86336717151E+02 -0.88920781592E+02  0.19261448152E+03  0.00000000000E+00 0.  1.
         15    1    3    3    0    0 -0.11786912848E+03 -0.61306946311E+03 -0.58507921187E+02  0.62703559119E+03  0.17770000000E+01 0. -1.
        -16    1    3    3    0    0 -0.28731319394E+03 -0.10298025304E+04 -0.40843540764E+02  0.10699113598E+04  0.00000000000E+00 0.  1.
          2    1    6    6  502    0  0.44278326887E+02  0.74266593344E+03 -0.20457016213E+03  0.77159718128E+03  0.00000000000E+00 0. -1.
         -1    1    6    6    0  502  0.12170051583E+03  0.74171674135E+03 -0.21871340240E+03  0.78280923113E+03  0.00000000000E+00 0.  1.
<mgrwt>
<rscale>  0 0.17383211E+04</rscale>
<asrwt>0</asrwt>
<pdfrwt beam="1">  1        1 0.22769254E+00 0.17383211E+04</pdfrwt>
<pdfrwt beam="2">  1       -2 0.32017831E+00 0.17383211E+04</pdfrwt>
<totfact> 0.13006941E-01</totfact>
</mgrwt>
</event>
<event>
12    3  0.1176505E-007  0.7625711E+03  0.7818608E-02  0.9615832E-01
         -2   -1    0    0    0  501 -0.00000000000E+00  0.00000000000E+00  0.70947064743E+03  0.70947064743E+03  0.00000000000E+00 0.  1.
          1   -1    0    0  501    0  0.00000000000E+00 -0.00000000000E+00 -0.13394401358E+04  0.13394401358E+04  0.00000000000E+00 0. -1.
        -24    2    1    2    0    0  0.40558852366E+03 -0.58321436620E+03  0.26116273605E+03  0.76095460001E+03  0.78771067663E+02 0.  0.
    5000000    2    1    2    0    0 -0.40558852366E+03  0.58321436620E+03 -0.89113222440E+03  0.12879561832E+04  0.60006119772E+03 0.  0.
        -24    2    4    4    0    0 -0.39273916774E+03  0.62431908051E+03 -0.51757651683E+03  0.90331636300E+03  0.63848513913E+02 0.  0.
         24    2    4    4    0    0 -0.12849355928E+02 -0.41104714306E+02 -0.37355570757E+03  0.38463982020E+03  0.80927258332E+02 0.  0.
         11    1    5    5    0    0 -0.36538346561E+02  0.75993985444E+02 -0.82242433980E+02  0.11778775208E+03  0.00000000000E+00 0. -1.
        -12    1    5    5    0    0 -0.35620082117E+03  0.54832509507E+03 -0.43533408284E+03  0.78552861092E+03  0.00000000000E+00 0.  1.
         15    1    3    3    0    0  0.98167487904E+02 -0.17553336105E+03  0.42842283487E+02  0.20563909041E+03  0.17770000000E+01 0. -1.
        -16    1    3    3    0    0  0.30742103576E+03 -0.40768100516E+03  0.21832045256E+03  0.55531550960E+03  0.00000000000E+00 0.  1.
          2    1    6    6  502    0  0.64992919017E+01  0.14750118089E+02 -0.21196175798E+03  0.21257373691E+03  0.00000000000E+00 0. -1.
         -1    1    6    6    0  502 -0.19348647830E+02 -0.55854832394E+02 -0.16159394959E+03  0.17206608329E+03  0.00000000000E+00 0.  1.
<mgrwt>
<rscale>  0 0.76257112E+03</rscale>
<asrwt>0</asrwt>
<pdfrwt beam="1">  1        1 0.20606771E+00 0.76257112E+03</pdfrwt>
<pdfrwt beam="2">  1       -2 0.10914933E+00 0.76257112E+03</pdfrwt>
<totfact> 0.51204381E+00</totfact>
</mgrwt>
</event>
<event>
12    3  0.1176505E-007  0.5995863E+03  0.7818608E-02  0.9906265E-01
         -2   -1    0    0    0  501 -0.00000000000E+00  0.00000000000E+00  0.42744535192E+03  0.42744535192E+03  0.00000000000E+00 0.  1.
          1   -1    0    0  501    0  0.00000000000E+00 -0.00000000000E+00 -0.96964292342E+03  0.96964292342E+03  0.00000000000E+00 0. -1.
        -24    2    1    2    0    0  0.46798234784E+03 -0.81162272590E+02 -0.38301980892E+03  0.61540480219E+03  0.80150509373E+02 0.  0.
    5000000    2    1    2    0    0 -0.46798234784E+03  0.81162272590E+02 -0.15917776259E+03  0.78168347314E+03  0.60008057767E+03 0.  0.
        -24    2    4    4    0    0 -0.30581490705E+03  0.30389736345E+03 -0.21697764496E+03  0.48889222735E+03  0.77845659210E+02 0.  0.
         24    2    4    4    0    0 -0.16216744079E+03 -0.22273509086E+03  0.57799882374E+02  0.29279124580E+03  0.80477870603E+02 0.  0.
         11    1    5    5    0    0 -0.21419312878E+03  0.16140467324E+03 -0.14430401915E+03  0.30455510980E+03  0.00000000000E+00 0. -1.
        -12    1    5    5    0    0 -0.91621778266E+02  0.14249269021E+03 -0.72673625813E+02  0.18433711755E+03  0.00000000000E+00 0.  1.
         15    1    3    3    0    0  0.22772993713E+03 -0.62309457464E+02 -0.23194048257E+03  0.33097271480E+03  0.17770000000E+01 0. -1.
        -16    1    3    3    0    0  0.24025241071E+03 -0.18852815126E+02 -0.15107932634E+03  0.28443208739E+03  0.00000000000E+00 0.  1.
          4    1    6    6  502    0 -0.11697659300E+03 -0.20479384400E+03  0.32796064264E+02  0.23811682780E+03  0.00000000000E+00 0. -1.
         -3    1    6    6    0  502 -0.45190847790E+02 -0.17941246864E+02  0.25003818109E+02  0.54674417994E+02  0.00000000000E+00 0.  1.
<mgrwt>
<rscale>  0 0.59958626E+03</rscale>
<asrwt>0</asrwt>
<pdfrwt beam="1">  1        1 0.14917583E+00 0.59958626E+03</pdfrwt>
<pdfrwt beam="2">  1       -2 0.65760824E-01 0.59958626E+03</pdfrwt>
<totfact> 0.31004380E+01</totfact>
</mgrwt>
</event>
<event>
12    3  0.1176505E-007  0.5762129E+03  0.7818608E-02  0.9956024E-01
          1   -1    0    0  501    0  0.00000000000E+00  0.00000000000E+00  0.12576675307E+04  0.12576675307E+04  0.00000000000E+00 0. -1.
         -2   -1    0    0    0  501 -0.00000000000E+00 -0.00000000000E+00 -0.31715069261E+03  0.31715069261E+03  0.00000000000E+00 0.  1.
        -24    2    1    2    0    0  0.31517407225E+03 -0.36769346044E+03  0.40108528605E+03  0.63387600379E+03  0.79976276651E+02 0.  0.
    5000000    2    1    2    0    0 -0.31517407225E+03  0.36769346044E+03  0.53943155205E+03  0.94094221954E+03  0.59987722451E+03 0.  0.
        -24    2    4    4    0    0 -0.42092364646E+03  0.24511248384E+03  0.15867725545E+03  0.51780711616E+03  0.75424745752E+02 0.  0.
         24    2    4    4    0    0  0.10574957421E+03  0.12258097660E+03  0.38075429661E+03  0.42313510337E+03  0.88658970523E+02 0.  0.
         13    1    5    5    0    0 -0.11794172785E+03  0.85427946334E+02  0.80928818757E+02  0.16660629906E+03  0.00000000000E+00 0. -1.
        -14    1    5    5    0    0 -0.30298191861E+03  0.15968453750E+03  0.77748436691E+02  0.35120081710E+03  0.00000000000E+00 0.  1.
         15    1    3    3    0    0  0.66007218836E+02 -0.92426070314E+02  0.54607545065E+02  0.12603441244E+03  0.17770000000E+01 0. -1.
        -16    1    3    3    0    0  0.24916685341E+03 -0.27526739012E+03  0.34647774099E+03  0.50784159135E+03  0.00000000000E+00 0.  1.
          4    1    6    6  502    0 -0.10884114698E+02  0.25331034852E+02  0.10245431984E+03  0.10609907131E+03  0.00000000000E+00 0. -1.
         -3    1    6    6    0  502  0.11663368891E+03  0.97249941748E+02  0.27829997677E+03  0.31703603207E+03  0.00000000000E+00 0.  1.
<mgrwt>
<rscale>  0 0.57621292E+03</rscale>
<asrwt>0</asrwt>
<pdfrwt beam="1">  1        1 0.19348731E+00 0.57621292E+03</pdfrwt>
<pdfrwt beam="2">  1       -2 0.48792415E-01 0.57621292E+03</pdfrwt>
<totfact> 0.35424675E+01</totfact>
</mgrwt>
</event>
<event>
12    3  0.1176505E-007  0.1206743E+04  0.7818608E-02  0.9106975E-01
         -2   -1    0    0    0  501 -0.00000000000E+00  0.00000000000E+00  0.52744713051E+03  0.52744713051E+03  0.00000000000E+00 0.  1.
          1   -1    0    0  501    0  0.00000000000E+00 -0.00000000000E+00 -0.30075141573E+04  0.30075141573E+04  0.00000000000E+00 0. -1.
        -24    2    1    2    0    0  0.14459340538E+03 -0.11510663993E+04 -0.15207612577E+04  0.19143512716E+04  0.78516748630E+02 0.  0.
    5000000    2    1    2    0    0 -0.14459340538E+03  0.11510663993E+04 -0.95930576906E+03  0.16206100161E+04  0.60020676215E+03 0.  0.
        -24    2    4    4    0    0 -0.65693989000E+02 -0.21022578697E+02 -0.17979639020E+03  0.20856407834E+03  0.80091097113E+02 0.  0.
         24    2    4    4    0    0 -0.78899416380E+02  0.11720889780E+04 -0.77950937885E+03  0.14120459378E+04  0.78874383964E+02 0.  0.
         13    1    5    5    0    0 -0.19213181169E+02 -0.20527764791E+02 -0.61200697300E+01  0.28774827739E+02  0.00000000000E+00 0. -1.
        -14    1    5    5    0    0 -0.46480807831E+02 -0.49481390586E+00 -0.17367632047E+03  0.17978925060E+03  0.00000000000E+00 0.  1.
         15    1    3    3    0    0  0.13878285116E+03 -0.88370711315E+03 -0.11402270305E+04  0.14492480052E+04  0.17770000000E+01 0. -1.
        -16    1    3    3    0    0  0.58105542233E+01 -0.26735928616E+03 -0.38053422714E+03  0.46510326645E+03  0.00000000000E+00 0.  1.
          4    1    6    6  502    0 -0.74110623582E+02  0.56794578697E+03 -0.35956005893E+03  0.67626787403E+03  0.00000000000E+00 0. -1.
         -3    1    6    6    0  502 -0.47887927972E+01  0.60414319104E+03 -0.41994931993E+03  0.73577806377E+03  0.00000000000E+00 0.  1.
<mgrwt>
<rscale>  0 0.12067427E+04</rscale>
<asrwt>0</asrwt>
<pdfrwt beam="1">  1        1 0.46269447E+00 0.12067427E+04</pdfrwt>
<pdfrwt beam="2">  1       -2 0.81145715E-01 0.12067427E+04</pdfrwt>
<totfact> 0.68968560E-01</totfact>
</mgrwt>
</event>
<event>
12    3  0.1176505E-007  0.9543385E+03  0.7818608E-02  0.9360094E-01
         -2   -1    0    0    0  501 -0.00000000000E+00  0.00000000000E+00  0.11224731244E+04  0.11224731244E+04  0.00000000000E+00 0.  1.
          1   -1    0    0  501    0  0.00000000000E+00 -0.00000000000E+00 -0.98220085221E+03  0.98220085221E+03  0.00000000000E+00 0. -1.
        -24    2    1    2    0    0 -0.91141185855E+03  0.26626952351E+03 -0.92854575251E+02  0.95752836831E+03  0.81655182977E+02 0.  0.
    5000000    2    1    2    0    0  0.91141185855E+03 -0.26626952351E+03  0.23312684740E+03  0.11471456083E+04  0.60001990342E+03 0.  0.
        -24    2    4    4    0    0  0.72483917200E+03 -0.16063205663E+03  0.41551669488E+03  0.85456452591E+03  0.80199266339E+02 0.  0.
         24    2    4    4    0    0  0.18657268655E+03 -0.10563746688E+03 -0.18238984748E+03  0.29258108235E+03  0.79805961612E+02 0.  0.
         11    1    5    5    0    0  0.45746149543E+03 -0.12082672162E+03  0.22549757173E+03  0.52413669144E+03  0.00000000000E+00 0. -1.
        -12    1    5    5    0    0  0.26737767658E+03 -0.39805335008E+02  0.19001912315E+03  0.33042783446E+03  0.00000000000E+00 0.  1.
         15    1    3    3    0    0 -0.10786416563E+03  0.25684223070E+02 -0.36903808344E+02  0.11687346294E+03  0.17770000000E+01 0. -1.
        -16    1    3    3    0    0 -0.80354769293E+03  0.24058530044E+03 -0.55950766906E+02  0.84065490537E+03  0.00000000000E+00 0.  1.
          2    1    6    6  502    0  0.14208554585E+03 -0.69340255245E+02 -0.84940204652E+02  0.17947482192E+03  0.00000000000E+00 0. -1.
         -3    1    6    6    0  502  0.44487140697E+02 -0.36297211634E+02 -0.97449642833E+02  0.11310626043E+03  0.00000000000E+00 0.  1.
<mgrwt>
<rscale>  0 0.95433850E+03</rscale>
<asrwt>0</asrwt>
<pdfrwt beam="1">  1        1 0.15110782E+00 0.95433850E+03</pdfrwt>
<pdfrwt beam="2">  1       -2 0.17268817E+00 0.95433850E+03</pdfrwt>
<totfact> 0.27970172E+00</totfact>
</mgrwt>
</event>
<event>
12    3  0.1176505E-007  0.1174737E+04  0.7818608E-02  0.9135261E-01
          1   -1    0    0  501    0  0.00000000000E+00  0.00000000000E+00  0.30349750716E+04  0.30349750716E+04  0.00000000000E+00 0. -1.
         -2   -1    0    0    0  501 -0.00000000000E+00 -0.00000000000E+00 -0.73511091865E+03  0.73511091865E+03  0.00000000000E+00 0.  1.
        -24    2    1    2    0    0  0.72695343692E+03  0.83308108860E+03 -0.44857024858E+02  0.11092268086E+04  0.76723924391E+02 0.  0.
    5000000    2    1    2    0    0 -0.72695343692E+03 -0.83308108860E+03  0.23447211778E+04  0.26608591816E+04  0.59997398556E+03 0.  0.
        -24    2    4    4    0    0 -0.23540070872E+03 -0.69085831218E+03  0.12323586558E+04  0.14337812561E+04  0.65742929544E+02 0.  0.
         24    2    4    4    0    0 -0.49155272820E+03 -0.14222277642E+03  0.11123625220E+04  0.12270779255E+04  0.80736931943E+02 0.  0.
         13    1    5    5    0    0 -0.16071860872E+03 -0.45341861342E+03  0.87052495128E+03  0.99460172983E+03  0.00000000000E+00 0. -1.
        -14    1    5    5    0    0 -0.74682099999E+02 -0.23743969876E+03  0.36183370448E+03  0.43917952629E+03  0.00000000000E+00 0.  1.
         15    1    3    3    0    0  0.29030515672E+03  0.38438375154E+03 -0.24803304130E+01  0.48170246235E+03  0.17770000000E+01 0. -1.
        -16    1    3    3    0    0  0.43664828020E+03  0.44869733706E+03 -0.42376694445E+02  0.62752434624E+03  0.00000000000E+00 0.  1.
          2    1    6    6  502    0 -0.26262471437E+03 -0.77032931591E+02  0.68936250815E+03  0.74170511714E+03  0.00000000000E+00 0. -1.
         -1    1    6    6    0  502 -0.22892801383E+03 -0.65189844830E+02  0.42300001386E+03  0.48537280837E+03  0.00000000000E+00 0.  1.
<mgrwt>
<rscale>  0 0.11747370E+04</rscale>
<asrwt>0</asrwt>
<pdfrwt beam="1">  1        1 0.46691924E+00 0.11747370E+04</pdfrwt>
<pdfrwt beam="2">  1       -2 0.11309399E+00 0.11747370E+04</pdfrwt>
<totfact> 0.30220655E-01</totfact>
</mgrwt>
</event>
<event>
12    3  0.1176505E-007  0.6204977E+03  0.7818608E-02  0.9863769E-01
          1   -1    0    0  501    0  0.00000000000E+00  0.00000000000E+00  0.28070392159E+03  0.28070392159E+03  0.00000000000E+00 0. -1.
         -2   -1    0    0    0  501 -0.00000000000E+00 -0.00000000000E+00 -0.16847628830E+04  0.16847628830E+04  0.00000000000E+00 0.  1.
        -24    2    1    2    0    0 -0.46277219394E+03  0.30287465934E+03 -0.54734048858E+03  0.78227485539E+03  0.80505752458E+02 0.  0.
    5000000    2    1    2    0    0  0.46277219394E+03 -0.30287465934E+03 -0.85671847281E+03  0.11831919492E+04  0.60007123258E+03 0.  0.
        -24    2    4    4    0    0  0.23536474829E+03 -0.36953573941E+03 -0.21461192515E+03  0.49436272624E+03  0.79893674633E+02 0.  0.
         24    2    4    4    0    0  0.22740744565E+03  0.66661080067E+02 -0.64210654766E+03  0.68882922293E+03  0.77633973711E+02 0.  0.
         11    1    5    5    0    0  0.15122001479E+03 -0.29698657499E+03 -0.17490752273E+03  0.37637901124E+03  0.00000000000E+00 0. -1.
        -12    1    5    5    0    0  0.84144733501E+02 -0.72549164417E+02 -0.39704402411E+02  0.11798371500E+03  0.00000000000E+00 0.  1.
         15    1    3    3    0    0 -0.15025354184E+03  0.14336372168E+03 -0.19028722030E+03  0.28167652985E+03  0.17770000000E+01 0. -1.
        -16    1    3    3    0    0 -0.31251865210E+03  0.15951093766E+03 -0.35705326827E+03  0.50059832553E+03  0.00000000000E+00 0.  1.
          2    1    6    6  502    0  0.39819603402E+02  0.20933009763E+02 -0.22150309032E+03  0.22602524358E+03  0.00000000000E+00 0. -1.
         -1    1    6    6    0  502  0.18758784225E+03  0.45728070304E+02 -0.42060345734E+03  0.46280397935E+03  0.00000000000E+00 0.  1.
<mgrwt>
<rscale>  0 0.62049773E+03</rscale>
<asrwt>0</asrwt>
<pdfrwt beam="1">  1        1 0.43185219E-01 0.62049773E+03</pdfrwt>
<pdfrwt beam="2">  1       -2 0.25919429E+00 0.62049773E+03</pdfrwt>
<totfact> 0.49574452E+00</totfact>
</mgrwt>
</event>
<event>
12    3  0.1176505E-007  0.4460069E+03  0.7818608E-02  0.1028920E+00
         -2   -1    0    0    0  501 -0.00000000000E+00  0.00000000000E+00  0.17130663825E+04  0.17130663825E+04  0.00000000000E+00 0.  1.
          1   -1    0    0  501    0  0.00000000000E+00 -0.00000000000E+00 -0.21196087962E+03  0.21196087962E+03  0.00000000000E+00 0. -1.
        -24    2    1    2    0    0 -0.22546020489E+03  0.11177970466E+03 -0.25013653781E+02  0.26600984181E+03  0.82513918223E+02 0.  0.
    5000000    2    1    2    0    0  0.22546020489E+03 -0.11177970466E+03  0.15261191567E+04  0.16590174203E+04  0.59997676136E+03 0.  0.
        -24    2    4    4    0    0  0.41805231526E+03 -0.10010878306E+03  0.11102849644E+04  0.11934912462E+04  0.83061096575E+02 0.  0.
         24    2    4    4    0    0 -0.19259211037E+03 -0.11670921605E+02  0.41583419226E+03  0.46552617413E+03  0.81046973820E+02 0.  0.
         11    1    5    5    0    0  0.24643269064E+03 -0.43541882560E+02  0.53797287137E+03  0.59332939998E+03  0.00000000000E+00 0. -1.
        -12    1    5    5    0    0  0.17161962462E+03 -0.56566900497E+02  0.57231209305E+03  0.60016184621E+03  0.00000000000E+00 0.  1.
         15    1    3    3    0    0 -0.81585545100E+02  0.45913121844E+02  0.30254092546E+02  0.98400628918E+02  0.17770000000E+01 0. -1.
        -16    1    3    3    0    0 -0.14387465979E+03  0.65866582818E+02 -0.55267746327E+02  0.16760921289E+03  0.00000000000E+00 0.  1.
          4    1    6    6  502    0 -0.93410839736E+02  0.34776578865E+02  0.20470122504E+03  0.22767869235E+03  0.00000000000E+00 0. -1.
         -3    1    6    6    0  502 -0.99181270631E+02 -0.46447500470E+02  0.21113296722E+03  0.23784748179E+03  0.00000000000E+00 0.  1.
<mgrwt>
<rscale>  0 0.44600686E+03</rscale>
<asrwt>0</asrwt>
<pdfrwt beam="1">  1        1 0.32609367E-01 0.44600686E+03</pdfrwt>
<pdfrwt beam="2">  1       -2 0.26354867E+00 0.44600686E+03</pdfrwt>
<totfact> 0.68970982E+00</totfact>
</mgrwt>
</event>
<event>
12    3  0.1176505E-007  0.9492480E+03  0.7818608E-02  0.9366030E-01
         -2   -1    0    0    0  501 -0.00000000000E+00  0.00000000000E+00  0.16346263601E+04  0.16346263601E+04  0.00000000000E+00 0.  1.
          1   -1    0    0  501    0  0.00000000000E+00 -0.00000000000E+00 -0.80154847383E+03  0.80154847383E+03  0.00000000000E+00 0. -1.
        -24    2    1    2    0    0 -0.19096235719E+02  0.88307892712E+03  0.10204421362E+04  0.13520519712E+04  0.80927880759E+02 0.  0.
    5000000    2    1    2    0    0  0.19096235719E+02 -0.88307892712E+03 -0.18736424990E+03  0.10841228627E+04  0.60001996762E+03 0.  0.
        -24    2    4    4    0    0  0.24907054880E+03 -0.47972643554E+03 -0.26232751048E+03  0.60618795037E+03  0.80464384559E+02 0.  0.
         24    2    4    4    0    0 -0.22997431308E+03 -0.40335249158E+03  0.74963260580E+02  0.47793491233E+03  0.84975719137E+02 0.  0.
         13    1    5    5    0    0  0.17885681291E+03 -0.38527262485E+03 -0.17392759411E+03  0.45899407728E+03  0.00000000000E+00 0. -1.
        -14    1    5    5    0    0  0.70213735892E+02 -0.94453810694E+02 -0.88399916370E+02  0.14719387310E+03  0.00000000000E+00 0.  1.
         15    1    3    3    0    0  0.19002457915E+02  0.30250474239E+03  0.30659528129E+03  0.43113111325E+03  0.17770000000E+01 0. -1.
        -16    1    3    3    0    0 -0.38098693633E+02  0.58057418473E+03  0.71384685488E+03  0.92092085798E+03  0.00000000000E+00 0.  1.
          4    1    6    6  502    0 -0.50733966560E+02 -0.16664556005E+03  0.13440466523E+02  0.17471497986E+03  0.00000000000E+00 0. -1.
         -3    1    6    6    0  502 -0.17924034652E+03 -0.23670693152E+03  0.61522794058E+02  0.30321993246E+03  0.00000000000E+00 0.  1.
<mgrwt>
<rscale>  0 0.94924798E+03</rscale>
<asrwt>0</asrwt>
<pdfrwt beam="1">  1        1 0.12331515E+00 0.94924798E+03</pdfrwt>
<pdfrwt beam="2">  1       -2 0.25148098E+00 0.94924798E+03</pdfrwt>
<totfact> 0.12256987E+00</totfact>
</mgrwt>
</event>
<event>
12    3  0.1176505E-007  0.7620469E+03  0.7818608E-02  0.9616638E-01
          1   -1    0    0  501    0  0.00000000000E+00  0.00000000000E+00  0.14274082078E+04  0.14274082078E+04  0.00000000000E+00 0. -1.
         -2   -1    0    0    0  501 -0.00000000000E+00 -0.00000000000E+00 -0.98731742176E+03  0.98731742176E+03  0.00000000000E+00 0.  1.
        -24    2    1    2    0    0 -0.46287255357E+03  0.47927531766E+03  0.11088136251E+04  0.12962719526E+04  0.83051122093E+02 0.  0.
    5000000    2    1    2    0    0  0.46287255357E+03 -0.47927531766E+03 -0.66872283906E+03  0.11184536770E+04  0.59982710931E+03 0.  0.
        -24    2    4    4    0    0  0.46665117809E+03 -0.56816222911E+03 -0.44190075031E+03  0.86169752336E+03  0.81698886404E+02 0.  0.
         24    2    4    4    0    0 -0.37786245153E+01  0.88886911447E+02 -0.22682208876E+03  0.25675615361E+03  0.80995687771E+02 0.  0.
         13    1    5    5    0    0  0.20576960280E+03 -0.20586292500E+03 -0.14192363358E+03  0.32382555658E+03  0.00000000000E+00 0. -1.
        -14    1    5    5    0    0  0.26088157528E+03 -0.36229930412E+03 -0.29997711673E+03  0.53787196678E+03  0.00000000000E+00 0.  1.
         15    1    3    3    0    0 -0.14307337149E+03  0.14066978215E+03  0.41007623838E+03  0.45653439767E+03  0.17770000000E+01 0. -1.
        -16    1    3    3    0    0 -0.31979918208E+03  0.33860553551E+03  0.69873738670E+03  0.83973755490E+03  0.00000000000E+00 0.  1.
          4    1    6    6  502    0  0.32138725424E+02  0.75114971719E+02 -0.14823120666E+03  0.16925615875E+03  0.00000000000E+00 0. -1.
         -3    1    6    6    0  502 -0.35917349940E+02  0.13771939728E+02 -0.78590882101E+02  0.87499994857E+02  0.00000000000E+00 0.  1.
<mgrwt>
<rscale>  0 0.76204686E+03</rscale>
<asrwt>0</asrwt>
<pdfrwt beam="1">  1        1 0.21960126E+00 0.76204686E+03</pdfrwt>
<pdfrwt beam="2">  1       -2 0.15189499E+00 0.76204686E+03</pdfrwt>
<totfact> 0.19279619E+00</totfact>
</mgrwt>
</event>
<event>
12    3  0.1176505E-007  0.7324088E+03  0.7818608E-02  0.9663360E-01
          1   -1    0    0  501    0  0.00000000000E+00  0.00000000000E+00  0.23246643434E+04  0.23246643434E+04  0.00000000000E+00 0. -1.
         -2   -1    0    0    0  501 -0.00000000000E+00 -0.00000000000E+00 -0.34279694494E+03  0.34279694494E+03  0.00000000000E+00 0.  1.
        -24    2    1    2    0    0  0.36814280023E+03  0.56201202176E+03  0.15008725997E+04  0.16463189124E+04  0.79754417017E+02 0.  0.
    5000000    2    1    2    0    0 -0.36814280023E+03 -0.56201202176E+03  0.48099479878E+03  0.10211423759E+04  0.59999093445E+03 0.  0.
        -24    2    4    4    0    0  0.64158052647E+02 -0.21409411193E+03  0.38525484595E+03  0.45243963371E+03  0.79547352843E+02 0.  0.
         24    2    4    4    0    0 -0.43230085287E+03 -0.34791790983E+03  0.95739952836E+02  0.56870274218E+03  0.79534715802E+02 0.  0.
         13    1    5    5    0    0  0.22242306591E+02 -0.14909742302E+03  0.19077476489E+03  0.24314557917E+03  0.00000000000E+00 0. -1.
        -14    1    5    5    0    0  0.41915746056E+02 -0.64996688916E+02  0.19448008106E+03  0.20929405454E+03  0.00000000000E+00 0.  1.
         15    1    3    3    0    0  0.46613446495E+02  0.12662536838E+03  0.27785548190E+03  0.30889095789E+03  0.17770000000E+01 0. -1.
        -16    1    3    3    0    0  0.32152935373E+03  0.43538665338E+03  0.12230171178E+04  0.13374279546E+04  0.00000000000E+00 0.  1.
          4    1    6    6  502    0 -0.21255235268E+03 -0.12063388471E+03  0.38290579189E+02  0.24738068887E+03  0.00000000000E+00 0. -1.
         -3    1    6    6    0  502 -0.21974850019E+03 -0.22728402512E+03  0.57449373647E+02  0.32132205331E+03  0.00000000000E+00 0.  1.
<mgrwt>
<rscale>  0 0.73240876E+03</rscale>
<asrwt>0</asrwt>
<pdfrwt beam="1">  1        1 0.35764066E+00 0.73240876E+03</pdfrwt>
<pdfrwt beam="2">  1       -2 0.52737993E-01 0.73240876E+03</pdfrwt>
<totfact> 0.56147763E+00</totfact>
</mgrwt>
</event>
<event>
12    3  0.1176505E-007  0.9885370E+03  0.7818608E-02  0.9321207E-01
         -2   -1    0    0    0  501 -0.00000000000E+00  0.00000000000E+00  0.40687211452E+03  0.40687211452E+03  0.00000000000E+00 0.  1.
          1   -1    0    0  501    0  0.00000000000E+00 -0.00000000000E+00 -0.26579195691E+04  0.26579195691E+04  0.00000000000E+00 0. -1.
        -24    2    1    2    0    0  0.81956346119E+03 -0.40956370239E+03 -0.65495151595E+03  0.11290633352E+04  0.79973954872E+02 0.  0.
    5000000    2    1    2    0    0 -0.81956346119E+03  0.40956370239E+03 -0.15960959386E+04  0.19357283484E+04  0.60007941163E+03 0.  0.
        -24    2    4    4    0    0 -0.75692342774E+03  0.52486773744E+03 -0.14722177482E+04  0.17386181389E+04  0.83358968705E+02 0.  0.
         24    2    4    4    0    0 -0.62640033450E+02 -0.11530403505E+03 -0.12387819042E+03  0.19711020945E+03  0.79295865711E+02 0.  0.
         13    1    5    5    0    0 -0.13986043818E+03  0.13009011744E+03 -0.26819413978E+03  0.32926050087E+03  0.00000000000E+00 0. -1.
        -14    1    5    5    0    0 -0.61706298955E+03  0.39477762000E+03 -0.12040236084E+04  0.14093576381E+04  0.00000000000E+00 0.  1.
         15    1    3    3    0    0  0.19763653575E+03 -0.61861347671E+02 -0.15303784526E+03  0.25750876957E+03  0.17770000000E+01 0. -1.
        -16    1    3    3    0    0  0.62192692544E+03 -0.34770235472E+03 -0.50191367070E+03  0.87155456565E+03  0.00000000000E+00 0.  1.
          4    1    6    6  502    0 -0.26133052804E+02 -0.23656562233E+02  0.41387983932E+01  0.35492239119E+02  0.00000000000E+00 0. -1.
         -3    1    6    6    0  502 -0.36506980646E+02 -0.91647472822E+02 -0.12801698881E+03  0.16161797033E+03  0.00000000000E+00 0.  1.
<mgrwt>
<rscale>  0 0.98853698E+03</rscale>
<asrwt>0</asrwt>
<pdfrwt beam="1">  1        1 0.40891069E+00 0.98853698E+03</pdfrwt>
<pdfrwt beam="2">  1       -2 0.62595712E-01 0.98853698E+03</pdfrwt>
<totfact> 0.22282650E+00</totfact>
</mgrwt>
</event>
<event>
12    3  0.1176505E-007  0.4810801E+03  0.7818608E-02  0.1018839E+00
         -2   -1    0    0    0  501 -0.00000000000E+00  0.00000000000E+00  0.13949833943E+04  0.13949833943E+04  0.00000000000E+00 0.  1.
          1   -1    0    0  501    0  0.00000000000E+00 -0.00000000000E+00 -0.23115081449E+03  0.23115081449E+03  0.00000000000E+00 0. -1.
        -24    2    1    2    0    0 -0.13385794996E+03 -0.28767682211E+03  0.77878555495E+03  0.84524058906E+03  0.85139932209E+02 0.  0.
    5000000    2    1    2    0    0  0.13385794996E+03  0.28767682211E+03  0.38504702483E+03  0.78089361970E+03  0.60071434910E+03 0.  0.
        -24    2    4    4    0    0  0.80490618802E+02  0.45063986129E+03  0.37206305340E+03  0.59536431365E+03  0.80453253268E+02 0.  0.
         24    2    4    4    0    0  0.53367331158E+02 -0.16296303919E+03  0.12983971438E+02  0.18552930605E+03  0.69624102971E+02 0.  0.
         11    1    5    5    0    0  0.53599989429E+02  0.11300164713E+03  0.83279334733E+02  0.15025903871E+03  0.00000000000E+00 0. -1.
        -12    1    5    5    0    0  0.26890629373E+02  0.33763821416E+03  0.28878371866E+03  0.44510527494E+03  0.00000000000E+00 0.  1.
         15    1    3    3    0    0 -0.57490666276E+02 -0.21034829474E+03  0.55963021746E+03  0.60061694934E+03  0.17770000000E+01 0. -1.
        -16    1    3    3    0    0 -0.76367283684E+02 -0.77328527365E+02  0.21915533748E+03  0.24462363972E+03  0.00000000000E+00 0.  1.
          4    1    6    6  502    0  0.50548002050E+02 -0.14769755390E+03 -0.11508638627E+02  0.15653151984E+03  0.00000000000E+00 0. -1.
         -3    1    6    6    0  502  0.28193291074E+01 -0.15265485286E+02  0.24492610065E+02  0.28997786216E+02  0.00000000000E+00 0.  1.
<mgrwt>
<rscale>  0 0.48108007E+03</rscale>
<asrwt>0</asrwt>
<pdfrwt beam="1">  1        1 0.35561665E-01 0.48108007E+03</pdfrwt>
<pdfrwt beam="2">  1       -2 0.21461283E+00 0.48108007E+03</pdfrwt>
<totfact> 0.12137028E+01</totfact>
</mgrwt>
</event>
<event>
12    3  0.1176505E-007  0.7113079E+03  0.7818608E-02  0.9698087E-01
          1   -1    0    0  501    0  0.00000000000E+00  0.00000000000E+00  0.24878368632E+04  0.24878368632E+04  0.00000000000E+00 0. -1.
         -2   -1    0    0    0  501 -0.00000000000E+00 -0.00000000000E+00 -0.29284458267E+03  0.29284458267E+03  0.00000000000E+00 0.  1.
        -24    2    1    2    0    0 -0.51019332970E+03  0.43458871010E+03  0.14967603027E+04  0.16418939057E+04  0.79747183546E+02 0.  0.
    5000000    2    1    2    0    0  0.51019332970E+03 -0.43458871010E+03  0.69823197790E+03  0.11387875402E+04  0.60012047637E+03 0.  0.
        -24    2    4    4    0    0  0.50544219573E+03 -0.25935331447E+03  0.74449082862E+03  0.93993369596E+03  0.80453737988E+02 0.  0.
         24    2    4    4    0    0  0.47511339701E+01 -0.17523539563E+03 -0.46258850724E+02  0.19885384425E+03  0.81688144461E+02 0.  0.
         11    1    5    5    0    0  0.11919682102E+02 -0.13617504056E+02  0.50265056109E+02  0.53423694217E+02  0.00000000000E+00 0. -1.
        -12    1    5    5    0    0  0.49352251362E+03 -0.24573581042E+03  0.69422577251E+03  0.88651000174E+03  0.00000000000E+00 0.  1.
         15    1    3    3    0    0 -0.27714855265E+03  0.25200519418E+03  0.74324933731E+03  0.83231044285E+03  0.17770000000E+01 0. -1.
        -16    1    3    3    0    0 -0.23304477705E+03  0.18258351592E+03  0.75351096537E+03  0.80958346286E+03  0.00000000000E+00 0.  1.
          2    1    6    6  502    0 -0.14485385719E+02 -0.15061886678E+03 -0.10952237669E+02  0.15170966000E+03  0.00000000000E+00 0. -1.
         -1    1    6    6    0  502  0.19236519689E+02 -0.24616528856E+02 -0.35306613055E+02  0.47144184245E+02  0.00000000000E+00 0.  1.
<mgrwt>
<rscale>  0 0.71130793E+03</rscale>
<asrwt>0</asrwt>
<pdfrwt beam="1">  1        1 0.38274412E+00 0.71130793E+03</pdfrwt>
<pdfrwt beam="2">  1       -2 0.45053014E-01 0.71130793E+03</pdfrwt>
<totfact> 0.60086086E+00</totfact>
</mgrwt>
</event>
<event>
12    3  0.1213299E-007  0.9465877E+03  0.7818608E-02  0.9369148E-01
          1   -1    0    0  501    0  0.00000000000E+00  0.00000000000E+00  0.25269353803E+04  0.25269353803E+04  0.00000000000E+00 0. -1.
         -2   -1    0    0    0  501 -0.00000000000E+00 -0.00000000000E+00 -0.42461615792E+03  0.42461615792E+03  0.00000000000E+00 0.  1.
        -24    2    1    2    0    0  0.46130779251E+03 -0.78444812601E+03  0.13396639307E+04  0.16212105992E+04  0.73895994041E+02 0.  0.
    5000000    2    1    2    0    0 -0.46130779251E+03  0.78444812601E+03  0.76265529164E+03  0.13303409390E+04  0.60000014851E+03 0.  0.
        -24    2    4    4    0    0 -0.42652180089E+03  0.39457679782E+03  0.71784371005E+03  0.92701858255E+03  0.80325365364E+02 0.  0.
         24    2    4    4    0    0 -0.34785991617E+02  0.38987132820E+03  0.44811581594E+02  0.40332235643E+03  0.86319914196E+02 0.  0.
         13    1    5    5    0    0 -0.78555694066E+02  0.91158013662E+02  0.19858537297E+03  0.23220019570E+03  0.00000000000E+00 0. -1.
        -14    1    5    5    0    0 -0.34796610683E+03  0.30341878415E+03  0.51925833708E+03  0.69481838685E+03  0.00000000000E+00 0.  1.
         15    1    3    3    0    0  0.87579115276E+02 -0.21140439146E+03  0.34336977427E+03  0.41263528421E+03  0.17770000000E+01 0. -1.
        -16    1    3    3    0    0  0.37372867723E+03 -0.57304373455E+03  0.99629415642E+03  0.12085753150E+04  0.00000000000E+00 0.  1.
          2    1    6    6  502    0  0.20404416541E+02  0.18103223549E+03 -0.24888734470E+01  0.18219551309E+03  0.00000000000E+00 0. -1.
         -1    1    6    6    0  502 -0.55190408159E+02  0.20883909271E+03  0.47300455041E+02  0.22112684334E+03  0.00000000000E+00 0.  1.
<mgrwt>
<rscale>  0 0.94658772E+03</rscale>
<asrwt>0</asrwt>
<pdfrwt beam="1">  1        1 0.38875928E+00 0.94658772E+03</pdfrwt>
<pdfrwt beam="2">  1       -2 0.65325564E-01 0.94658772E+03</pdfrwt>
<totfact> 0.25195596E+00</totfact>
</mgrwt>
</event>
<event>
12    3  0.1176505E-007  0.5048512E+03  0.7818608E-02  0.1012520E+00
          1   -1    0    0  501    0  0.00000000000E+00  0.00000000000E+00  0.76243719692E+03  0.76243719692E+03  0.00000000000E+00 0. -1.
         -2   -1    0    0    0  501 -0.00000000000E+00 -0.00000000000E+00 -0.13424846844E+04  0.13424846844E+04  0.00000000000E+00 0.  1.
        -24    2    1    2    0    0  0.34424677644E+03  0.21666485001E+03  0.59443719392E+03  0.72476732775E+03  0.80514604563E+02 0.  0.
    5000000    2    1    2    0    0 -0.34424677644E+03 -0.21666485001E+03 -0.11744846814E+04  0.13801545536E+04  0.59996901969E+03 0.  0.
        -24    2    4    4    0    0  0.41707160106E+02  0.71276539620E+02 -0.82153806722E+01  0.11578472285E+03  0.80738945138E+02 0.  0.
         24    2    4    4    0    0 -0.38595393655E+03 -0.28794138963E+03 -0.11662693008E+04  0.12643698308E+04  0.81094401890E+02 0.  0.
         13    1    5    5    0    0 -0.18218898494E+02  0.45981028230E+02 -0.11044756203E+02  0.50677113760E+02  0.00000000000E+00 0. -1.
        -14    1    5    5    0    0  0.59926058600E+02  0.25295511389E+02  0.28293755309E+01  0.65107609092E+02  0.00000000000E+00 0.  1.
         15    1    3    3    0    0  0.86249391090E+02  0.61554185054E+02  0.22106183060E+03  0.24515172004E+03  0.17770000000E+01 0. -1.
        -16    1    3    3    0    0  0.25799738535E+03  0.15511066495E+03  0.37337536331E+03  0.47961560771E+03  0.00000000000E+00 0.  1.
          4    1    6    6  502    0 -0.32117041321E+03 -0.19784937120E+03 -0.91297175029E+03  0.98783208331E+03  0.00000000000E+00 0. -1.
         -3    1    6    6    0  502 -0.64783523338E+02 -0.90092018428E+02 -0.25329755048E+03  0.27653774744E+03  0.00000000000E+00 0.  1.
<mgrwt>
<rscale>  0 0.50485118E+03</rscale>
<asrwt>0</asrwt>
<pdfrwt beam="1">  1        1 0.11729803E+00 0.50485118E+03</pdfrwt>
<pdfrwt beam="2">  1       -2 0.20653610E+00 0.50485118E+03</pdfrwt>
<totfact> 0.27114759E+00</totfact>
</mgrwt>
</event>
<event>
12    3  0.1176505E-007  0.6282308E+03  0.7818608E-02  0.9848507E-01
          1   -1    0    0  501    0  0.00000000000E+00  0.00000000000E+00  0.10091348764E+04  0.10091348764E+04  0.00000000000E+00 0. -1.
         -2   -1    0    0    0  501 -0.00000000000E+00 -0.00000000000E+00 -0.56359989685E+03  0.56359989685E+03  0.00000000000E+00 0.  1.
        -24    2    1    2    0    0 -0.25347473571E+02 -0.61400907489E+03  0.34138762555E+03  0.70761118703E+03  0.80736873090E+02 0.  0.
    5000000    2    1    2    0    0  0.25347473571E+02  0.61400907489E+03  0.10414735401E+03  0.86512358622E+03  0.59995208944E+03 0.  0.
        -24    2    4    4    0    0 -0.11434753311E+02  0.16688988602E+03 -0.23199248649E+03  0.29915831913E+03  0.87705179305E+02 0.  0.
         24    2    4    4    0    0  0.36782226883E+02  0.44711918887E+03  0.33613984050E+03  0.56596526709E+03  0.77834374875E+02 0.  0.
         13    1    5    5    0    0  0.25215079173E+02  0.11798984166E+03 -0.11259300885E+03  0.16502905379E+03  0.00000000000E+00 0. -1.
        -14    1    5    5    0    0 -0.36649832485E+02  0.48900044356E+02 -0.11939947764E+03  0.13412926534E+03  0.00000000000E+00 0.  1.
         15    1    3    3    0    0 -0.49776339524E+02 -0.52967804017E+03  0.29322322963E+03  0.60746977731E+03  0.17770000000E+01 0. -1.
        -16    1    3    3    0    0  0.24428865953E+02 -0.84331034714E+02  0.48164395915E+02  0.10014140972E+03  0.00000000000E+00 0.  1.
          2    1    6    6  502    0  0.57779234560E+02  0.24703863670E+03  0.17499334460E+03  0.30820317750E+03  0.00000000000E+00 0. -1.
         -1    1    6    6    0  502 -0.20997007677E+02  0.20008055217E+03  0.16114649589E+03  0.25776208959E+03  0.00000000000E+00 0.  1.
<mgrwt>
<rscale>  0 0.62823081E+03</rscale>
<asrwt>0</asrwt>
<pdfrwt beam="1">  1        1 0.15525152E+00 0.62823081E+03</pdfrwt>
<pdfrwt beam="2">  1       -2 0.86707676E-01 0.62823081E+03</pdfrwt>
<totfact> 0.15611263E+01</totfact>
</mgrwt>
</event>
<event>
12    3  0.1176505E-007  0.3413534E+03  0.7818608E-02  0.1066221E+00
          3   -1    0    0  501    0  0.00000000000E+00  0.00000000000E+00  0.37986469294E+03  0.37986469294E+03  0.00000000000E+00 0. -1.
         -4   -1    0    0    0  501 -0.00000000000E+00 -0.00000000000E+00 -0.65778672748E+03  0.65778672748E+03  0.00000000000E+00 0.  1.
        -24    2    1    2    0    0 -0.18390734108E+03  0.16990340422E+03 -0.28496006051E+03  0.38747775520E+03  0.79042379907E+02 0.  0.
    5000000    2    1    2    0    0  0.18390734108E+03 -0.16990340422E+03  0.70380259719E+01  0.65017366522E+03  0.59998932013E+03 0.  0.
        -24    2    4    4    0    0 -0.87604991880E+02  0.26399432668E+02  0.21560541239E+03  0.24748140675E+03  0.79936150696E+02 0.  0.
         24    2    4    4    0    0  0.27151233296E+03 -0.19630283688E+03 -0.20856738642E+03  0.40269225847E+03  0.80043423446E+02 0.  0.
         13    1    5    5    0    0 -0.44808256543E+02  0.16210988745E+02  0.19145495621E+03  0.19729565699E+03  0.00000000000E+00 0. -1.
        -14    1    5    5    0    0 -0.42796735337E+02  0.10188443923E+02  0.24150456178E+02  0.50185749757E+02  0.00000000000E+00 0.  1.
         15    1    3    3    0    0 -0.14577523622E+03  0.16029520989E+03 -0.20458506337E+03  0.29799862364E+03  0.17770000000E+01 0. -1.
        -16    1    3    3    0    0 -0.38132104859E+02  0.96081943227E+01 -0.80374997134E+02  0.89479131552E+02  0.00000000000E+00 0.  1.
          4    1    6    6  502    0  0.26181086823E+03 -0.19013853671E+03 -0.17639417582E+03  0.36852747404E+03  0.00000000000E+00 0. -1.
         -3    1    6    6    0  502  0.97014647327E+01 -0.61643001784E+01 -0.32173210600E+02  0.34164784427E+02  0.00000000000E+00 0.  1.
<mgrwt>
<rscale>  0 0.34135339E+03</rscale>
<asrwt>0</asrwt>
<pdfrwt beam="1">  1        3 0.58440722E-01 0.34135339E+03</pdfrwt>
<pdfrwt beam="2">  1       -4 0.10119796E+00 0.34135339E+03</pdfrwt>
<totfact> 0.51440655E+00</totfact>
</mgrwt>
</event>
<event>
12    3  0.1176505E-007  0.8084003E+03  0.7818608E-02  0.9547937E-01
         -2   -1    0    0    0  501 -0.00000000000E+00  0.00000000000E+00  0.12059243224E+04  0.12059243224E+04  0.00000000000E+00 0.  1.
          1   -1    0    0  501    0  0.00000000000E+00 -0.00000000000E+00 -0.74583392755E+03  0.74583392755E+03  0.00000000000E+00 0. -1.
        -24    2    1    2    0    0 -0.22487612774E+03  0.72136075820E+03 -0.19641206739E+03  0.78477082795E+03  0.79730395025E+02 0.  0.
    5000000    2    1    2    0    0  0.22487612774E+03 -0.72136075820E+03  0.65650246226E+03  0.11669874220E+04  0.59994461735E+03 0.  0.
        -24    2    4    4    0    0  0.31891276010E+03 -0.38525836142E+03  0.11952475303E+03  0.52032632590E+03  0.79523362817E+02 0.  0.
         24    2    4    4    0    0 -0.94036632367E+02 -0.33610239678E+03  0.53697770923E+03  0.64666109611E+03  0.89542189335E+02 0.  0.
         13    1    5    5    0    0  0.28095473507E+03 -0.29094009472E+03  0.10253089586E+03  0.41724607425E+03  0.00000000000E+00 0. -1.
        -14    1    5    5    0    0  0.37958025035E+02 -0.94318266695E+02  0.16993857173E+02  0.10308025164E+03  0.00000000000E+00 0.  1.
         15    1    3    3    0    0 -0.76759729044E+02  0.29427812112E+03 -0.11674210568E+03  0.32576609023E+03  0.17770000000E+01 0. -1.
        -16    1    3    3    0    0 -0.14811639869E+03  0.42708263708E+03 -0.79669961712E+02  0.45900473773E+03  0.00000000000E+00 0.  1.
          4    1    6    6  502    0 -0.57180203564E+02 -0.28951496227E+03  0.48500606504E+03  0.56773177838E+03  0.00000000000E+00 0. -1.
         -3    1    6    6    0  502 -0.36856428802E+02 -0.46587434507E+02  0.51971644191E+02  0.78929317734E+02  0.00000000000E+00 0.  1.
<mgrwt>
<rscale>  0 0.80840030E+03</rscale>
<asrwt>0</asrwt>
<pdfrwt beam="1">  1        1 0.11474368E+00 0.80840030E+03</pdfrwt>
<pdfrwt beam="2">  1       -2 0.18552682E+00 0.80840030E+03</pdfrwt>
<totfact> 0.36625241E+00</totfact>
</mgrwt>
</event>
<event>
12    3  0.1176505E-007  0.6223267E+03  0.7818608E-02  0.9860138E-01
          1   -1    0    0  501    0  0.00000000000E+00  0.00000000000E+00  0.15196178512E+04  0.15196178512E+04  0.00000000000E+00 0. -1.
         -2   -1    0    0    0  501 -0.00000000000E+00 -0.00000000000E+00 -0.36256078175E+03  0.36256078175E+03  0.00000000000E+00 0.  1.
        -24    2    1    2    0    0 -0.59282114600E+03 -0.11293624584E+03  0.31794960255E+03  0.68704168861E+03  0.82114708514E+02 0.  0.
    5000000    2    1    2    0    0  0.59282114600E+03  0.11293624584E+03  0.83910746693E+03  0.11951369444E+04  0.60004955461E+03 0.  0.
        -24    2    4    4    0    0  0.48157685335E+02  0.30039131099E+02  0.56572011806E+03  0.57398610499E+03  0.78735536360E+02 0.  0.
         24    2    4    4    0    0  0.54466346066E+03  0.82897114738E+02  0.27338734887E+03  0.62115083939E+03  0.86933915933E+02 0.  0.
         11    1    5    5    0    0 -0.90909697170E+01  0.26534279471E+02  0.33770772759E+03  0.33887051065E+03  0.00000000000E+00 0. -1.
        -12    1    5    5    0    0  0.57248655052E+02  0.35048516277E+01  0.22801239048E+03  0.23511559434E+03  0.00000000000E+00 0.  1.
         15    1    3    3    0    0 -0.31122660725E+03 -0.97964300444E+02  0.18770092599E+03  0.37642236991E+03  0.17770000000E+01 0. -1.
        -16    1    3    3    0    0 -0.28159453875E+03 -0.14971945392E+02  0.13024867656E+03  0.31061931870E+03  0.00000000000E+00 0.  1.
          2    1    6    6  502    0  0.44680114345E+03  0.65564679166E+02  0.18452354007E+03  0.48783083727E+03  0.00000000000E+00 0. -1.
         -3    1    6    6    0  502  0.97862317206E+02  0.17332435571E+02  0.88863808798E+02  0.13332000212E+03  0.00000000000E+00 0.  1.
<mgrwt>
<rscale>  0 0.62232668E+03</rscale>
<asrwt>0</asrwt>
<pdfrwt beam="1">  1        1 0.23378736E+00 0.62232668E+03</pdfrwt>
<pdfrwt beam="2">  1       -2 0.55778582E-01 0.62232668E+03</pdfrwt>
<totfact> 0.17629373E+01</totfact>
</mgrwt>
</event>
<event>
12    3  0.1176505E-007  0.5682320E+03  0.7818608E-02  0.9973599E-01
          1   -1    0    0  501    0  0.00000000000E+00  0.00000000000E+00  0.13260011362E+04  0.13260011362E+04  0.00000000000E+00 0. -1.
         -2   -1    0    0    0  501 -0.00000000000E+00 -0.00000000000E+00 -0.27388502413E+03  0.27388502413E+03  0.00000000000E+00 0.  1.
        -24    2    1    2    0    0  0.42045972902E+02  0.44461817810E+03  0.45897471885E+03  0.64546794558E+03  0.80733438555E+02 0.  0.
    5000000    2    1    2    0    0 -0.42045972902E+02 -0.44461817810E+03  0.59314139326E+03  0.95441821479E+03  0.59970345021E+03 0.  0.
        -24    2    4    4    0    0 -0.76010048868E+02 -0.55116447114E+03  0.31543071194E+03  0.64437093564E+03  0.78470165612E+02 0.  0.
         24    2    4    4    0    0  0.33964075965E+02  0.10654629304E+03  0.27771068132E+03  0.31004727915E+03  0.80625193152E+02 0.  0.
         11    1    5    5    0    0 -0.43209985555E+02 -0.13317999775E+03  0.10657747449E+03  0.17596241849E+03  0.00000000000E+00 0. -1.
        -12    1    5    5    0    0 -0.32800063313E+02 -0.41798447339E+03  0.20885323746E+03  0.46840851716E+03  0.00000000000E+00 0.  1.
         15    1    3    3    0    0  0.39713659350E+02  0.34619831132E+03  0.40084095240E+03  0.53113752677E+03  0.17770000000E+01 0. -1.
        -16    1    3    3    0    0  0.23323135526E+01  0.98419866780E+02  0.58133766450E+02  0.11433041881E+03  0.00000000000E+00 0.  1.
          2    1    6    6  502    0  0.49351671286E+02  0.44895110102E+02  0.91119129960E+02  0.11293296337E+03  0.00000000000E+00 0. -1.
         -1    1    6    6    0  502 -0.15387595321E+02  0.61651182939E+02  0.18659155136E+03  0.19711431578E+03  0.00000000000E+00 0.  1.
<mgrwt>
<rscale>  0 0.56823200E+03</rscale>
<asrwt>0</asrwt>
<pdfrwt beam="1">  1        1 0.20400017E+00 0.56823200E+03</pdfrwt>
<pdfrwt beam="2">  1       -2 0.42136158E-01 0.56823200E+03</pdfrwt>
<totfact> 0.42503380E+01</totfact>
</mgrwt>
</event>
<event>
12    3  0.1176505E-007  0.6918535E+03  0.7818608E-02  0.9731266E-01
          1   -1    0    0  501    0  0.00000000000E+00  0.00000000000E+00  0.95450090372E+03  0.95450090372E+03  0.00000000000E+00 0. -1.
         -2   -1    0    0    0  501 -0.00000000000E+00 -0.00000000000E+00 -0.61255669797E+03  0.61255669797E+03  0.00000000000E+00 0.  1.
        -24    2    1    2    0    0 -0.83694543614E+02  0.56191016723E+03 -0.16580840006E+03  0.59723247756E+03  0.80289439259E+02 0.  0.
    5000000    2    1    2    0    0  0.83694543614E+02 -0.56191016723E+03  0.50775260581E+03  0.96982512413E+03  0.60000020834E+03 0.  0.
        -24    2    4    4    0    0  0.33364283761E+03 -0.35277733507E+03  0.30659540904E+03  0.57978139754E+03  0.79851943438E+02 0.  0.
         24    2    4    4    0    0 -0.24994829399E+03 -0.20913283217E+03  0.20115719677E+03  0.39004372659E+03  0.73886397099E+02 0.  0.
         13    1    5    5    0    0  0.29886676883E+03 -0.33353341426E+03  0.25743631033E+03  0.51656494056E+03  0.00000000000E+00 0. -1.
        -14    1    5    5    0    0  0.34776068780E+02 -0.19243920806E+02  0.49159098713E+02  0.63216456987E+02  0.00000000000E+00 0.  1.
         15    1    3    3    0    0 -0.36742100745E+02  0.37435087792E+03 -0.14352619546E+03  0.40260587213E+03  0.17770000000E+01 0. -1.
        -16    1    3    3    0    0 -0.46952442869E+02  0.18755928931E+03 -0.22282204606E+02  0.19462660543E+03  0.00000000000E+00 0.  1.
          4    1    6    6  502    0 -0.11227873436E+03 -0.10801185007E+03  0.54966068823E+02  0.16520999566E+03  0.00000000000E+00 0. -1.
         -3    1    6    6    0  502 -0.13766955964E+03 -0.10112098209E+03  0.14619112795E+03  0.22483373092E+03  0.00000000000E+00 0.  1.
<mgrwt>
<rscale>  0 0.69185349E+03</rscale>
<asrwt>0</asrwt>
<pdfrwt beam="1">  1        1 0.14684629E+00 0.69185349E+03</pdfrwt>
<pdfrwt beam="2">  1       -2 0.94239493E-01 0.69185349E+03</pdfrwt>
<totfact> 0.14095819E+01</totfact>
</mgrwt>
</event>
<event>
12    3  0.1176505E-007  0.6025812E+03  0.7818608E-02  0.9900065E-01
         -2   -1    0    0    0  501 -0.00000000000E+00  0.00000000000E+00  0.60219071457E+03  0.60219071457E+03  0.00000000000E+00 0.  1.
          1   -1    0    0  501    0  0.00000000000E+00 -0.00000000000E+00 -0.15148191732E+04  0.15148191732E+04  0.00000000000E+00 0. -1.
        -24    2    1    2    0    0  0.50184587539E+03  0.15349900575E+03 -0.11656740493E+04  0.12807387610E+04  0.78003572583E+02 0.  0.
    5000000    2    1    2    0    0 -0.50184587539E+03 -0.15349900575E+03  0.25304559060E+03  0.83627112683E+03  0.59992174427E+03 0.  0.
        -24    2    4    4    0    0 -0.54076287308E+03 -0.44181387582E+02  0.27958371610E+01  0.54850399778E+03  0.80450848123E+02 0.  0.
         24    2    4    4    0    0  0.38916997696E+02 -0.10931761816E+03  0.25024975344E+03  0.28776712905E+03  0.81976259462E+02 0.  0.
         13    1    5    5    0    0 -0.17529902039E+02 -0.95915491031E+01 -0.13090389420E+02  0.23888356471E+02  0.00000000000E+00 0. -1.
        -14    1    5    5    0    0 -0.52323297104E+03 -0.34589838479E+02  0.15886226581E+02  0.52461564131E+03  0.00000000000E+00 0.  1.
         15    1    3    3    0    0  0.30813929882E+03  0.13323691487E+03 -0.74854615542E+03  0.82038186687E+03  0.17770000000E+01 0. -1.
        -16    1    3    3    0    0  0.19370657657E+03  0.20262090872E+02 -0.41712789384E+03  0.46035689410E+03  0.00000000000E+00 0.  1.
          4    1    6    6  502    0 -0.93762857452E+01 -0.62035248847E+02  0.63952545663E+02  0.89589145161E+02  0.00000000000E+00 0. -1.
         -3    1    6    6    0  502  0.48293283441E+02 -0.47282369317E+02  0.18629720777E+03  0.19817798389E+03  0.00000000000E+00 0.  1.
<mgrwt>
<rscale>  0 0.60258120E+03</rscale>
<asrwt>0</asrwt>
<pdfrwt beam="1">  1        1 0.23304910E+00 0.60258120E+03</pdfrwt>
<pdfrwt beam="2">  1       -2 0.92644727E-01 0.60258120E+03</pdfrwt>
<totfact> 0.58628136E+00</totfact>
</mgrwt>
</event>
<event>
12    3  0.1176505E-007  0.7235931E+03  0.7818608E-02  0.9677714E-01
          1   -1    0    0  501    0  0.00000000000E+00  0.00000000000E+00  0.24285687844E+04  0.24285687844E+04  0.00000000000E+00 0. -1.
         -2   -1    0    0    0  501 -0.00000000000E+00 -0.00000000000E+00 -0.74757819162E+03  0.74757819162E+03  0.00000000000E+00 0.  1.
        -24    2    1    2    0    0 -0.60886949224E+03 -0.20682460625E+03 -0.50390088614E+03  0.82089584093E+03  0.80345517997E+02 0.  0.
    5000000    2    1    2    0    0  0.60886949224E+03  0.20682460625E+03  0.21848914789E+04  0.23552511351E+04  0.59996554767E+03 0.  0.
        -24    2    4    4    0    0  0.24740855237E+03 -0.15105947113E+03  0.12759478635E+04  0.13108804160E+04  0.79589943701E+02 0.  0.
         24    2    4    4    0    0  0.36146093987E+03  0.35788407738E+03  0.90894361541E+03  0.10443707191E+04  0.76135924204E+02 0.  0.
         13    1    5    5    0    0  0.19751473352E+03 -0.98962329220E+02  0.81895040397E+03  0.84822483854E+03  0.00000000000E+00 0. -1.
        -14    1    5    5    0    0  0.49893818853E+02 -0.52097141910E+02  0.45699745954E+03  0.46265557748E+03  0.00000000000E+00 0.  1.
         15    1    3    3    0    0 -0.23055954735E+03 -0.49942624284E+02 -0.14948658969E+03  0.27928725145E+03  0.17770000000E+01 0. -1.
        -16    1    3    3    0    0 -0.37830994490E+03 -0.15688198196E+03 -0.35441429644E+03  0.54160858948E+03  0.00000000000E+00 0.  1.
          2    1    6    6  502    0  0.22912448251E+02  0.23706824108E+02  0.28256288457E+02  0.43421326920E+02  0.00000000000E+00 0. -1.
         -1    1    6    6    0  502  0.33854849162E+03  0.33417725327E+03  0.88068732696E+03  0.10009493921E+04  0.00000000000E+00 0.  1.
<mgrwt>
<rscale>  0 0.72359310E+03</rscale>
<asrwt>0</asrwt>
<pdfrwt beam="1">  1        1 0.37362596E+00 0.72359310E+03</pdfrwt>
<pdfrwt beam="2">  1       -2 0.11501203E+00 0.72359310E+03</pdfrwt>
<totfact> 0.83426038E-01</totfact>
</mgrwt>
</event>
<event>
12    3  0.1176505E-007  0.4464341E+03  0.7818608E-02  0.1028791E+00
          1   -1    0    0  501    0  0.00000000000E+00  0.00000000000E+00  0.20169748632E+04  0.20169748632E+04  0.00000000000E+00 0. -1.
         -2   -1    0    0    0  501 -0.00000000000E+00 -0.00000000000E+00 -0.25634079451E+03  0.25634079451E+03  0.00000000000E+00 0.  1.
        -24    2    1    2    0    0  0.35535589072E+03  0.21584622985E+03  0.67684373417E+02  0.42974614266E+03  0.85048037694E+02 0.  0.
    5000000    2    1    2    0    0 -0.35535589072E+03 -0.21584622985E+03  0.16929496953E+04  0.18435695150E+04  0.59983537916E+03 0.  0.
        -24    2    4    4    0    0 -0.37004392831E+03 -0.22377815930E+03  0.17062051921E+04  0.17620431971E+04  0.81553035206E+02 0.  0.
         24    2    4    4    0    0  0.14688037593E+02  0.79319294521E+01 -0.13255496818E+02  0.81526317929E+02  0.78690395640E+02 0.  0.
         11    1    5    5    0    0 -0.24794269867E+03 -0.14905377986E+03  0.97753535593E+03  0.10194449388E+04  0.00000000000E+00 0. -1.
        -12    1    5    5    0    0 -0.12210122964E+03 -0.74724379448E+02  0.72866983614E+03  0.74259825832E+03  0.00000000000E+00 0.  1.
         15    1    3    3    0    0  0.14350995040E+03  0.12970214084E+03  0.53051793310E+02  0.20058764095E+03  0.17770000000E+01 0. -1.
        -16    1    3    3    0    0  0.21184594032E+03  0.86144089011E+02  0.14632580107E+02  0.22915850170E+03  0.00000000000E+00 0.  1.
          2    1    6    6  502    0  0.70182735616E+01 -0.13666952294E+02 -0.42023591006E+02  0.44743982275E+02  0.00000000000E+00 0. -1.
         -1    1    6    6    0  502  0.76697640319E+01  0.21598881746E+02  0.28768094188E+02  0.36782335654E+02  0.00000000000E+00 0.  1.
<mgrwt>
<rscale>  0 0.44643408E+03</rscale>
<asrwt>0</asrwt>
<pdfrwt beam="1">  1        1 0.31030381E+00 0.44643408E+03</pdfrwt>
<pdfrwt beam="2">  1       -2 0.39437047E-01 0.44643408E+03</pdfrwt>
<totfact> 0.17003630E+01</totfact>
</mgrwt>
</event>
<event>
12    3  0.1176505E-007  0.5660552E+03  0.7818608E-02  0.9978446E-01
          1   -1    0    0  501    0  0.00000000000E+00  0.00000000000E+00  0.20183729967E+04  0.20183729967E+04  0.00000000000E+00 0. -1.
         -2   -1    0    0    0  501 -0.00000000000E+00 -0.00000000000E+00 -0.11487866406E+04  0.11487866406E+04  0.00000000000E+00 0.  1.
        -24    2    1    2    0    0 -0.21063366241E+02  0.46981605203E+03 -0.10220727061E+04  0.11276377869E+04  0.75918204031E+02 0.  0.
    5000000    2    1    2    0    0  0.21063366241E+02 -0.46981605203E+03  0.18916590622E+04  0.20395218505E+04  0.60008714588E+03 0.  0.
        -24    2    4    4    0    0  0.21644301249E+03 -0.39602935068E+03  0.16400662239E+04  0.17029716281E+04  0.81291592699E+02 0.  0.
         24    2    4    4    0    0 -0.19537964625E+03 -0.73786701346E+02  0.25159283832E+03  0.33655022236E+03  0.79683200327E+02 0.  0.
         13    1    5    5    0    0  0.20975657126E+03 -0.36289952304E+03  0.15727457439E+04  0.16276434062E+04  0.00000000000E+00 0. -1.
        -14    1    5    5    0    0  0.66864412295E+01 -0.33129827639E+02  0.67320480027E+02  0.75328221848E+02  0.00000000000E+00 0.  1.
         15    1    3    3    0    0 -0.11177583993E+02  0.25813821631E+03 -0.47088369529E+03  0.53711720259E+03  0.17770000000E+01 0. -1.
        -16    1    3    3    0    0 -0.98857822475E+01  0.21167783571E+03 -0.55118901086E+03  0.59052058433E+03  0.00000000000E+00 0.  1.
          4    1    6    6  502    0 -0.26206394919E+02 -0.10674030133E+02  0.18312046920E+01  0.28356011084E+02  0.00000000000E+00 0. -1.
         -3    1    6    6    0  502 -0.16917325133E+03 -0.63112671214E+02  0.24976163363E+03  0.30819421128E+03  0.00000000000E+00 0.  1.
<mgrwt>
<rscale>  0 0.56605521E+03</rscale>
<asrwt>0</asrwt>
<pdfrwt beam="1">  1        1 0.31051892E+00 0.56605521E+03</pdfrwt>
<pdfrwt beam="2">  1       -2 0.17673641E+00 0.56605521E+03</pdfrwt>
<totfact> 0.53310033E-01</totfact>
</mgrwt>
</event>
<event>
12    3  0.1176505E-007  0.6350849E+03  0.7818608E-02  0.9835176E-01
         -2   -1    0    0    0  501 -0.00000000000E+00  0.00000000000E+00  0.57844597624E+03  0.57844597624E+03  0.00000000000E+00 0.  1.
          1   -1    0    0  501    0  0.00000000000E+00 -0.00000000000E+00 -0.93305370143E+03  0.93305370143E+03  0.00000000000E+00 0. -1.
        -24    2    1    2    0    0 -0.22265765318E+03 -0.44431281559E+03  0.21430144319E+03  0.54682368082E+03  0.78107110597E+02 0.  0.
    5000000    2    1    2    0    0  0.22265765318E+03  0.44431281559E+03 -0.56890916838E+03  0.96467599684E+03  0.59995985565E+03 0.  0.
        -24    2    4    4    0    0 -0.19174743083E+03  0.18492351685E+03 -0.25538719301E+03  0.37845016103E+03  0.83893514128E+02 0.  0.
         24    2    4    4    0    0  0.41440508401E+03  0.25938929874E+03 -0.31352197537E+03  0.58622583582E+03  0.79688892482E+02 0.  0.
         13    1    5    5    0    0 -0.97415246103E+02  0.39597497897E+02 -0.82139011316E+02  0.13343353849E+03  0.00000000000E+00 0. -1.
        -14    1    5    5    0    0 -0.94332184725E+02  0.14532601895E+03 -0.17324818170E+03  0.24501662254E+03  0.00000000000E+00 0.  1.
         15    1    3    3    0    0 -0.58042258619E+02 -0.18211671155E+03  0.10765518747E+03  0.21938139741E+03  0.17770000000E+01 0. -1.
        -16    1    3    3    0    0 -0.16461539456E+03 -0.26219610404E+03  0.10664625572E+03  0.32744228341E+03  0.00000000000E+00 0.  1.
          4    1    6    6  502    0  0.26138279176E+03  0.13724328703E+03 -0.22581683863E+03  0.37168525431E+03  0.00000000000E+00 0. -1.
         -3    1    6    6    0  502  0.15302229225E+03  0.12214601172E+03 -0.87705136740E+02  0.21454058151E+03  0.00000000000E+00 0.  1.
<mgrwt>
<rscale>  0 0.63508494E+03</rscale>
<asrwt>0</asrwt>
<pdfrwt beam="1">  1        1 0.14354672E+00 0.63508494E+03</pdfrwt>
<pdfrwt beam="2">  1       -2 0.88991688E-01 0.63508494E+03</pdfrwt>
<totfact> 0.16853042E+01</totfact>
</mgrwt>
</event>
<event>
12    3  0.1176505E-007  0.2108001E+04  0.7818608E-02  0.8557727E-01
         -2   -1    0    0    0  501 -0.00000000000E+00  0.00000000000E+00  0.26949506213E+04  0.26949506213E+04  0.00000000000E+00 0.  1.
          1   -1    0    0  501    0  0.00000000000E+00 -0.00000000000E+00 -0.17622221578E+04  0.17622221578E+04  0.00000000000E+00 0. -1.
        -24    2    1    2    0    0 -0.20133620261E+04  0.50161053186E+03  0.98146891647E+03  0.22967363832E+04  0.80479847559E+02 0.  0.
    5000000    2    1    2    0    0  0.20133620261E+04 -0.50161053186E+03 -0.48740453017E+02  0.21604363960E+04  0.59989166974E+03 0.  0.
        -24    2    4    4    0    0  0.19140501708E+04 -0.58949599631E+03 -0.21855140401E+02  0.20043806926E+04  0.77270483134E+02 0.  0.
         24    2    4    4    0    0  0.99311855305E+02  0.87885464456E+02 -0.26885312616E+02  0.15605570340E+03  0.77742286188E+02 0.  0.
         11    1    5    5    0    0  0.26252961766E+03 -0.53414517414E+02 -0.13389876577E+01  0.26791174611E+03  0.00000000000E+00 0. -1.
        -12    1    5    5    0    0  0.16515205531E+04 -0.53608147890E+03 -0.20516152744E+02  0.17364689465E+04  0.00000000000E+00 0.  1.
         15    1    3    3    0    0 -0.68900954824E+03  0.20259154938E+03  0.31340545232E+03  0.78358383643E+03  0.17770000000E+01 0. -1.
        -16    1    3    3    0    0 -0.13243524779E+04  0.29901898248E+03  0.66806346415E+03  0.15131525467E+04  0.00000000000E+00 0.  1.
          2    1    6    6  502    0  0.63453753591E+02  0.73860341403E+02  0.15714456932E+02  0.98634035878E+02  0.00000000000E+00 0. -1.
         -1    1    6    6    0  502  0.35858101714E+02  0.14025123054E+02 -0.42599769548E+02  0.57421667520E+02  0.00000000000E+00 0.  1.
<mgrwt>
<rscale>  0 0.21080011E+04</rscale>
<asrwt>0</asrwt>
<pdfrwt beam="1">  1        1 0.27111110E+00 0.21080011E+04</pdfrwt>
<pdfrwt beam="2">  1       -2 0.41460779E+00 0.21080011E+04</pdfrwt>
<totfact> 0.19823599E-02</totfact>
</mgrwt>
</event>
<event>
12    3  0.1176505E-007  0.4702447E+03  0.7818608E-02  0.1021851E+00
          1   -1    0    0  501    0  0.00000000000E+00  0.00000000000E+00  0.18149375208E+04  0.18149375208E+04  0.00000000000E+00 0. -1.
         -2   -1    0    0    0  501 -0.00000000000E+00 -0.00000000000E+00 -0.14850929678E+03  0.14850929678E+03  0.00000000000E+00 0.  1.
        -24    2    1    2    0    0 -0.29546460729E+03 -0.10363479925E+03  0.81073798053E+03  0.87243455654E+03  0.76200240072E+02 0.  0.
    5000000    2    1    2    0    0  0.29546460729E+03  0.10363479925E+03  0.85569024352E+03  0.10910122611E+04  0.60005204373E+03 0.  0.
        -24    2    4    4    0    0  0.26363049617E+03  0.31534217047E+03  0.69571810825E+03  0.81193253274E+03  0.79177197368E+02 0.  0.
         24    2    4    4    0    0  0.31834111117E+02 -0.21170737121E+03  0.15997213527E+03  0.27907972834E+03  0.80380277747E+02 0.  0.
         13    1    5    5    0    0  0.21853588197E+02  0.35652746265E+02  0.33817117285E+02  0.53780061871E+02  0.00000000000E+00 0. -1.
        -14    1    5    5    0    0  0.24177690797E+03  0.27968942420E+03  0.66190099097E+03  0.75815247087E+03  0.00000000000E+00 0.  1.
         15    1    3    3    0    0 -0.12354099904E+02 -0.14064187144E+01  0.97177908839E+02  0.97986251553E+02  0.17770000000E+01 0. -1.
        -16    1    3    3    0    0 -0.28311050738E+03 -0.10222838054E+03  0.71356007169E+03  0.77444830499E+03  0.00000000000E+00 0.  1.
          4    1    6    6  502    0 -0.25880171474E+01 -0.50326471207E+02  0.16808258360E+01  0.50420994758E+02  0.00000000000E+00 0. -1.
         -3    1    6    6    0  502  0.34422128265E+02 -0.16138090000E+03  0.15829130943E+03  0.22865873358E+03  0.00000000000E+00 0.  1.
<mgrwt>
<rscale>  0 0.47024470E+03</rscale>
<asrwt>0</asrwt>
<pdfrwt beam="1">  1        1 0.27922114E+00 0.47024470E+03</pdfrwt>
<pdfrwt beam="2">  1       -2 0.22847585E-01 0.47024470E+03</pdfrwt>
<totfact> 0.62910047E+01</totfact>
</mgrwt>
</event>
<event>
12    3  0.1176505E-007  0.4814615E+03  0.7818608E-02  0.1018734E+00
         -2   -1    0    0    0  501 -0.00000000000E+00  0.00000000000E+00  0.26493653058E+03  0.26493653058E+03  0.00000000000E+00 0.  1.
          1   -1    0    0  501    0  0.00000000000E+00 -0.00000000000E+00 -0.10419241512E+04  0.10419241512E+04  0.00000000000E+00 0. -1.
        -24    2    1    2    0    0 -0.85074488524E+02  0.29780386703E+03 -0.65671229175E+02  0.32608964881E+03  0.78082884858E+02 0.  0.
    5000000    2    1    2    0    0  0.85074488524E+02 -0.29780386703E+03 -0.71131639150E+03  0.98077103301E+03  0.60001333199E+03 0.  0.
        -24    2    4    4    0    0  0.18694509315E+03 -0.42458006939E+03 -0.39450608465E+03  0.61435487973E+03  0.81118211501E+02 0.  0.
         24    2    4    4    0    0 -0.10187060463E+03  0.12677620237E+03 -0.31681030684E+03  0.36641615328E+03  0.86268193978E+02 0.  0.
         13    1    5    5    0    0  0.74834744934E+02 -0.25405112331E+03 -0.19434899642E+03  0.32850227505E+03  0.00000000000E+00 0. -1.
        -14    1    5    5    0    0  0.11211034822E+03 -0.17052894608E+03 -0.20015708824E+03  0.28585260468E+03  0.00000000000E+00 0.  1.
         15    1    3    3    0    0 -0.20439725575E+02  0.51121447912E+02 -0.43365511042E+02  0.70106419786E+02  0.17770000000E+01 0. -1.
        -16    1    3    3    0    0 -0.64634762949E+02  0.24668241912E+03 -0.22305718133E+02  0.25598322903E+03  0.00000000000E+00 0.  1.
          4    1    6    6  502    0 -0.88418401977E+02  0.41677083081E+02 -0.15998959422E+03  0.18748723509E+03  0.00000000000E+00 0. -1.
         -3    1    6    6    0  502 -0.13452202650E+02  0.85099119286E+02 -0.15682071262E+03  0.17892891819E+03  0.00000000000E+00 0.  1.
<mgrwt>
<rscale>  0 0.48146154E+03</rscale>
<asrwt>0</asrwt>
<pdfrwt beam="1">  1        1 0.16029602E+00 0.48146154E+03</pdfrwt>
<pdfrwt beam="2">  1       -2 0.40759466E-01 0.48146154E+03</pdfrwt>
<totfact> 0.73524477E+01</totfact>
</mgrwt>
</event>
<event>
12    3  0.1176505E-007  0.7969323E+03  0.7818608E-02  0.9564468E-01
          1   -1    0    0  501    0  0.00000000000E+00  0.00000000000E+00  0.21148690804E+04  0.21148690804E+04  0.00000000000E+00 0. -1.
         -2   -1    0    0    0  501 -0.00000000000E+00 -0.00000000000E+00 -0.36016425924E+03  0.36016425924E+03  0.00000000000E+00 0.  1.
        -24    2    1    2    0    0 -0.55955443616E+03 -0.51540979509E+03  0.62427989151E+03  0.98620304577E+03  0.64207792585E+02 0.  0.
    5000000    2    1    2    0    0  0.55955443616E+03  0.51540979509E+03  0.11304249297E+04  0.14888302939E+04  0.60000558208E+03 0.  0.
        -24    2    4    4    0    0  0.53247459310E+03  0.31839520322E+03  0.43696463845E+03  0.76294464732E+03  0.79004695379E+02 0.  0.
         24    2    4    4    0    0  0.27079843059E+02  0.19701459187E+03  0.69346029125E+03  0.72588564660E+03  0.80465701353E+02 0.  0.
         11    1    5    5    0    0  0.12692851241E+02 -0.22273827182E+01  0.17117392764E+01  0.12999990683E+02  0.00000000000E+00 0. -1.
        -12    1    5    5    0    0  0.51978174186E+03  0.32062258594E+03  0.43525289917E+03  0.74994465664E+03  0.00000000000E+00 0.  1.
         15    1    3    3    0    0 -0.31042536081E+03 -0.31221188867E+03  0.32815596277E+03  0.54911716572E+03  0.17770000000E+01 0. -1.
        -16    1    3    3    0    0 -0.24912907535E+03 -0.20319790642E+03  0.29612392875E+03  0.43708588005E+03  0.00000000000E+00 0.  1.
          4    1    6    6  502    0  0.29143833899E+02  0.20148139462E+03  0.62652709039E+03  0.65877181970E+03  0.00000000000E+00 0. -1.
         -3    1    6    6    0  502 -0.20639908402E+01 -0.44668027471E+01  0.66933200856E+02  0.67113826904E+02  0.00000000000E+00 0.  1.
<mgrwt>
<rscale>  0 0.79693230E+03</rscale>
<asrwt>0</asrwt>
<pdfrwt beam="1">  1        1 0.32536447E+00 0.79693230E+03</pdfrwt>
<pdfrwt beam="2">  1       -2 0.55409887E-01 0.79693230E+03</pdfrwt>
<totfact> 0.69437885E+00</totfact>
</mgrwt>
</event>
<event>
12    3  0.1176505E-007  0.1001336E+04  0.7818608E-02  0.9307081E-01
         -2   -1    0    0    0  501 -0.00000000000E+00  0.00000000000E+00  0.53502604871E+03  0.53502604871E+03  0.00000000000E+00 0.  1.
          1   -1    0    0  501    0  0.00000000000E+00 -0.00000000000E+00 -0.24119796962E+04  0.24119796962E+04  0.00000000000E+00 0. -1.
        -24    2    1    2    0    0 -0.40756574798E+03  0.91355674313E+03 -0.43884552039E+03  0.10952459304E+04  0.79262194136E+02 0.  0.
    5000000    2    1    2    0    0  0.40756574798E+03 -0.91355674313E+03 -0.14381081271E+04  0.18517598145E+04  0.60013637082E+03 0.  0.
        -24    2    4    4    0    0  0.26257442422E+03 -0.58294941289E+03 -0.42109841515E+03  0.76963441031E+03  0.78980402949E+02 0.  0.
         24    2    4    4    0    0  0.14499132376E+03 -0.33060733024E+03 -0.10170097119E+04  0.10821254042E+04  0.79768072943E+02 0.  0.
         13    1    5    5    0    0  0.93396196890E+02 -0.18462802874E+03 -0.94503581613E+02  0.22746710867E+03  0.00000000000E+00 0. -1.
        -14    1    5    5    0    0  0.16917822733E+03 -0.39832138415E+03 -0.32659483354E+03  0.54216730164E+03  0.00000000000E+00 0.  1.
         15    1    3    3    0    0 -0.23821351741E+03  0.57847214736E+03 -0.31088463693E+03  0.69859009466E+03  0.17770000000E+01 0. -1.
        -16    1    3    3    0    0 -0.16935223057E+03  0.33508459576E+03 -0.12796088346E+03  0.39665583573E+03  0.00000000000E+00 0.  1.
          2    1    6    6  502    0  0.10737048260E+03 -0.21396547909E+03 -0.56121731650E+03  0.61014303496E+03  0.00000000000E+00 0. -1.
         -1    1    6    6    0  502  0.37620841158E+02 -0.11664185116E+03 -0.45579239543E+03  0.47198236922E+03  0.00000000000E+00 0.  1.
<mgrwt>
<rscale>  0 0.10013357E+04</rscale>
<asrwt>0</asrwt>
<pdfrwt beam="1">  1        1 0.37107379E+00 0.10013357E+04</pdfrwt>
<pdfrwt beam="2">  1       -2 0.82311702E-01 0.10013357E+04</pdfrwt>
<totfact> 0.17968150E+00</totfact>
</mgrwt>
</event>
<event>
12    3  0.1176505E-007  0.6243368E+03  0.7818608E-02  0.9856163E-01
         -4   -1    0    0    0  501 -0.00000000000E+00  0.00000000000E+00  0.73318920927E+03  0.73318920927E+03  0.00000000000E+00 0.  1.
          3   -1    0    0  501    0  0.00000000000E+00 -0.00000000000E+00 -0.86721162951E+03  0.86721162951E+03  0.00000000000E+00 0. -1.
        -24    2    1    2    0    0 -0.37660949454E+03  0.47499284736E+03 -0.37088968612E+03  0.71520236166E+03  0.80637103299E+02 0.  0.
    5000000    2    1    2    0    0  0.37660949454E+03 -0.47499284736E+03  0.23686726588E+03  0.88519847712E+03  0.60001443802E+03 0.  0.
        -24    2    4    4    0    0  0.25701647321E+03 -0.38568494612E+03  0.42414048891E+03  0.63287379104E+03  0.76313405714E+02 0.  0.
         24    2    4    4    0    0  0.11959302133E+03 -0.89307901242E+02 -0.18727322303E+03  0.25232468608E+03  0.79486446417E+02 0.  0.
         13    1    5    5    0    0  0.13983360191E+02 -0.69097923300E+02  0.68491472406E+02  0.98291093996E+02  0.00000000000E+00 0. -1.
        -14    1    5    5    0    0  0.24303311302E+03 -0.31658702282E+03  0.35564901651E+03  0.53458269705E+03  0.00000000000E+00 0.  1.
         15    1    3    3    0    0 -0.15633747634E+03  0.14299076441E+03 -0.10752131567E+03  0.23759578335E+03  0.17770000000E+01 0. -1.
        -16    1    3    3    0    0 -0.22027201820E+03  0.33200208295E+03 -0.26336837045E+03  0.47760657831E+03  0.00000000000E+00 0.  1.
          2    1    6    6  502    0  0.45476626029E+02 -0.82659074504E+02 -0.11267896588E+03  0.14695984303E+03  0.00000000000E+00 0. -1.
         -1    1    6    6    0  502  0.74116395301E+02 -0.66488267377E+01 -0.74594257155E+02  0.10536484305E+03  0.00000000000E+00 0.  1.
<mgrwt>
<rscale>  0 0.62433679E+03</rscale>
<asrwt>0</asrwt>
<pdfrwt beam="1">  1        3 0.13341717E+00 0.62433679E+03</pdfrwt>
<pdfrwt beam="2">  1       -4 0.11279834E+00 0.62433679E+03</pdfrwt>
<totfact> 0.60755805E-01</totfact>
</mgrwt>
</event>
<event>
12    3  0.1176505E-007  0.1427519E+04  0.7818608E-02  0.8934136E-01
         -2   -1    0    0    0  501 -0.00000000000E+00  0.00000000000E+00  0.21753519694E+04  0.21753519694E+04  0.00000000000E+00 0.  1.
          1   -1    0    0  501    0  0.00000000000E+00 -0.00000000000E+00 -0.97959257734E+03  0.97959257734E+03  0.00000000000E+00 0. -1.
        -24    2    1    2    0    0  0.97206038181E+03 -0.96234984943E+03  0.87980768317E+03  0.16282552677E+04  0.78326489760E+02 0.  0.
    5000000    2    1    2    0    0 -0.97206038181E+03  0.96234984943E+03  0.31595170894E+03  0.15266892790E+04  0.59994670912E+03 0.  0.
        -24    2    4    4    0    0 -0.70623743028E+03  0.29373325026E+03  0.13678066184E+03  0.78083625900E+03  0.77108907922E+02 0.  0.
         24    2    4    4    0    0 -0.26582295152E+03  0.66861659917E+03  0.17917104710E+03  0.74585302004E+03  0.80526176725E+02 0.  0.
         13    1    5    5    0    0 -0.12668098850E+03  0.52965610863E+02  0.55156926190E+02  0.14797200846E+03  0.00000000000E+00 0. -1.
        -14    1    5    5    0    0 -0.57955644179E+03  0.24076763940E+03  0.81623735648E+02  0.63286425054E+03  0.00000000000E+00 0.  1.
         15    1    3    3    0    0  0.21539701031E+03 -0.25001694846E+03  0.23717744966E+03  0.40639961482E+03  0.17770000000E+01 0. -1.
        -16    1    3    3    0    0  0.75666337150E+03 -0.71233290097E+03  0.64263023351E+03  0.12218556529E+04  0.00000000000E+00 0.  1.
          4    1    6    6  502    0 -0.16599889717E+03  0.47361403156E+03  0.15607174008E+03  0.52557042611E+03  0.00000000000E+00 0. -1.
         -3    1    6    6    0  502 -0.99824054350E+02  0.19500256761E+03  0.23099307022E+02  0.22028259393E+03  0.00000000000E+00 0.  1.
<mgrwt>
<rscale>  0 0.14275191E+04</rscale>
<asrwt>0</asrwt>
<pdfrwt beam="1">  1        1 0.15070655E+00 0.14275191E+04</pdfrwt>
<pdfrwt beam="2">  1       -2 0.33466953E+00 0.14275191E+04</pdfrwt>
<totfact> 0.25590844E-01</totfact>
</mgrwt>
</event>
<event>
12    3  0.1176505E-007  0.5817038E+03  0.7818608E-02  0.9944109E-01
          1   -1    0    0  501    0  0.00000000000E+00  0.00000000000E+00  0.50088161592E+03  0.50088161592E+03  0.00000000000E+00 0. -1.
         -2   -1    0    0    0  501 -0.00000000000E+00 -0.00000000000E+00 -0.76358532955E+03  0.76358532955E+03  0.00000000000E+00 0.  1.
        -24    2    1    2    0    0  0.83427483567E+02  0.42014116236E+03  0.93436469127E+02  0.44577197076E+03  0.80644496611E+02 0.  0.
    5000000    2    1    2    0    0 -0.83427483567E+02 -0.42014116236E+03 -0.35614018276E+03  0.81869497470E+03  0.59995574045E+03 0.  0.
        -24    2    4    4    0    0  0.15195060996E+03  0.72200372613E+02 -0.60523115391E+02  0.19412770726E+03  0.75634896424E+02 0.  0.
         24    2    4    4    0    0 -0.23537809353E+03 -0.49234153497E+03 -0.29561706737E+03  0.62456726744E+03  0.69941311573E+02 0.  0.
         11    1    5    5    0    0  0.62407166100E+02 -0.96322916021E+01 -0.20291908645E+02  0.66326442529E+02  0.00000000000E+00 0. -1.
        -12    1    5    5    0    0  0.89543443863E+02  0.81832664215E+02 -0.40231206747E+02  0.12780126473E+03  0.00000000000E+00 0.  1.
         15    1    3    3    0    0 -0.68399998181E+01  0.77464014651E+02 -0.51233060691E+01  0.77954250413E+02  0.17770000000E+01 0. -1.
        -16    1    3    3    0    0  0.90267483385E+02  0.34267714771E+03  0.98559775196E+02  0.36781772035E+03  0.00000000000E+00 0.  1.
          4    1    6    6  502    0 -0.21370381756E+02 -0.72236621758E+02 -0.65990701570E+02  0.10014786784E+03  0.00000000000E+00 0. -1.
         -3    1    6    6    0  502 -0.21400771177E+03 -0.42010491321E+03 -0.22962636580E+03  0.52441939960E+03  0.00000000000E+00 0.  1.
<mgrwt>
<rscale>  0 0.58170380E+03</rscale>
<asrwt>0</asrwt>
<pdfrwt beam="1">  1        1 0.77058710E-01 0.58170380E+03</pdfrwt>
<pdfrwt beam="2">  1       -2 0.11747467E+00 0.58170380E+03</pdfrwt>
<totfact> 0.22395876E+01</totfact>
</mgrwt>
</event>
<event>
12    3  0.1176505E-007  0.7278849E+03  0.7818608E-02  0.9670699E-01
          1   -1    0    0  501    0  0.00000000000E+00  0.00000000000E+00  0.53368341090E+03  0.53368341090E+03  0.00000000000E+00 0. -1.
         -2   -1    0    0    0  501 -0.00000000000E+00 -0.00000000000E+00 -0.13017830060E+04  0.13017830060E+04  0.00000000000E+00 0.  1.
        -24    2    1    2    0    0  0.15408887147E+03 -0.70418906427E+03 -0.27576144367E+03  0.77617710216E+03  0.82346229733E+02 0.  0.
    5000000    2    1    2    0    0 -0.15408887147E+03  0.70418906427E+03 -0.49233815146E+03  0.10592893148E+04  0.60005947909E+03 0.  0.
        -24    2    4    4    0    0 -0.98760909049E+02  0.21173174726E+03  0.11529748917E+03  0.27261165981E+03  0.80246844794E+02 0.  0.
         24    2    4    4    0    0 -0.55327962426E+02  0.49245731701E+03 -0.60763564063E+03  0.78667765496E+03  0.63759458519E+02 0.  0.
         11    1    5    5    0    0 -0.55944242578E+02  0.84626842717E+02  0.91050980420E+02  0.13631486280E+03  0.00000000000E+00 0. -1.
        -12    1    5    5    0    0 -0.42816666471E+02  0.12710490454E+03  0.24246508751E+02  0.13629679700E+03  0.00000000000E+00 0.  1.
         15    1    3    3    0    0  0.93200991442E+02 -0.54780330172E+03 -0.18680417913E+03  0.58623701798E+03  0.17770000000E+01 0. -1.
        -16    1    3    3    0    0  0.60887880033E+02 -0.15638576255E+03 -0.88957264542E+02  0.18994008418E+03  0.00000000000E+00 0.  1.
          4    1    6    6  502    0 -0.21675476177E+01  0.16046854538E+03 -0.15770645080E+03  0.22500261541E+03  0.00000000000E+00 0. -1.
         -3    1    6    6    0  502 -0.53160414808E+02  0.33198877163E+03 -0.44992918983E+03  0.56167503955E+03  0.00000000000E+00 0.  1.
<mgrwt>
<rscale>  0 0.72788486E+03</rscale>
<asrwt>0</asrwt>
<pdfrwt beam="1">  1        1 0.82105142E-01 0.72788486E+03</pdfrwt>
<pdfrwt beam="2">  1       -2 0.20027431E+00 0.72788486E+03</pdfrwt>
<totfact> 0.48251934E+00</totfact>
</mgrwt>
</event>
<event>
12    3  0.1176505E-007  0.6884146E+03  0.7818608E-02  0.9737253E-01
          1   -1    0    0  501    0  0.00000000000E+00  0.00000000000E+00  0.70416098083E+03  0.70416098083E+03  0.00000000000E+00 0. -1.
         -2   -1    0    0    0  501 -0.00000000000E+00 -0.00000000000E+00 -0.95245819605E+03  0.95245819605E+03  0.00000000000E+00 0.  1.
        -24    2    1    2    0    0  0.82186662124E+02 -0.67284975215E+03 -0.30859344035E+03  0.74932027487E+03  0.82277132397E+02 0.  0.
    5000000    2    1    2    0    0 -0.82186662124E+02  0.67284975215E+03  0.60296225131E+02  0.90729890201E+03  0.60006185217E+03 0.  0.
        -24    2    4    4    0    0 -0.12259573537E+02  0.39136794667E+03  0.31849795893E+03  0.51086487696E+03  0.78884763051E+02 0.  0.
         24    2    4    4    0    0 -0.69927088587E+02  0.28148180548E+03 -0.25820173380E+03  0.39643402505E+03  0.79812256890E+02 0.  0.
         11    1    5    5    0    0 -0.39784084802E+02  0.29733361755E+03  0.25833933739E+03  0.39589047320E+03  0.00000000000E+00 0. -1.
        -12    1    5    5    0    0  0.27524511266E+02  0.94034329116E+02  0.60158621547E+02  0.11497440376E+03  0.00000000000E+00 0.  1.
         15    1    3    3    0    0  0.12397330180E+02 -0.41397721414E+03 -0.20188396592E+03  0.46075060613E+03  0.17770000000E+01 0. -1.
        -16    1    3    3    0    0  0.69789331944E+02 -0.25887253800E+03 -0.10670947443E+03  0.28856966874E+03  0.00000000000E+00 0.  1.
          4    1    6    6  502    0 -0.46937925232E+02  0.72668378125E+02 -0.46602068770E+02  0.98262988037E+02  0.00000000000E+00 0. -1.
         -3    1    6    6    0  502 -0.22989163355E+02  0.20881342735E+03 -0.21159966503E+03  0.29817103702E+03  0.00000000000E+00 0.  1.
<mgrwt>
<rscale>  0 0.68841456E+03</rscale>
<asrwt>0</asrwt>
<pdfrwt beam="1">  1        1 0.10833246E+00 0.68841456E+03</pdfrwt>
<pdfrwt beam="2">  1       -2 0.14653203E+00 0.68841456E+03</pdfrwt>
<totfact> 0.77581896E+00</totfact>
</mgrwt>
</event>
<event>
12    3  0.1176505E-007  0.5358923E+03  0.7818608E-02  0.1004813E+00
          1   -1    0    0  501    0  0.00000000000E+00  0.00000000000E+00  0.36787997285E+04  0.36787997285E+04  0.00000000000E+00 0. -1.
         -2   -1    0    0    0  501 -0.00000000000E+00 -0.00000000000E+00 -0.84044899453E+02  0.84044899453E+02  0.00000000000E+00 0.  1.
        -24    2    1    2    0    0  0.29858565677E+03  0.22416047683E+03  0.16525868555E+04  0.16961461427E+04  0.80418333703E+02 0.  0.
    5000000    2    1    2    0    0 -0.29858565677E+03 -0.22416047683E+03  0.19421679735E+04  0.20666984853E+04  0.59985404721E+03 0.  0.
        -24    2    4    4    0    0 -0.43224329274E+03 -0.30254576589E+03  0.13503907403E+04  0.14521592842E+04  0.82723821474E+02 0.  0.
         24    2    4    4    0    0  0.13365763597E+03  0.78385289065E+02  0.59177723317E+03  0.61453920104E+03  0.58732603575E+02 0.  0.
         11    1    5    5    0    0 -0.16643375917E+03 -0.15806917412E+03  0.52134510734E+03  0.56963741182E+03  0.00000000000E+00 0. -1.
        -12    1    5    5    0    0 -0.26580953357E+03 -0.14447659177E+03  0.82904563301E+03  0.88252187243E+03  0.00000000000E+00 0.  1.
         15    1    3    3    0    0  0.69744496002E+02  0.98937326191E+02  0.52080007636E+03  0.53468567075E+03  0.17770000000E+01 0. -1.
        -16    1    3    3    0    0  0.22884116077E+03  0.12522315064E+03  0.11317867792E+04  0.11614604719E+04  0.00000000000E+00 0.  1.
          2    1    6    6  502    0  0.96067286158E+02  0.71059138790E+02  0.35215004910E+03  0.37187092082E+03  0.00000000000E+00 0. -1.
         -1    1    6    6    0  502  0.37590349816E+02  0.73261502744E+01  0.23962718407E+03  0.24266828022E+03  0.00000000000E+00 0.  1.
<mgrwt>
<rscale>  0 0.53589234E+03</rscale>
<asrwt>0</asrwt>
<pdfrwt beam="1">  1        1 0.56596906E+00 0.53589234E+03</pdfrwt>
<pdfrwt beam="2">  1       -2 0.12929987E-01 0.53589234E+03</pdfrwt>
<totfact> 0.80397612E+00</totfact>
</mgrwt>
</event>
<event>
12    3  0.1176505E-007  0.1126620E+04  0.7818608E-02  0.9179627E-01
          1   -1    0    0  501    0  0.00000000000E+00  0.00000000000E+00  0.12365551390E+04  0.12365551390E+04  0.00000000000E+00 0. -1.
         -2   -1    0    0    0  501 -0.00000000000E+00 -0.00000000000E+00 -0.10464138517E+04  0.10464138517E+04  0.00000000000E+00 0.  1.
        -24    2    1    2    0    0  0.24645255043E+03 -0.10165878691E+04  0.24199840592E+03  0.10758521139E+04  0.68591452169E+02 0.  0.
    5000000    2    1    2    0    0 -0.24645255043E+03  0.10165878691E+04 -0.51857118659E+02  0.12071168768E+04  0.60021016192E+03 0.  0.
        -24    2    4    4    0    0 -0.39218592871E+03  0.94111114366E+03 -0.58727454223E+02  0.10245824421E+04  0.82584982573E+02 0.  0.
         24    2    4    4    0    0  0.14573337828E+03  0.75476725400E+02  0.68703355638E+01  0.18253443476E+03  0.79603170424E+02 0.  0.
         11    1    5    5    0    0 -0.35992261113E+02  0.39536581572E+02 -0.52239126676E+01  0.53720325818E+02  0.00000000000E+00 0. -1.
        -12    1    5    5    0    0 -0.35619366760E+03  0.90157456208E+03 -0.53503541556E+02  0.97086211626E+03  0.00000000000E+00 0.  1.
         15    1    3    3    0    0  0.17159720184E+03 -0.81690914858E+03  0.18245373260E+03  0.85444641668E+03  0.17770000000E+01 0. -1.
        -16    1    3    3    0    0  0.74855348587E+02 -0.19967872048E+03  0.59544673322E+02  0.22140569718E+03  0.00000000000E+00 0.  1.
          2    1    6    6  502    0  0.61378321639E+02 -0.10138817535E+02  0.29406265811E+01  0.62279541367E+02  0.00000000000E+00 0. -1.
         -1    1    6    6    0  502  0.84355056639E+02  0.85615542935E+02  0.39297089827E+01  0.12025489339E+03  0.00000000000E+00 0.  1.
<mgrwt>
<rscale>  0 0.11266204E+04</rscale>
<asrwt>0</asrwt>
<pdfrwt beam="1">  1        1 0.19023925E+00 0.11266204E+04</pdfrwt>
<pdfrwt beam="2">  1       -2 0.16098675E+00 0.11266204E+04</pdfrwt>
<totfact> 0.21451529E+00</totfact>
</mgrwt>
</event>
<event>
12    3  0.1176505E-007  0.8460171E+03  0.7818608E-02  0.9495698E-01
         -2   -1    0    0    0  501 -0.00000000000E+00  0.00000000000E+00  0.31492757727E+03  0.31492757727E+03  0.00000000000E+00 0.  1.
          1   -1    0    0  501    0  0.00000000000E+00 -0.00000000000E+00 -0.24981755384E+04  0.24981755384E+04  0.00000000000E+00 0. -1.
        -24    2    1    2    0    0  0.36558033264E+03  0.69235777920E+03 -0.93741373651E+03  0.12240518401E+04  0.80932809743E+02 0.  0.
    5000000    2    1    2    0    0 -0.36558033264E+03 -0.69235777920E+03 -0.12458342246E+04  0.15890512756E+04  0.59997730564E+03 0.  0.
        -24    2    4    4    0    0 -0.37259091660E+02 -0.52149707982E+03 -0.10179856213E+04  0.11472616287E+04  0.81037493379E+02 0.  0.
         24    2    4    4    0    0 -0.32832124098E+03 -0.17086069939E+03 -0.22784860332E+03  0.44178964693E+03  0.79214204678E+02 0.  0.
         13    1    5    5    0    0  0.20086932883E+02 -0.51879853288E+02 -0.12007855719E+03  0.13233995597E+03  0.00000000000E+00 0. -1.
        -14    1    5    5    0    0 -0.57346024543E+02 -0.46961722653E+03 -0.89790706408E+03  0.10149216727E+04  0.00000000000E+00 0.  1.
         15    1    3    3    0    0  0.15334690461E+03  0.37474214573E+03 -0.49662495623E+03  0.64077020360E+03  0.17770000000E+01 0. -1.
        -16    1    3    3    0    0  0.21223342803E+03  0.31761563347E+03 -0.44078878028E+03  0.58328163645E+03  0.00000000000E+00 0.  1.
          4    1    6    6  502    0 -0.26367082523E+03 -0.10415870048E+03 -0.19110333964E+03  0.34189446527E+03  0.00000000000E+00 0. -1.
         -3    1    6    6    0  502 -0.64650415757E+02 -0.66701998904E+02 -0.36745263679E+02  0.99895181657E+02  0.00000000000E+00 0.  1.
<mgrwt>
<rscale>  0 0.84601706E+03</rscale>
<asrwt>0</asrwt>
<pdfrwt beam="1">  1        1 0.38433469E+00 0.84601706E+03</pdfrwt>
<pdfrwt beam="2">  1       -2 0.48450397E-01 0.84601706E+03</pdfrwt>
<totfact> 0.49976412E+00</totfact>
</mgrwt>
</event>
<event>
12    3  0.1176505E-007  0.5816707E+03  0.7818608E-02  0.9944180E-01
         -2   -1    0    0    0  501 -0.00000000000E+00  0.00000000000E+00  0.53035484953E+03  0.53035484953E+03  0.00000000000E+00 0.  1.
          1   -1    0    0  501    0  0.00000000000E+00 -0.00000000000E+00 -0.93864384478E+03  0.93864384478E+03  0.00000000000E+00 0. -1.
        -24    2    1    2    0    0 -0.44512037224E+03  0.16161447450E+03  0.17165619335E+03  0.50987865492E+03  0.79113904400E+02 0.  0.
    5000000    2    1    2    0    0  0.44512037224E+03 -0.16161447450E+03 -0.57994518860E+03  0.95912003939E+03  0.59943593821E+03 0.  0.
        -24    2    4    4    0    0  0.51454348092E+03 -0.22826302865E+03 -0.27869720297E+03  0.63317962207E+03  0.79908065011E+02 0.  0.
         24    2    4    4    0    0 -0.69423108679E+02  0.66648554144E+02 -0.30124798563E+03  0.32594041732E+03  0.78899993714E+02 0.  0.
         11    1    5    5    0    0  0.23151597211E+03 -0.14635782434E+03 -0.13269468754E+03  0.30434871149E+03  0.00000000000E+00 0. -1.
        -12    1    5    5    0    0  0.28302750881E+03 -0.81905204307E+02 -0.14600251543E+03  0.32883091057E+03  0.00000000000E+00 0.  1.
         15    1    3    3    0    0 -0.10871625100E+03  0.16351812383E+02  0.13508739690E+02  0.11078018223E+03  0.17770000000E+01 0. -1.
        -16    1    3    3    0    0 -0.33640412125E+03  0.14526266212E+03  0.15814745366E+03  0.39909847268E+03  0.00000000000E+00 0.  1.
          4    1    6    6  502    0 -0.65629487682E+02  0.15895094805E+02 -0.21942130112E+03  0.22957698290E+03  0.00000000000E+00 0. -1.
         -3    1    6    6    0  502 -0.37936209966E+01  0.50753459339E+02 -0.81826684510E+02  0.96363434419E+02  0.00000000000E+00 0.  1.
<mgrwt>
<rscale>  0 0.58167075E+03</rscale>
<asrwt>0</asrwt>
<pdfrwt beam="1">  1        1 0.14440674E+00 0.58167075E+03</pdfrwt>
<pdfrwt beam="2">  1       -2 0.81593055E-01 0.58167075E+03</pdfrwt>
<totfact> 0.20459233E+01</totfact>
</mgrwt>
</event>
<event>
12    3  0.1176505E-007  0.1013748E+04  0.7818608E-02  0.9293593E-01
         -2   -1    0    0    0  501 -0.00000000000E+00  0.00000000000E+00  0.72316159237E+03  0.72316159237E+03  0.00000000000E+00 0.  1.
          1   -1    0    0  501    0  0.00000000000E+00 -0.00000000000E+00 -0.17611257981E+04  0.17611257981E+04  0.00000000000E+00 0. -1.
        -24    2    1    2    0    0  0.97808492473E+03  0.21566304109E+03 -0.81978212963E+03  0.12965195285E+04  0.75891240752E+02 0.  0.
    5000000    2    1    2    0    0 -0.97808492473E+03 -0.21566304109E+03 -0.21818207612E+03  0.11877678620E+04  0.60002367318E+03 0.  0.
        -24    2    4    4    0    0 -0.63897076154E+03 -0.21923862051E+03 -0.40548234964E+03  0.79189339372E+03  0.79561324277E+02 0.  0.
         24    2    4    4    0    0 -0.33911416319E+03  0.35755794234E+01  0.18730027352E+03  0.39587446828E+03  0.81387970397E+02 0.  0.
         11    1    5    5    0    0 -0.19213477994E+03 -0.71237685853E+02 -0.16627877796E+03  0.26389242798E+03  0.00000000000E+00 0. -1.
        -12    1    5    5    0    0 -0.44683598160E+03 -0.14800093466E+03 -0.23920357169E+03  0.52800096574E+03  0.00000000000E+00 0.  1.
         15    1    3    3    0    0  0.23268631891E+03  0.23940579194E+02 -0.16865759588E+03  0.28838276078E+03  0.17770000000E+01 0. -1.
        -16    1    3    3    0    0  0.74539860582E+03  0.19172246190E+03 -0.65112453375E+03  0.10081367677E+04  0.00000000000E+00 0.  1.
          4    1    6    6  502    0 -0.12750849400E+03 -0.37131603334E+02  0.81477449798E+02  0.15580676120E+03  0.00000000000E+00 0. -1.
         -3    1    6    6    0  502 -0.21160566919E+03  0.40707182758E+02  0.10582282372E+03  0.24006770708E+03  0.00000000000E+00 0.  1.
<mgrwt>
<rscale>  0 0.10137484E+04</rscale>
<asrwt>0</asrwt>
<pdfrwt beam="1">  1        1 0.27094243E+00 0.10137484E+04</pdfrwt>
<pdfrwt beam="2">  1       -2 0.11125563E+00 0.10137484E+04</pdfrwt>
<totfact> 0.24303221E+00</totfact>
</mgrwt>
</event>
<event>
12    3  0.1176505E-007  0.5227571E+03  0.7818608E-02  0.1008004E+00
          1   -1    0    0  501    0  0.00000000000E+00  0.00000000000E+00  0.24049862535E+03  0.24049862535E+03  0.00000000000E+00 0. -1.
         -2   -1    0    0    0  501 -0.00000000000E+00 -0.00000000000E+00 -0.12128039469E+04  0.12128039469E+04  0.00000000000E+00 0.  1.
        -24    2    1    2    0    0 -0.27777024182E+03 -0.21753205029E+03 -0.47881344823E+03  0.60010006143E+03  0.79882822828E+02 0.  0.
    5000000    2    1    2    0    0  0.27777024182E+03  0.21753205029E+03 -0.49349187332E+03  0.85320251082E+03  0.59995316092E+03 0.  0.
        -24    2    4    4    0    0  0.15418933439E+03 -0.19178639562E+03 -0.21866288749E+03  0.33846860181E+03  0.78683947915E+02 0.  0.
         24    2    4    4    0    0  0.12358090743E+03  0.40931844591E+03 -0.27482898582E+03  0.51473390902E+03  0.81278501466E+02 0.  0.
         11    1    5    5    0    0  0.77383699044E+02 -0.39118660519E+02 -0.61649514527E+02  0.10639158388E+03  0.00000000000E+00 0. -1.
        -12    1    5    5    0    0  0.76805635341E+02 -0.15266773510E+03 -0.15701337297E+03  0.23207701793E+03  0.00000000000E+00 0.  1.
         15    1    3    3    0    0 -0.76997850378E+02 -0.22639390397E+02 -0.13189028462E+03  0.15440018092E+03  0.17770000000E+01 0. -1.
        -16    1    3    3    0    0 -0.20077239144E+03 -0.19489265989E+03 -0.34692316360E+03  0.44569988051E+03  0.00000000000E+00 0.  1.
          2    1    6    6  502    0  0.99262648965E+02  0.34723031675E+03 -0.26361141354E+03  0.44711625300E+03  0.00000000000E+00 0. -1.
         -1    1    6    6    0  502  0.24318258469E+02  0.62088129157E+02 -0.11217572287E+02  0.67617656017E+02  0.00000000000E+00 0.  1.
<mgrwt>
<rscale>  0 0.52275710E+03</rscale>
<asrwt>0</asrwt>
<pdfrwt beam="1">  1        1 0.36999788E-01 0.52275710E+03</pdfrwt>
<pdfrwt beam="2">  1       -2 0.18658522E+00 0.52275710E+03</pdfrwt>
<totfact> 0.17387136E+01</totfact>
</mgrwt>
</event>
<event>
12    3  0.1176505E-007  0.3649146E+03  0.7818608E-02  0.1056655E+00
          1   -1    0    0  501    0  0.00000000000E+00  0.00000000000E+00  0.15970243839E+04  0.15970243839E+04  0.00000000000E+00 0. -1.
         -4   -1    0    0    0  501 -0.00000000000E+00 -0.00000000000E+00 -0.12392981451E+03  0.12392981451E+03  0.00000000000E+00 0.  1.
        -24    2    1    2    0    0 -0.14180481098E+03  0.18283472604E+03  0.35962662554E+03  0.43495492519E+03  0.79481668834E+02 0.  0.
    5000000    2    1    2    0    0  0.14180481098E+03 -0.18283472604E+03  0.11134679438E+04  0.12859992732E+04  0.60037165762E+03 0.  0.
        -24    2    4    4    0    0 -0.13235205429E+03  0.15170065258E+02  0.44160683896E+02  0.16168150381E+03  0.80271698097E+02 0.  0.
         24    2    4    4    0    0  0.27415686528E+03 -0.19800479130E+03  0.10693072599E+04  0.11243177694E+04  0.79401173028E+02 0.  0.
         11    1    5    5    0    0 -0.14012997492E+03  0.15899032093E+02  0.52286418307E+02  0.15040963610E+03  0.00000000000E+00 0. -1.
        -12    1    5    5    0    0  0.77779206248E+01 -0.72896683433E+00 -0.81257344113E+01  0.11271867707E+02  0.00000000000E+00 0.  1.
         15    1    3    3    0    0 -0.10943970791E+03  0.82295754709E+02  0.17449810041E+03  0.22181610781E+03  0.17770000000E+01 0. -1.
        -16    1    3    3    0    0 -0.32365103079E+02  0.10053897133E+03  0.18512852514E+03  0.21313881738E+03  0.00000000000E+00 0.  1.
          4    1    6    6  502    0  0.15644072274E+02 -0.15181961352E+02  0.15963276980E+03  0.16111440079E+03  0.00000000000E+00 0. -1.
         -3    1    6    6    0  502  0.25851279300E+03 -0.18282282995E+03  0.90967449013E+03  0.96320336861E+03  0.00000000000E+00 0.  1.
<mgrwt>
<rscale>  0 0.36491464E+03</rscale>
<asrwt>0</asrwt>
<pdfrwt beam="1">  1        1 0.24569604E+00 0.36491464E+03</pdfrwt>
<pdfrwt beam="2">  1       -4 0.19066126E-01 0.36491464E+03</pdfrwt>
<totfact> 0.72256574E+01</totfact>
</mgrwt>
</event>
<event>
12    3  0.1176505E-007  0.1008285E+04  0.7818608E-02  0.9299505E-01
          1   -1    0    0  501    0  0.00000000000E+00  0.00000000000E+00  0.58483026932E+03  0.58483026932E+03  0.00000000000E+00 0. -1.
         -2   -1    0    0    0  501 -0.00000000000E+00 -0.00000000000E+00 -0.18050343419E+04  0.18050343419E+04  0.00000000000E+00 0.  1.
        -24    2    1    2    0    0  0.22428711183E+03 -0.91055601005E+03 -0.53935088004E+03  0.10848298282E+04  0.80866731809E+02 0.  0.
    5000000    2    1    2    0    0 -0.22428711183E+03  0.91055601005E+03 -0.68085319251E+03  0.13050347830E+04  0.60011478833E+03 0.  0.
        -24    2    4    4    0    0  0.24854176963E+02  0.78433663413E+03 -0.63114488903E+03  0.10102645369E+04  0.80553570527E+02 0.  0.
         24    2    4    4    0    0 -0.24914128879E+03  0.12621937592E+03 -0.49708303480E+02  0.29477024617E+03  0.80099125807E+02 0.  0.
         13    1    5    5    0    0  0.51612267921E+02  0.51788960872E+03 -0.39773109089E+03  0.65502938384E+03  0.00000000000E+00 0. -1.
        -14    1    5    5    0    0 -0.26758090958E+02  0.26644702540E+03 -0.23341379814E+03  0.35523515302E+03  0.00000000000E+00 0.  1.
         15    1    3    3    0    0  0.30338896704E+02 -0.11166080912E+03 -0.37457577501E+02  0.12163392943E+03  0.17770000000E+01 0. -1.
        -16    1    3    3    0    0  0.19394821512E+03 -0.79889520093E+03 -0.50189330254E+03  0.96319589874E+03  0.00000000000E+00 0.  1.
          4    1    6    6  502    0 -0.69219440763E+02 -0.25221592674E+01 -0.96360108245E+01  0.69932431472E+02  0.00000000000E+00 0. -1.
         -3    1    6    6    0  502 -0.17992184802E+03  0.12874153519E+03 -0.40072292656E+02  0.22483781470E+03  0.00000000000E+00 0.  1.
<mgrwt>
<rscale>  0 0.10082845E+04</rscale>
<asrwt>0</asrwt>
<pdfrwt beam="1">  1        1 0.89973888E-01 0.10082845E+04</pdfrwt>
<pdfrwt beam="2">  1       -2 0.27769759E+00 0.10082845E+04</pdfrwt>
<totfact> 0.13609437E+00</totfact>
</mgrwt>
</event>
<event>
12    3  0.1176505E-007  0.9591338E+03  0.7818608E-02  0.9354538E-01
         -2   -1    0    0    0  501 -0.00000000000E+00  0.00000000000E+00  0.32803598245E+03  0.32803598245E+03  0.00000000000E+00 0.  1.
          1   -1    0    0  501    0  0.00000000000E+00 -0.00000000000E+00 -0.32467997659E+04  0.32467997659E+04  0.00000000000E+00 0. -1.
        -24    2    1    2    0    0  0.72171258850E+02  0.90113448083E+03 -0.87387846555E+03  0.12599428939E+04  0.80873235551E+02 0.  0.
    5000000    2    1    2    0    0 -0.72171258850E+02 -0.90113448083E+03 -0.20448853179E+04  0.23148928544E+04  0.59993409715E+03 0.  0.
        -24    2    4    4    0    0 -0.25572839012E+03 -0.66278855707E+03 -0.10329289839E+04  0.12561050471E+04  0.78561584839E+02 0.  0.
         24    2    4    4    0    0  0.18355713127E+03 -0.23834592377E+03 -0.10119563340E+04  0.10587878073E+04  0.80461166040E+02 0.  0.
         11    1    5    5    0    0 -0.50804652408E+02 -0.14130246092E+03 -0.27807705419E+03  0.31602902752E+03  0.00000000000E+00 0. -1.
        -12    1    5    5    0    0 -0.20492373772E+03 -0.52148609615E+03 -0.75485192969E+03  0.94007601954E+03  0.00000000000E+00 0.  1.
         15    1    3    3    0    0  0.42948219283E+02  0.80906921089E+03 -0.76354314866E+03  0.11133008736E+04  0.17770000000E+01 0. -1.
        -16    1    3    3    0    0  0.29223039568E+02  0.92065269943E+02 -0.11033531689E+03  0.14664202032E+03  0.00000000000E+00 0.  1.
          4    1    6    6  502    0  0.89255589130E+02 -0.10770440407E+03 -0.33721934772E+03  0.36508038474E+03  0.00000000000E+00 0. -1.
         -3    1    6    6    0  502  0.94301542145E+02 -0.13064151970E+03 -0.67473698626E+03  0.69370742258E+03  0.00000000000E+00 0.  1.
<mgrwt>
<rscale>  0 0.95913384E+03</rscale>
<asrwt>0</asrwt>
<pdfrwt beam="1">  1        1 0.49950765E+00 0.95913384E+03</pdfrwt>
<pdfrwt beam="2">  1       -2 0.50467075E-01 0.95913384E+03</pdfrwt>
<totfact> 0.13262958E+00</totfact>
</mgrwt>
</event>
<event>
12    3  0.1176505E-007  0.1448850E+04  0.7818608E-02  0.8919198E-01
          1   -1    0    0  501    0  0.00000000000E+00  0.00000000000E+00  0.31407835312E+04  0.31407835312E+04  0.00000000000E+00 0. -1.
         -2   -1    0    0    0  501 -0.00000000000E+00 -0.00000000000E+00 -0.69320551704E+03  0.69320551704E+03  0.00000000000E+00 0.  1.
        -24    2    1    2    0    0 -0.54035629685E+03 -0.13004551526E+04  0.10182278118E+04  0.17396763082E+04  0.80729482210E+02 0.  0.
    5000000    2    1    2    0    0  0.54035629685E+03  0.13004551526E+04  0.14293502023E+04  0.20943127400E+04  0.59994609792E+03 0.  0.
        -24    2    4    4    0    0  0.32355251905E+03  0.12092003238E+04  0.10245641777E+04  0.16195198223E+04  0.79126765036E+02 0.  0.
         24    2    4    4    0    0  0.21680377780E+03  0.91254828789E+02  0.40478602466E+03  0.47479291767E+03  0.79027002152E+02 0.  0.
         13    1    5    5    0    0  0.16642406559E+03  0.54463651523E+03  0.42219441668E+03  0.70892455790E+03  0.00000000000E+00 0. -1.
        -14    1    5    5    0    0  0.15712845346E+03  0.66456380857E+03  0.60236976100E+03  0.91059526438E+03  0.00000000000E+00 0.  1.
         15    1    3    3    0    0 -0.33292841602E+03 -0.88047990696E+03  0.65156717933E+03  0.11448271239E+04  0.17770000000E+01 0. -1.
        -16    1    3    3    0    0 -0.20742788083E+03 -0.41997524562E+03  0.36666063245E+03  0.59484918431E+03  0.00000000000E+00 0.  1.
          4    1    6    6  502    0  0.17932832233E+02  0.37768249760E+01  0.37769095442E+01  0.18711384890E+02  0.00000000000E+00 0. -1.
         -3    1    6    6    0  502  0.19887094557E+03  0.87478003813E+02  0.40100911511E+03  0.45608153278E+03  0.00000000000E+00 0.  1.
<mgrwt>
<rscale>  0 0.14488501E+04</rscale>
<asrwt>0</asrwt>
<pdfrwt beam="1">  1        1 0.48319746E+00 0.14488501E+04</pdfrwt>
<pdfrwt beam="2">  1       -2 0.10664700E+00 0.14488501E+04</pdfrwt>
<totfact> 0.28151604E-01</totfact>
</mgrwt>
</event>
<event>
12    3  0.1176505E-007  0.6164889E+03  0.7818608E-02  0.9871775E-01
          1   -1    0    0  501    0  0.00000000000E+00  0.00000000000E+00  0.17313865834E+04  0.17313865834E+04  0.00000000000E+00 0. -1.
         -2   -1    0    0    0  501 -0.00000000000E+00 -0.00000000000E+00 -0.27449196383E+03  0.27449196383E+03  0.00000000000E+00 0.  1.
        -24    2    1    2    0    0 -0.44605533920E+03 -0.30898059205E+03  0.76584808160E+03  0.94196981424E+03  0.79683592752E+02 0.  0.
    5000000    2    1    2    0    0  0.44605533920E+03  0.30898059205E+03  0.69104653800E+03  0.10639087330E+04  0.59993508198E+03 0.  0.
        -24    2    4    4    0    0  0.39691367679E+03  0.40551829891E+03  0.72692006610E+03  0.92546701988E+03  0.78043992686E+02 0.  0.
         24    2    4    4    0    0  0.49141662411E+02 -0.96537706860E+02 -0.35873528107E+02  0.13844171313E+03  0.78388558383E+02 0.  0.
         13    1    5    5    0    0  0.20160223804E+03  0.19641911448E+03  0.42264580405E+03  0.50779268072E+03  0.00000000000E+00 0. -1.
        -14    1    5    5    0    0  0.19531143875E+03  0.20909918443E+03  0.30427426206E+03  0.41767433915E+03  0.00000000000E+00 0.  1.
         15    1    3    3    0    0 -0.19979198978E+03 -0.95582640436E+02  0.28102699388E+03  0.35781588750E+03  0.17770000000E+01 0. -1.
        -16    1    3    3    0    0 -0.24626334943E+03 -0.21339795162E+03  0.48482108772E+03  0.58415392674E+03  0.00000000000E+00 0.  1.
          2    1    6    6  502    0  0.22408596845E+02 -0.86704010393E+02 -0.54099425185E+02  0.10462541965E+03  0.00000000000E+00 0. -1.
         -1    1    6    6    0  502  0.26733065566E+02 -0.98336964675E+01  0.18225897078E+02  0.33816293485E+02  0.00000000000E+00 0.  1.
<mgrwt>
<rscale>  0 0.61648887E+03</rscale>
<asrwt>0</asrwt>
<pdfrwt beam="1">  1        1 0.26636716E+00 0.61648887E+03</pdfrwt>
<pdfrwt beam="2">  1       -2 0.42229534E-01 0.61648887E+03</pdfrwt>
<totfact> 0.22282856E+01</totfact>
</mgrwt>
</event>
<event>
12    3  0.1176505E-007  0.2364102E+04  0.7818608E-02  0.8453067E-01
         -2   -1    0    0    0  501 -0.00000000000E+00  0.00000000000E+00  0.14926627041E+04  0.14926627041E+04  0.00000000000E+00 0.  1.
          1   -1    0    0  501    0  0.00000000000E+00 -0.00000000000E+00 -0.39226837455E+04  0.39226837455E+04  0.00000000000E+00 0. -1.
        -24    2    1    2    0    0  0.10323326328E+04 -0.21004958290E+04 -0.70199623026E+03  0.24447536095E+04  0.78918385447E+02 0.  0.
    5000000    2    1    2    0    0 -0.10323326328E+04  0.21004958290E+04 -0.17280248112E+04  0.29705928401E+04  0.60046538700E+03 0.  0.
        -24    2    4    4    0    0 -0.29969596492E+03  0.11245167277E+04 -0.62345379204E+03  0.13226146353E+04  0.79115741313E+02 0.  0.
         24    2    4    4    0    0 -0.73263666793E+03  0.97597910132E+03 -0.11045710191E+04  0.16479782048E+04  0.80394860828E+02 0.  0.
         11    1    5    5    0    0 -0.58460610102E+02  0.36057269345E+03 -0.18983649253E+03  0.41166516016E+03  0.00000000000E+00 0. -1.
        -12    1    5    5    0    0 -0.24123535481E+03  0.76394403421E+03 -0.43361729951E+03  0.91094947514E+03  0.00000000000E+00 0.  1.
         15    1    3    3    0    0  0.75615688501E+03 -0.14745747001E+04 -0.47368088313E+03  0.17235198049E+04  0.17770000000E+01 0. -1.
        -16    1    3    3    0    0  0.27617574784E+03 -0.62592112885E+03 -0.22831534713E+03  0.72123380465E+03  0.00000000000E+00 0.  1.
          2    1    6    6  502    0 -0.50992823543E+03  0.69320940052E+03 -0.82601138653E+03  0.11928373271E+04  0.00000000000E+00 0. -1.
         -1    1    6    6    0  502 -0.22270843250E+03  0.28276970080E+03 -0.27855963261E+03  0.45514087766E+03  0.00000000000E+00 0.  1.
<mgrwt>
<rscale>  0 0.23641018E+04</rscale>
<asrwt>0</asrwt>
<pdfrwt beam="1">  1        1 0.60348980E+00 0.23641018E+04</pdfrwt>
<pdfrwt beam="2">  1       -2 0.22964042E+00 0.23641018E+04</pdfrwt>
<totfact> 0.72414154E-03</totfact>
</mgrwt>
</event>
<event>
12    3  0.1176505E-007  0.2026965E+03  0.7818608E-02  0.1147484E+00
          1   -1    0    0  501    0  0.00000000000E+00  0.00000000000E+00  0.16001769963E+03  0.16001769963E+03  0.00000000000E+00 0. -1.
         -2   -1    0    0    0  501 -0.00000000000E+00 -0.00000000000E+00 -0.13362080384E+04  0.13362080384E+04  0.00000000000E+00 0.  1.
        -24    2    1    2    0    0  0.11083547667E+03  0.49847618676E+02 -0.71623785640E+03  0.73050894997E+03  0.76664014193E+02 0.  0.
    5000000    2    1    2    0    0 -0.11083547667E+03 -0.49847618676E+02 -0.45995248233E+03  0.76571678803E+03  0.59999718790E+03 0.  0.
        -24    2    4    4    0    0 -0.36649514799E+02 -0.11571811592E+03 -0.57547957403E+03  0.59336671887E+03  0.78571328489E+02 0.  0.
         24    2    4    4    0    0 -0.74185961870E+02  0.65870497239E+02  0.11552709170E+03  0.17235006915E+03  0.80719006909E+02 0.  0.
         11    1    5    5    0    0 -0.59976006572E+02 -0.91838658863E+02 -0.40149951000E+03  0.41621306701E+03  0.00000000000E+00 0. -1.
        -12    1    5    5    0    0  0.23326491773E+02 -0.23879457052E+02 -0.17398006403E+03  0.17715365186E+03  0.00000000000E+00 0.  1.
         15    1    3    3    0    0  0.60969019220E+02  0.67313578693E+02 -0.44773963532E+03  0.45686133339E+03  0.17770000000E+01 0. -1.
        -16    1    3    3    0    0  0.49866457449E+02 -0.17465960018E+02 -0.26849822108E+03  0.27364761658E+03  0.00000000000E+00 0.  1.
          2    1    6    6  502    0 -0.69184491092E+02  0.19321746468E+02  0.36689403671E+02  0.80659382814E+02  0.00000000000E+00 0. -1.
         -1    1    6    6    0  502 -0.50014707782E+01  0.46548750771E+02  0.78837688026E+02  0.91690686340E+02  0.00000000000E+00 0.  1.
<mgrwt>
<rscale>  0 0.20269652E+03</rscale>
<asrwt>0</asrwt>
<pdfrwt beam="1">  1        1 0.24618107E-01 0.20269652E+03</pdfrwt>
<pdfrwt beam="2">  1       -2 0.20557048E+00 0.20269652E+03</pdfrwt>
<totfact> 0.23273653E+01</totfact>
</mgrwt>
</event>
<event>
12    3  0.1176505E-007  0.2155399E+04  0.7818608E-02  0.8537225E-01
         -2   -1    0    0    0  501 -0.00000000000E+00  0.00000000000E+00  0.17582591798E+04  0.17582591798E+04  0.00000000000E+00 0.  1.
          1   -1    0    0  501    0  0.00000000000E+00 -0.00000000000E+00 -0.27967117134E+04  0.27967117134E+04  0.00000000000E+00 0. -1.
        -24    2    1    2    0    0  0.16438354886E+04 -0.13855792605E+04 -0.16349413250E+03  0.21576051241E+04  0.80650725218E+02 0.  0.
    5000000    2    1    2    0    0 -0.16438354886E+04  0.13855792605E+04 -0.87495840111E+03  0.23973657691E+04  0.59982116192E+03 0.  0.
        -24    2    4    4    0    0 -0.85257834936E+03  0.59841892904E+03 -0.12740607380E+03  0.10515941333E+04  0.67991596383E+02 0.  0.
         24    2    4    4    0    0 -0.79125713926E+03  0.78716033150E+03 -0.74755232731E+03  0.13457716358E+04  0.80978797569E+02 0.  0.
         13    1    5    5    0    0 -0.14820397710E+03  0.13508606349E+03 -0.32904986684E+02  0.20321270020E+03  0.00000000000E+00 0. -1.
        -14    1    5    5    0    0 -0.70437437227E+03  0.46333286555E+03 -0.94501087112E+02  0.84838143313E+03  0.00000000000E+00 0.  1.
         15    1    3    3    0    0  0.11341688078E+04 -0.99755044975E+03 -0.13352853204E+03  0.15163373012E+04  0.17770000000E+01 0. -1.
        -16    1    3    3    0    0  0.50966668084E+03 -0.38802881078E+03 -0.29965600456E+02  0.64126782296E+03  0.00000000000E+00 0.  1.
          2    1    6    6  502    0 -0.46155924481E+03  0.45275065309E+03 -0.48049050327E+03  0.80553784149E+03  0.00000000000E+00 0. -1.
         -1    1    6    6    0  502 -0.32969789445E+03  0.33440967841E+03 -0.26706182404E+03  0.54023379428E+03  0.00000000000E+00 0.  1.
<mgrwt>
<rscale>  0 0.21553991E+04</rscale>
<asrwt>0</asrwt>
<pdfrwt beam="1">  1        1 0.43026333E+00 0.21553991E+04</pdfrwt>
<pdfrwt beam="2">  1       -2 0.27050142E+00 0.21553991E+04</pdfrwt>
<totfact> 0.30893884E-02</totfact>
</mgrwt>
</event>
<event>
12    3  0.1176505E-007  0.5537184E+03  0.7818608E-02  0.1000637E+00
          1   -1    0    0  501    0  0.00000000000E+00  0.00000000000E+00  0.65194353390E+03  0.65194353390E+03  0.00000000000E+00 0. -1.
         -2   -1    0    0    0  501 -0.00000000000E+00 -0.00000000000E+00 -0.52461721624E+03  0.52461721624E+03  0.00000000000E+00 0.  1.
        -24    2    1    2    0    0  0.10973005620E+03 -0.38440137536E+03  0.19522186351E+03  0.45200430892E+03  0.79945085350E+02 0.  0.
    5000000    2    1    2    0    0 -0.10973005620E+03  0.38440137536E+03 -0.67895545855E+02  0.72455644122E+03  0.60047242130E+03 0.  0.
        -24    2    4    4    0    0  0.19841101210E+03  0.32489214826E+03 -0.93806742936E+02  0.39979928121E+03  0.78217149724E+02 0.  0.
         24    2    4    4    0    0 -0.30814106831E+03  0.59509227098E+02  0.25911197081E+02  0.32475716001E+03  0.79394941619E+02 0.  0.
         11    1    5    5    0    0  0.62633120899E+02  0.62522305237E+02  0.40550810827E+01  0.88591140461E+02  0.00000000000E+00 0. -1.
        -12    1    5    5    0    0  0.13577789120E+03  0.26236984302E+03 -0.97861824019E+02  0.31120814075E+03  0.00000000000E+00 0.  1.
         15    1    3    3    0    0  0.51809626383E+02 -0.14699759642E+03  0.34869977382E+02  0.15972352297E+03  0.17770000000E+01 0. -1.
        -16    1    3    3    0    0  0.57920429822E+02 -0.23740377894E+03  0.16035188613E+03  0.29228078595E+03  0.00000000000E+00 0.  1.
          2    1    6    6  502    0 -0.11699095008E+03 -0.15350271207E+02  0.17636957473E+02  0.11930454935E+03  0.00000000000E+00 0. -1.
         -1    1    6    6    0  502 -0.19115011823E+03  0.74859498306E+02  0.82742396074E+01  0.20545261066E+03  0.00000000000E+00 0.  1.
<mgrwt>
<rscale>  0 0.55371843E+03</rscale>
<asrwt>0</asrwt>
<pdfrwt beam="1">  1        1 0.10029901E+00 0.55371843E+03</pdfrwt>
<pdfrwt beam="2">  1       -2 0.80710341E-01 0.55371843E+03</pdfrwt>
<totfact> 0.37330277E+01</totfact>
</mgrwt>
</event>
<event>
12    3  0.1176505E-007  0.1514427E+04  0.7818608E-02  0.8874916E-01
          1   -1    0    0  501    0  0.00000000000E+00  0.00000000000E+00  0.18134631723E+04  0.18134631723E+04  0.00000000000E+00 0. -1.
         -2   -1    0    0    0  501 -0.00000000000E+00 -0.00000000000E+00 -0.14426790928E+04  0.14426790928E+04  0.00000000000E+00 0.  1.
        -24    2    1    2    0    0 -0.11234013482E+04 -0.96486424272E+03 -0.31701895445E+03  0.15164918360E+04  0.79075122393E+02 0.  0.
    5000000    2    1    2    0    0  0.11234013482E+04  0.96486424272E+03  0.68780303388E+03  0.17396504291E+04  0.60026411358E+03 0.  0.
        -24    2    4    4    0    0  0.56449547709E+03  0.20002403790E+03  0.46772393837E+03  0.76403577867E+03  0.79499868942E+02 0.  0.
         24    2    4    4    0    0  0.55890587115E+03  0.76484020482E+03  0.22007909550E+03  0.97561465047E+03  0.77671270175E+02 0.  0.
         13    1    5    5    0    0  0.28342399071E+03  0.11959274234E+03  0.19496996172E+03  0.36420443229E+03  0.00000000000E+00 0. -1.
        -14    1    5    5    0    0  0.28107148638E+03  0.80431295569E+02  0.27275397666E+03  0.39983134638E+03  0.00000000000E+00 0.  1.
         15    1    3    3    0    0 -0.50831987277E+03 -0.41324918265E+03 -0.17606699198E+03  0.67835589730E+03  0.17770000000E+01 0. -1.
        -16    1    3    3    0    0 -0.61508147547E+03 -0.55161506007E+03 -0.14095196248E+03  0.83813593867E+03  0.00000000000E+00 0.  1.
          4    1    6    6  502    0  0.46793850168E+03  0.62546086329E+03  0.21001706787E+03  0.80887261152E+03  0.00000000000E+00 0. -1.
         -3    1    6    6    0  502  0.90967369470E+02  0.13937934153E+03  0.10062027635E+02  0.16674203895E+03  0.00000000000E+00 0.  1.
<mgrwt>
<rscale>  0 0.15144267E+04</rscale>
<asrwt>0</asrwt>
<pdfrwt beam="1">  1        1 0.27899433E+00 0.15144267E+04</pdfrwt>
<pdfrwt beam="2">  1       -2 0.22195063E+00 0.15144267E+04</pdfrwt>
<totfact> 0.31579111E-01</totfact>
</mgrwt>
</event>
<event>
12    3  0.1176505E-007  0.8970820E+03  0.7818608E-02  0.9429236E-01
         -4   -1    0    0    0  501 -0.00000000000E+00  0.00000000000E+00  0.68450328686E+03  0.68450328686E+03  0.00000000000E+00 0.  1.
          3   -1    0    0  501    0  0.00000000000E+00 -0.00000000000E+00 -0.12882818080E+04  0.12882818080E+04  0.00000000000E+00 0. -1.
        -24    2    1    2    0    0 -0.71785263876E+03  0.38298209763E+03 -0.47339452557E+02  0.81882689259E+03  0.79049087172E+02 0.  0.
    5000000    2    1    2    0    0  0.71785263876E+03 -0.38298209763E+03 -0.55643906861E+03  0.11539582023E+04  0.60000616452E+03 0.  0.
        -24    2    4    4    0    0 -0.84276503876E+02 -0.81827876478E+02 -0.12559222766E+03  0.18919700181E+03  0.78890857326E+02 0.  0.
         24    2    4    4    0    0  0.80212914264E+03 -0.30115422116E+03 -0.43084684095E+03  0.96476120048E+03  0.10502450764E+03 0.  0.
         11    1    5    5    0    0 -0.80841546720E+02 -0.75180430786E+02 -0.13675791109E+03  0.17575602151E+03  0.00000000000E+00 0. -1.
        -12    1    5    5    0    0 -0.34349571566E+01 -0.66474456918E+01  0.11165683434E+02  0.13440980300E+02  0.00000000000E+00 0.  1.
         15    1    3    3    0    0 -0.11588922644E+03  0.96133497004E+02 -0.48821469517E+01  0.15066172420E+03  0.17770000000E+01 0. -1.
        -16    1    3    3    0    0 -0.60196341232E+03  0.28684860063E+03 -0.42457305605E+02  0.66816516839E+03  0.00000000000E+00 0.  1.
          2    1    6    6  502    0  0.44892970556E+03 -0.20017661832E+03 -0.29398476140E+03  0.57274392095E+03  0.00000000000E+00 0. -1.
         -1    1    6    6    0  502  0.35319943708E+03 -0.10097760284E+03 -0.13686207955E+03  0.39201727953E+03  0.00000000000E+00 0.  1.
<mgrwt>
<rscale>  0 0.89708204E+03</rscale>
<asrwt>0</asrwt>
<pdfrwt beam="1">  1        3 0.19819720E+00 0.89708204E+03</pdfrwt>
<pdfrwt beam="2">  1       -4 0.10530820E+00 0.89708204E+03</pdfrwt>
<totfact> 0.24634283E-01</totfact>
</mgrwt>
</event>
<event>
12    3  0.1176505E-007  0.1214873E+04  0.7818608E-02  0.9099937E-01
          1   -1    0    0  501    0  0.00000000000E+00  0.00000000000E+00  0.24607401730E+04  0.24607401730E+04  0.00000000000E+00 0. -1.
         -2   -1    0    0    0  501 -0.00000000000E+00 -0.00000000000E+00 -0.69123398752E+03  0.69123398752E+03  0.00000000000E+00 0.  1.
        -24    2    1    2    0    0  0.10655428805E+04 -0.54909322052E+03  0.48484357599E+03  0.12953555168E+04  0.77379756370E+02 0.  0.
    5000000    2    1    2    0    0 -0.10655428805E+04  0.54909322052E+03  0.12846626095E+04  0.18566186437E+04  0.59982478523E+03 0.  0.
        -24    2    4    4    0    0 -0.21172872349E+03  0.13230516366E+02  0.64319078094E+01  0.22670706795E+03  0.79690816961E+02 0.  0.
         24    2    4    4    0    0 -0.85381415702E+03  0.53586270415E+03  0.12782307017E+04  0.16299115758E+04  0.81182299060E+02 0.  0.
         13    1    5    5    0    0 -0.10194547207E+03 -0.19099964138E+02  0.33703322225E+02  0.10905779126E+03  0.00000000000E+00 0. -1.
        -14    1    5    5    0    0 -0.10978325142E+03  0.32330480504E+02 -0.27271414416E+02  0.11764927669E+03  0.00000000000E+00 0.  1.
         15    1    3    3    0    0  0.30431550526E+03 -0.18846068477E+03  0.12162275267E+03  0.37804842037E+03  0.17770000000E+01 0. -1.
        -16    1    3    3    0    0  0.76122737525E+03 -0.36063253575E+03  0.36322082332E+03  0.91730709643E+03  0.00000000000E+00 0.  1.
          2    1    6    6  502    0 -0.43082763039E+03  0.31818892203E+03  0.67423362291E+03  0.86107352501E+03  0.00000000000E+00 0. -1.
         -3    1    6    6    0  502 -0.42298652663E+03  0.21767378213E+03  0.60399707879E+03  0.76883805078E+03  0.00000000000E+00 0.  1.
<mgrwt>
<rscale>  0 0.12148729E+04</rscale>
<asrwt>0</asrwt>
<pdfrwt beam="1">  1        1 0.37857541E+00 0.12148729E+04</pdfrwt>
<pdfrwt beam="2">  1       -2 0.10634369E+00 0.12148729E+04</pdfrwt>
<totfact> 0.88768597E-01</totfact>
</mgrwt>
</event>
<event>
12    3  0.1176505E-007  0.5408328E+03  0.7818608E-02  0.1003638E+00
         -2   -1    0    0    0  501 -0.00000000000E+00  0.00000000000E+00  0.84027038823E+03  0.84027038823E+03  0.00000000000E+00 0.  1.
          1   -1    0    0  501    0  0.00000000000E+00 -0.00000000000E+00 -0.84087053605E+03  0.84087053605E+03  0.00000000000E+00 0. -1.
        -24    2    1    2    0    0  0.14448490125E+03 -0.35270051899E+03 -0.62413428758E+03  0.73567088325E+03  0.79965597257E+02 0.  0.
    5000000    2    1    2    0    0 -0.14448490125E+03  0.35270051899E+03  0.62353413977E+03  0.94547004103E+03  0.59987101300E+03 0.  0.
        -24    2    4    4    0    0  0.76840942278E+02 -0.12757925104E+03  0.95449804677E+02  0.19396506274E+03  0.79566228045E+02 0.  0.
         24    2    4    4    0    0 -0.22132584353E+03  0.48027977003E+03  0.52808433509E+03  0.75150497829E+03  0.78948596617E+02 0.  0.
         13    1    5    5    0    0 -0.75682733998E+01 -0.51141885142E+02  0.48179183184E+02  0.70668273435E+02  0.00000000000E+00 0. -1.
        -14    1    5    5    0    0  0.84409215678E+02 -0.76437365897E+02  0.47270621493E+02  0.12329678931E+03  0.00000000000E+00 0.  1.
         15    1    3    3    0    0  0.12850646631E+03 -0.32478195738E+03 -0.51792602887E+03  0.62469813577E+03  0.17770000000E+01 0. -1.
        -16    1    3    3    0    0  0.15978434939E+02 -0.27918561614E+02 -0.10620825872E+03  0.11097274749E+03  0.00000000000E+00 0.  1.
          2    1    6    6  502    0 -0.13038002327E+03  0.36636014246E+03  0.37971741836E+03  0.54351082993E+03  0.00000000000E+00 0. -1.
         -1    1    6    6    0  502 -0.90945820258E+02  0.11391962757E+03  0.14836691674E+03  0.20799414836E+03  0.00000000000E+00 0.  1.
<mgrwt>
<rscale>  0 0.54083279E+03</rscale>
<asrwt>0</asrwt>
<pdfrwt beam="1">  1        1 0.12936470E+00 0.54083279E+03</pdfrwt>
<pdfrwt beam="2">  1       -2 0.12927237E+00 0.54083279E+03</pdfrwt>
<totfact> 0.82853772E+00</totfact>
</mgrwt>
</event>
<event>
12    3  0.1176505E-007  0.9191358E+03  0.7818608E-02  0.9401972E-01
          1   -1    0    0  501    0  0.00000000000E+00  0.00000000000E+00  0.14733607513E+04  0.14733607513E+04  0.00000000000E+00 0. -1.
         -2   -1    0    0    0  501 -0.00000000000E+00 -0.00000000000E+00 -0.73667000961E+03  0.73667000961E+03  0.00000000000E+00 0.  1.
        -24    2    1    2    0    0 -0.85395474816E+03 -0.18355909408E+03 -0.67314465705E+02  0.87991523934E+03  0.82382875606E+02 0.  0.
    5000000    2    1    2    0    0  0.85395474816E+03  0.18355909408E+03  0.80400520742E+03  0.13301155216E+04  0.59987521562E+03 0.  0.
        -24    2    4    4    0    0  0.33011425802E+03 -0.11576224020E+03  0.57861920470E+03  0.68079571949E+03  0.79412266181E+02 0.  0.
         24    2    4    4    0    0  0.52384049014E+03  0.29932133428E+03  0.22538600272E+03  0.64931980211E+03  0.82554436142E+02 0.  0.
         11    1    5    5    0    0  0.15862570608E+03 -0.16910310384E+02  0.23009961161E+03  0.27998911495E+03  0.00000000000E+00 0. -1.
        -12    1    5    5    0    0  0.17148855195E+03 -0.98851929815E+02  0.34851959309E+03  0.40080660454E+03  0.00000000000E+00 0.  1.
         15    1    3    3    0    0 -0.24224294252E+03 -0.15739879379E+02 -0.90176955722E+01  0.24292769205E+03  0.17770000000E+01 0. -1.
        -16    1    3    3    0    0 -0.61171180564E+03 -0.16781921471E+03 -0.58296770132E+02  0.63698754728E+03  0.00000000000E+00 0.  1.
          4    1    6    6  502    0  0.30614456442E+03  0.16230270699E+03  0.17101230794E+03  0.38640894462E+03  0.00000000000E+00 0. -1.
         -3    1    6    6    0  502  0.21769592572E+03  0.13701862729E+03  0.54373694781E+02  0.26291085749E+03  0.00000000000E+00 0.  1.
<mgrwt>
<rscale>  0 0.91913584E+03</rscale>
<asrwt>0</asrwt>
<pdfrwt beam="1">  1        1 0.22667088E+00 0.91913584E+03</pdfrwt>
<pdfrwt beam="2">  1       -2 0.11333385E+00 0.91913584E+03</pdfrwt>
<totfact> 0.36934805E+00</totfact>
</mgrwt>
</event>
<event>
12    3  0.1176505E-007  0.9898971E+03  0.7818608E-02  0.9319695E-01
          1   -1    0    0  501    0  0.00000000000E+00  0.00000000000E+00  0.69036539416E+03  0.69036539416E+03  0.00000000000E+00 0. -1.
         -2   -1    0    0    0  501 -0.00000000000E+00 -0.00000000000E+00 -0.15660557784E+04  0.15660557784E+04  0.00000000000E+00 0.  1.
        -24    2    1    2    0    0 -0.54219082057E+03  0.73738771373E+03 -0.11975034140E+03  0.92630343872E+03  0.77371765207E+02 0.  0.
    5000000    2    1    2    0    0  0.54219082057E+03 -0.73738771373E+03 -0.75594004284E+03  0.13301177338E+04  0.60004692417E+03 0.  0.
        -24    2    4    4    0    0  0.45081684952E+03 -0.16796726914E+03 -0.20625742634E+03  0.52949951012E+03  0.79867202168E+02 0.  0.
         24    2    4    4    0    0  0.91373971057E+02 -0.56942044458E+03 -0.54968261650E+03  0.80061822371E+03  0.79055145076E+02 0.  0.
         13    1    5    5    0    0  0.35386747020E+03 -0.12288373631E+03 -0.12395616152E+03  0.39457284384E+03  0.00000000000E+00 0. -1.
        -14    1    5    5    0    0  0.96949379319E+02 -0.45083532837E+02 -0.82301264818E+02  0.13492666628E+03  0.00000000000E+00 0.  1.
         15    1    3    3    0    0 -0.46931311452E+03  0.59150905651E+03 -0.88213717541E+02  0.76021219477E+03  0.17770000000E+01 0. -1.
        -16    1    3    3    0    0 -0.72877706055E+02  0.14587865722E+03 -0.31536623855E+02  0.16609124395E+03  0.00000000000E+00 0.  1.
          2    1    6    6  502    0  0.38625608587E+02 -0.41811587852E+03 -0.36760224167E+03  0.55807188927E+03  0.00000000000E+00 0. -1.
         -1    1    6    6    0  502  0.52748362469E+02 -0.15130456606E+03 -0.18208037483E+03  0.24254633445E+03  0.00000000000E+00 0.  1.
<mgrwt>
<rscale>  0 0.98989705E+03</rscale>
<asrwt>0</asrwt>
<pdfrwt beam="1">  1        1 0.10621006E+00 0.98989705E+03</pdfrwt>
<pdfrwt beam="2">  1       -2 0.24093165E+00 0.98989705E+03</pdfrwt>
<totfact> 0.17856361E+00</totfact>
</mgrwt>
</event>
<event>
12    3  0.1176505E-007  0.3023643E+03  0.7818608E-02  0.1084065E+00
          1   -1    0    0  501    0  0.00000000000E+00  0.00000000000E+00  0.18236273981E+04  0.18236273981E+04  0.00000000000E+00 0. -1.
         -2   -1    0    0    0  501 -0.00000000000E+00 -0.00000000000E+00 -0.88659946726E+02  0.88659946726E+02  0.00000000000E+00 0.  1.
        -24    2    1    2    0    0  0.13472888935E+02 -0.15166174089E+03  0.53890371898E+03  0.56553667591E+03  0.78941187475E+02 0.  0.
    5000000    2    1    2    0    0 -0.13472888935E+02  0.15166174089E+03  0.11960637324E+04  0.13467506689E+04  0.59998842480E+03 0.  0.
        -24    2    4    4    0    0  0.12887417606E+03 -0.93337150344E+02  0.91154341857E+02  0.20341037602E+03  0.88013011214E+02 0.  0.
         24    2    4    4    0    0 -0.14234706499E+03  0.24499889124E+03  0.11049093905E+04  0.11433402929E+04  0.78199235626E+02 0.  0.
         13    1    5    5    0    0  0.90378357871E+02 -0.57118252343E+02  0.10385254396E+03  0.14905063975E+03  0.00000000000E+00 0. -1.
        -14    1    5    5    0    0  0.38495818189E+02 -0.36218898001E+02 -0.12698202106E+02  0.54359736268E+02  0.00000000000E+00 0.  1.
         15    1    3    3    0    0  0.20889758673E+02 -0.39506380216E+02  0.27619233018E+03  0.27979009467E+03  0.17770000000E+01 0. -1.
        -16    1    3    3    0    0 -0.74168697378E+01 -0.11215536068E+03  0.26271138880E+03  0.28574658124E+03  0.00000000000E+00 0.  1.
          2    1    6    6  502    0 -0.97982487142E+02  0.11839576594E+03  0.70409014827E+03  0.72066709518E+03  0.00000000000E+00 0. -1.
         -1    1    6    6    0  502 -0.44364577853E+02  0.12660312529E+03  0.40081924227E+03  0.42267319772E+03  0.00000000000E+00 0.  1.
<mgrwt>
<rscale>  0 0.30236431E+03</rscale>
<asrwt>0</asrwt>
<pdfrwt beam="1">  1        1 0.28055803E+00 0.30236431E+03</pdfrwt>
<pdfrwt beam="2">  1       -2 0.13639993E-01 0.30236431E+03</pdfrwt>
<totfact> 0.15426872E+02</totfact>
</mgrwt>
</event>
<event>
12    3  0.1176505E-007  0.4451012E+03  0.7818608E-02  0.1029193E+00
         -2   -1    0    0    0  501 -0.00000000000E+00  0.00000000000E+00  0.10227880184E+04  0.10227880184E+04  0.00000000000E+00 0.  1.
          1   -1    0    0  501    0  0.00000000000E+00 -0.00000000000E+00 -0.31319232532E+03  0.31319232532E+03  0.00000000000E+00 0. -1.
        -24    2    1    2    0    0  0.34735775245E+03  0.15138238522E+03  0.41653630720E+03  0.56804369742E+03  0.74813850471E+02 0.  0.
    5000000    2    1    2    0    0 -0.34735775245E+03 -0.15138238522E+03  0.29305938588E+03  0.76793664630E+03  0.60022400347E+03 0.  0.
        -24    2    4    4    0    0 -0.34987166280E+03  0.29920202209E+01 -0.70337413214E+02  0.36561256080E+03  0.79410706488E+02 0.  0.
         24    2    4    4    0    0  0.25139103462E+01 -0.15437440544E+03  0.36339679909E+03  0.40232408550E+03  0.77263570858E+02 0.  0.
         11    1    5    5    0    0 -0.31258631813E+03  0.19092269959E+02 -0.41732859696E+02  0.31593726060E+03  0.00000000000E+00 0. -1.
        -12    1    5    5    0    0 -0.37285344666E+02 -0.16100249738E+02 -0.28604553518E+02  0.49675300206E+02  0.00000000000E+00 0.  1.
         15    1    3    3    0    0  0.13103214184E+03  0.31930442018E+02  0.10827880186E+03  0.17296367244E+03  0.17770000000E+01 0. -1.
        -16    1    3    3    0    0  0.21632561061E+03  0.11945194320E+03  0.30825750534E+03  0.39508002498E+03  0.00000000000E+00 0.  1.
          4    1    6    6  502    0 -0.74737400756E+00 -0.39991674025E+02  0.19279226281E+03  0.19689781400E+03  0.00000000000E+00 0. -1.
         -1    1    6    6    0  502  0.32612843538E+01 -0.11438273141E+03  0.17060453629E+03  0.20542627150E+03  0.00000000000E+00 0.  1.
<mgrwt>
<rscale>  0 0.44510117E+03</rscale>
<asrwt>0</asrwt>
<pdfrwt beam="1">  1        1 0.48183435E-01 0.44510117E+03</pdfrwt>
<pdfrwt beam="2">  1       -2 0.15735200E+00 0.44510117E+03</pdfrwt>
<totfact> 0.20030449E+01</totfact>
</mgrwt>
</event>
<event>
12    3  0.1176505E-007  0.8963218E+03  0.7818608E-02  0.9430191E-01
          1   -1    0    0  501    0  0.00000000000E+00  0.00000000000E+00  0.26339583719E+04  0.26339583719E+04  0.00000000000E+00 0. -1.
         -2   -1    0    0    0  501 -0.00000000000E+00 -0.00000000000E+00 -0.44258903697E+03  0.44258903697E+03  0.00000000000E+00 0.  1.
        -24    2    1    2    0    0 -0.88588261540E+03 -0.17787178215E+02  0.36889451690E+03  0.96310745284E+03  0.79927524230E+02 0.  0.
    5000000    2    1    2    0    0  0.88588261540E+03  0.17787178215E+02  0.18224748181E+04  0.21134399561E+04  0.60009132094E+03 0.  0.
        -24    2    4    4    0    0  0.43292511451E+03 -0.54696823535E+02  0.14520972900E+04  0.15184552455E+04  0.81877321128E+02 0.  0.
         24    2    4    4    0    0  0.45295750089E+03  0.72484001750E+02  0.37037752804E+03  0.59498471054E+03  0.80017900327E+02 0.  0.
         11    1    5    5    0    0  0.15406936904E+03 -0.59301472044E+02  0.53968695724E+03  0.56437225913E+03  0.00000000000E+00 0. -1.
        -12    1    5    5    0    0  0.27885574547E+03  0.46046485095E+01  0.91241033279E+03  0.95408298641E+03  0.00000000000E+00 0.  1.
         15    1    3    3    0    0 -0.14025858328E+03 -0.26635605576E+02  0.41189625931E+02  0.14859901978E+03  0.17770000000E+01 0. -1.
        -16    1    3    3    0    0 -0.74562403212E+03  0.88484273609E+01  0.32770489097E+03  0.81450843305E+03  0.00000000000E+00 0.  1.
          4    1    6    6  502    0  0.95501581988E+02  0.11911486557E+00  0.42386001857E+02  0.10448511618E+03  0.00000000000E+00 0. -1.
         -3    1    6    6    0  502  0.35745591891E+03  0.72364886884E+02  0.32799152619E+03  0.49049959436E+03  0.00000000000E+00 0.  1.
<mgrwt>
<rscale>  0 0.89632177E+03</rscale>
<asrwt>0</asrwt>
<pdfrwt beam="1">  1        1 0.40522436E+00 0.89632177E+03</pdfrwt>
<pdfrwt beam="2">  1       -2 0.68090622E-01 0.89632177E+03</pdfrwt>
<totfact> 0.19576001E+00</totfact>
</mgrwt>
</event>
<event>
12    3  0.1176505E-007  0.2594936E+04  0.7818608E-02  0.8369923E-01
          1   -1    0    0  501    0  0.00000000000E+00  0.00000000000E+00  0.28168200247E+04  0.28168200247E+04  0.00000000000E+00 0. -1.
         -2   -1    0    0    0  501 -0.00000000000E+00 -0.00000000000E+00 -0.24814118954E+04  0.24814118954E+04  0.00000000000E+00 0.  1.
        -24    2    1    2    0    0 -0.18961163649E+04  0.17534130077E+04  0.53705741761E+03  0.26391213926E+04  0.82562764357E+02 0.  0.
    5000000    2    1    2    0    0  0.18961163649E+04 -0.17534130077E+04 -0.20164928831E+03  0.26591105275E+04  0.60040979089E+03 0.  0.
        -24    2    4    4    0    0  0.12589555643E+04 -0.13748184919E+04 -0.35229406637E+03  0.18988043901E+04  0.79069616722E+02 0.  0.
         24    2    4    4    0    0  0.63716080061E+03 -0.37859451586E+03  0.15064477807E+03  0.76030613737E+03  0.77870919411E+02 0.  0.
         11    1    5    5    0    0  0.98173202411E+03 -0.10457694254E+04 -0.29956266338E+03  0.14653222333E+04  0.00000000000E+00 0. -1.
        -12    1    5    5    0    0  0.27722354022E+03 -0.32904906647E+03 -0.52731402997E+02  0.43348215680E+03  0.00000000000E+00 0.  1.
         15    1    3    3    0    0 -0.85185392457E+03  0.73376812376E+03  0.22331415299E+03  0.11462735873E+04  0.17770000000E+01 0. -1.
        -16    1    3    3    0    0 -0.10442624404E+04  0.10196448840E+04  0.31374326462E+03  0.14928478053E+04  0.00000000000E+00 0.  1.
          2    1    6    6  502    0  0.49261875132E+03 -0.28298065056E+03  0.82434891707E+02  0.57406166403E+03  0.00000000000E+00 0. -1.
         -1    1    6    6    0  502  0.14454204929E+03 -0.95613865309E+02  0.68209886360E+02  0.18624447334E+03  0.00000000000E+00 0.  1.
<mgrwt>
<rscale>  0 0.25949357E+04</rscale>
<asrwt>0</asrwt>
<pdfrwt beam="1">  1        1 0.43335692E+00 0.25949357E+04</pdfrwt>
<pdfrwt beam="2">  1       -2 0.38175568E+00 0.25949357E+04</pdfrwt>
<totfact> 0.57521980E-03</totfact>
</mgrwt>
</event>
<event>
12    3  0.1176505E-007  0.4900502E+03  0.7818608E-02  0.1016409E+00
         -2   -1    0    0    0  501 -0.00000000000E+00  0.00000000000E+00  0.35919775835E+03  0.35919775835E+03  0.00000000000E+00 0.  1.
          1   -1    0    0  501    0  0.00000000000E+00 -0.00000000000E+00 -0.74973091866E+03  0.74973091866E+03  0.00000000000E+00 0. -1.
        -24    2    1    2    0    0  0.10992969827E+03  0.30918257375E+03 -0.39325918427E+02  0.34015271651E+03  0.80491864287E+02 0.  0.
    5000000    2    1    2    0    0 -0.10992969827E+03 -0.30918257375E+03 -0.35120724188E+03  0.76877596050E+03  0.59999295681E+03 0.  0.
        -24    2    4    4    0    0  0.21854529893E+03 -0.35896268798E+02 -0.19917588350E+03  0.30819025618E+03  0.79117707496E+02 0.  0.
         24    2    4    4    0    0 -0.32847499720E+03 -0.27328630495E+03 -0.15203135838E+03  0.46058570432E+03  0.80277199962E+02 0.  0.
         11    1    5    5    0    0  0.86382914816E+02 -0.47784921499E+01 -0.30673005524E+02  0.91791476877E+02  0.00000000000E+00 0. -1.
        -12    1    5    5    0    0  0.13216238411E+03 -0.31117776648E+02 -0.16850287798E+03  0.21639877930E+03  0.00000000000E+00 0.  1.
         15    1    3    3    0    0  0.36519316994E+02  0.55947596068E+02  0.20268126735E+02  0.69840881365E+02  0.17770000000E+01 0. -1.
        -16    1    3    3    0    0  0.73410381275E+02  0.25323497768E+03 -0.59594045162E+02  0.27031183514E+03  0.00000000000E+00 0.  1.
          4    1    6    6  502    0 -0.15827578107E+03 -0.12914697574E+03 -0.30360940570E+02  0.20652348760E+03  0.00000000000E+00 0. -1.
         -3    1    6    6    0  502 -0.17019921612E+03 -0.14413932920E+03 -0.12167041781E+03  0.25406221672E+03  0.00000000000E+00 0.  1.
<mgrwt>
<rscale>  0 0.49005024E+03</rscale>
<asrwt>0</asrwt>
<pdfrwt beam="1">  1        1 0.11534322E+00 0.49005024E+03</pdfrwt>
<pdfrwt beam="2">  1       -2 0.55261194E-01 0.49005024E+03</pdfrwt>
<totfact> 0.68872325E+01</totfact>
</mgrwt>
</event>
<event>
12    3  0.1176505E-007  0.9267574E+03  0.7818608E-02  0.9392738E-01
         -2   -1    0    0    0  501 -0.00000000000E+00  0.00000000000E+00  0.38939091010E+03  0.38939091010E+03  0.00000000000E+00 0.  1.
          1   -1    0    0  501    0  0.00000000000E+00 -0.00000000000E+00 -0.26344929229E+04  0.26344929229E+04  0.00000000000E+00 0. -1.
        -24    2    1    2    0    0 -0.43099803120E+03 -0.74822185087E+03 -0.15085801291E+04  0.17400073393E+04  0.78843476429E+02 0.  0.
    5000000    2    1    2    0    0  0.43099803120E+03  0.74822185087E+03 -0.73652188366E+03  0.12838764937E+04  0.60023255906E+03 0.  0.
        -24    2    4    4    0    0  0.20153478446E+03  0.51946321108E+01 -0.35105134872E+03  0.41232317079E+03  0.78294918006E+02 0.  0.
         24    2    4    4    0    0  0.22946324674E+03  0.74302721876E+03 -0.38547053493E+03  0.87155332290E+03  0.79213836824E+02 0.  0.
         11    1    5    5    0    0  0.69349494150E+02  0.27323013391E+02 -0.18141536456E+03  0.19613116504E+03  0.00000000000E+00 0. -1.
        -12    1    5    5    0    0  0.13218529031E+03 -0.22128381280E+02 -0.16963598416E+03  0.21619200576E+03  0.00000000000E+00 0.  1.
         15    1    3    3    0    0 -0.22771197213E+03 -0.47238970298E+03 -0.91634883444E+03  0.10557950170E+04  0.17770000000E+01 0. -1.
        -16    1    3    3    0    0 -0.20328605907E+03 -0.27583214789E+03 -0.59223129466E+03  0.68421232230E+03  0.00000000000E+00 0.  1.
          4    1    6    6  502    0  0.90568568137E+02  0.32564535678E+03 -0.21020533014E+03  0.39803749164E+03  0.00000000000E+00 0. -1.
         -3    1    6    6    0  502  0.13889467860E+03  0.41738186197E+03 -0.17526520479E+03  0.47351583126E+03  0.00000000000E+00 0.  1.
<mgrwt>
<rscale>  0 0.92675742E+03</rscale>
<asrwt>0</asrwt>
<pdfrwt beam="1">  1        1 0.40530660E+00 0.92675742E+03</pdfrwt>
<pdfrwt beam="2">  1       -2 0.59906294E-01 0.92675742E+03</pdfrwt>
<totfact> 0.25627404E+00</totfact>
</mgrwt>
</event>
<event>
12    3  0.1176505E-007  0.4369805E+03  0.7818608E-02  0.1031677E+00
          3   -1    0    0  501    0  0.00000000000E+00  0.00000000000E+00  0.10243999880E+04  0.10243999880E+04  0.00000000000E+00 0. -1.
         -4   -1    0    0    0  501 -0.00000000000E+00 -0.00000000000E+00 -0.34565711233E+03  0.34565711233E+03  0.00000000000E+00 0.  1.
        -24    2    1    2    0    0  0.37981530335E+03 -0.69092898708E+02  0.13511572027E+02  0.39453646130E+03  0.80268072131E+02 0.  0.
    5000000    2    1    2    0    0 -0.37981530335E+03  0.69092898708E+02  0.66523130362E+03  0.97552063901E+03  0.60006194389E+03 0.  0.
        -24    2    4    4    0    0 -0.22631800565E+03  0.17651058273E+03  0.19855652268E+02  0.29869421941E+03  0.80300462550E+02 0.  0.
         24    2    4    4    0    0 -0.15349729769E+03 -0.10741768402E+03  0.64537565136E+03  0.67682641960E+03  0.80525099589E+02 0.  0.
         11    1    5    5    0    0 -0.19674551889E+03  0.12532485508E+03 -0.78648916592E+01  0.23340303132E+03  0.00000000000E+00 0. -1.
        -12    1    5    5    0    0 -0.29572486760E+02  0.51185727641E+02  0.27720543927E+02  0.65291188095E+02  0.00000000000E+00 0.  1.
         15    1    3    3    0    0  0.13843350830E+03  0.13507842091E+02  0.99200440987E+00  0.13910585832E+03  0.17770000000E+01 0. -1.
        -16    1    3    3    0    0  0.24138179505E+03 -0.82600740799E+02  0.12519567617E+02  0.25543060297E+03  0.00000000000E+00 0.  1.
          2    1    6    6  502    0 -0.12136196543E+03 -0.85100984700E+02  0.36840283108E+03  0.39710395389E+03  0.00000000000E+00 0. -1.
         -1    1    6    6    0  502 -0.32135332263E+02 -0.22316699317E+02  0.27697282028E+03  0.27972246570E+03  0.00000000000E+00 0.  1.
<mgrwt>
<rscale>  0 0.43698050E+03</rscale>
<asrwt>0</asrwt>
<pdfrwt beam="1">  1        3 0.15760000E+00 0.43698050E+03</pdfrwt>
<pdfrwt beam="2">  1       -4 0.53178018E-01 0.43698050E+03</pdfrwt>
<totfact> 0.21883968E+00</totfact>
</mgrwt>
</event>
<event>
12    3  0.1176505E-007  0.5624671E+03  0.7818608E-02  0.9986488E-01
         -2   -1    0    0    0  501 -0.00000000000E+00  0.00000000000E+00  0.12372042289E+04  0.12372042289E+04  0.00000000000E+00 0.  1.
          1   -1    0    0  501    0  0.00000000000E+00 -0.00000000000E+00 -0.32699358348E+03  0.32699358348E+03  0.00000000000E+00 0. -1.
        -24    2    1    2    0    0 -0.16071548860E+03  0.36622134954E+03  0.70451439040E+03  0.81430483735E+03  0.82488161031E+02 0.  0.
    5000000    2    1    2    0    0  0.16071548860E+03 -0.36622134954E+03  0.20569625505E+03  0.74989297508E+03  0.60006747920E+03 0.  0.
        -24    2    4    4    0    0 -0.27266195025E+02 -0.47929173355E+03  0.12789700890E+03  0.50329664608E+03  0.80534823716E+02 0.  0.
         24    2    4    4    0    0  0.18798168362E+03  0.11307038402E+03  0.77799246158E+02  0.24659632899E+03  0.81455519464E+02 0.  0.
         11    1    5    5    0    0  0.28629318725E+02 -0.14564393262E+03  0.42207591566E+02  0.15431550080E+03  0.00000000000E+00 0. -1.
        -12    1    5    5    0    0 -0.55895513750E+02 -0.33364780093E+03  0.85689417329E+02  0.34898114529E+03  0.00000000000E+00 0.  1.
         15    1    3    3    0    0 -0.15333760032E+03  0.26582490816E+03  0.55178949408E+03  0.63138744442E+03  0.17770000000E+01 0. -1.
        -16    1    3    3    0    0 -0.73778882739E+01  0.10039644138E+03  0.15272489633E+03  0.18291739293E+03  0.00000000000E+00 0.  1.
          2    1    6    6  502    0  0.56527245228E+02 -0.11044583081E+01  0.37604251752E+02  0.67901612875E+02  0.00000000000E+00 0. -1.
         -1    1    6    6    0  502  0.13145443840E+03  0.11417484232E+03  0.40194994406E+02  0.17869471612E+03  0.00000000000E+00 0.  1.
<mgrwt>
<rscale>  0 0.56246711E+03</rscale>
<asrwt>0</asrwt>
<pdfrwt beam="1">  1        1 0.50306706E-01 0.56246711E+03</pdfrwt>
<pdfrwt beam="2">  1       -2 0.19033911E+00 0.56246711E+03</pdfrwt>
<totfact> 0.11004052E+01</totfact>
</mgrwt>
</event>
<event>
12    3  0.1176505E-007  0.6014666E+03  0.7818608E-02  0.9902368E-01
         -2   -1    0    0    0  501 -0.00000000000E+00  0.00000000000E+00  0.13203412609E+04  0.13203412609E+04  0.00000000000E+00 0.  1.
          1   -1    0    0  501    0  0.00000000000E+00 -0.00000000000E+00 -0.27660106635E+03  0.27660106635E+03  0.00000000000E+00 0. -1.
        -24    2    1    2    0    0 -0.42820820770E+03  0.13804170515E+03  0.36944694076E+03  0.58848791525E+03  0.86076726612E+02 0.  0.
    5000000    2    1    2    0    0  0.42820820770E+03 -0.13804170515E+03  0.67429325379E+03  0.10084544120E+04  0.59990926603E+03 0.  0.
        -24    2    4    4    0    0 -0.13820284376E+03  0.30110741782E+01  0.16129639189E+03  0.22723006282E+03  0.80671449859E+02 0.  0.
         24    2    4    4    0    0  0.56641105146E+03 -0.14105277932E+03  0.51299686190E+03  0.78122434918E+03  0.80176914768E+02 0.  0.
         13    1    5    5    0    0 -0.11690453910E+03 -0.27056604626E+02  0.10235428957E+03  0.15771852050E+03  0.00000000000E+00 0. -1.
        -14    1    5    5    0    0 -0.21298304663E+02  0.30067678805E+02  0.58942102316E+02  0.69511542320E+02  0.00000000000E+00 0.  1.
         15    1    3    3    0    0 -0.63826963522E+02 -0.79850204773E+01  0.38063786363E+02  0.74763971174E+02  0.17770000000E+01 0. -1.
        -16    1    3    3    0    0 -0.36438124417E+03  0.14602672562E+03  0.33138315439E+03  0.51372394408E+03  0.00000000000E+00 0.  1.
          2    1    6    6  502    0  0.36938171692E+02 -0.31402939058E+02  0.42491248443E+02  0.64467660913E+02  0.00000000000E+00 0. -1.
         -1    1    6    6    0  502  0.52947287976E+03 -0.10964984027E+03  0.47050561346E+03  0.71675668826E+03  0.00000000000E+00 0.  1.
<mgrwt>
<rscale>  0 0.60146664E+03</rscale>
<asrwt>0</asrwt>
<pdfrwt beam="1">  1        1 0.42554011E-01 0.60146664E+03</pdfrwt>
<pdfrwt beam="2">  1       -2 0.20312942E+00 0.60146664E+03</pdfrwt>
<totfact> 0.11216291E+01</totfact>
</mgrwt>
</event>
<event>
12    3  0.1176505E-007  0.1099772E+04  0.7818608E-02  0.9205415E-01
         -2   -1    0    0    0  501 -0.00000000000E+00  0.00000000000E+00  0.79702866251E+03  0.79702866251E+03  0.00000000000E+00 0.  1.
          1   -1    0    0  501    0  0.00000000000E+00 -0.00000000000E+00 -0.17892256226E+04  0.17892256226E+04  0.00000000000E+00 0. -1.
        -24    2    1    2    0    0  0.46621866086E+03 -0.92619787693E+03 -0.91594892546E+03  0.13858146328E+04  0.79482170425E+02 0.  0.
    5000000    2    1    2    0    0 -0.46621866086E+03  0.92619787693E+03 -0.76248034663E+02  0.12004396524E+04  0.60003270677E+03 0.  0.
        -24    2    4    4    0    0  0.63037708968E+02 -0.27365983077E+02 -0.13064112813E+02  0.10511147291E+03  0.78454451190E+02 0.  0.
         24    2    4    4    0    0 -0.52925636983E+03  0.95356386001E+03 -0.63183921850E+02  0.10953281794E+04  0.79719963625E+02 0.  0.
         11    1    5    5    0    0  0.44496367812E+02 -0.15736859720E+02  0.30614100482E+02  0.56256543181E+02  0.00000000000E+00 0. -1.
        -12    1    5    5    0    0  0.18541341156E+02 -0.11629123357E+02 -0.43678213295E+02  0.48854929726E+02  0.00000000000E+00 0.  1.
         15    1    3    3    0    0  0.11679779733E+03 -0.31241019945E+03 -0.30476749361E+03  0.45180553457E+03  0.17770000000E+01 0. -1.
        -16    1    3    3    0    0  0.34942086353E+03 -0.61378767748E+03 -0.61118143186E+03  0.93400909821E+03  0.00000000000E+00 0.  1.
          2    1    6    6  502    0 -0.36161435403E+03  0.66162557013E+03 -0.80193478365E+02  0.75825083585E+03  0.00000000000E+00 0. -1.
         -1    1    6    6    0  502 -0.16764201580E+03  0.29193828987E+03  0.17009556515E+02  0.33707734360E+03  0.00000000000E+00 0.  1.
<mgrwt>
<rscale>  0 0.10997716E+04</rscale>
<asrwt>0</asrwt>
<pdfrwt beam="1">  1        1 0.27526548E+00 0.10997716E+04</pdfrwt>
<pdfrwt beam="2">  1       -2 0.12261980E+00 0.10997716E+04</pdfrwt>
<totfact> 0.18106953E+00</totfact>
</mgrwt>
</event>
<event>
12    3  0.1176505E-007  0.5955904E+03  0.7818608E-02  0.9914597E-01
         -2   -1    0    0    0  501 -0.00000000000E+00  0.00000000000E+00  0.67306854083E+03  0.67306854083E+03  0.00000000000E+00 0.  1.
          1   -1    0    0  501    0  0.00000000000E+00 -0.00000000000E+00 -0.97392823961E+03  0.97392823961E+03  0.00000000000E+00 0. -1.
        -24    2    1    2    0    0  0.46717675187E+03  0.29763391023E+03  0.29815475012E+03  0.63419534570E+03  0.80420267855E+02 0.  0.
    5000000    2    1    2    0    0 -0.46717675187E+03 -0.29763391023E+03 -0.59901444891E+03  0.10128014347E+04  0.60009030504E+03 0.  0.
        -24    2    4    4    0    0 -0.68987013186E+02  0.42596435210E+02 -0.44714171216E+03  0.46155395056E+03  0.80763074803E+02 0.  0.
         24    2    4    4    0    0 -0.39818973868E+03 -0.34023034544E+03 -0.15187273675E+03  0.55124748417E+03  0.80602138243E+02 0.  0.
         11    1    5    5    0    0  0.10410558963E+02 -0.20827727131E+01 -0.15895962845E+03  0.15931378206E+03  0.00000000000E+00 0. -1.
        -12    1    5    5    0    0 -0.79397572149E+02  0.44679207923E+02 -0.28818208371E+03  0.30224016850E+03  0.00000000000E+00 0.  1.
         15    1    3    3    0    0  0.38751376366E+03  0.28013496350E+03  0.25585657522E+03  0.54231748968E+03  0.17770000000E+01 0. -1.
        -16    1    3    3    0    0  0.79662988205E+02  0.17498946734E+02  0.42298174905E+02  0.91877856020E+02  0.00000000000E+00 0.  1.
          4    1    6    6  502    0 -0.57869267833E+02 -0.91250010873E+02 -0.36903819628E+02  0.11418103410E+03  0.00000000000E+00 0. -1.
         -3    1    6    6    0  502 -0.34032047085E+03 -0.24898033457E+03 -0.11496891712E+03  0.43706645008E+03  0.00000000000E+00 0.  1.
<mgrwt>
<rscale>  0 0.59559042E+03</rscale>
<asrwt>0</asrwt>
<pdfrwt beam="1">  1        1 0.14983511E+00 0.59559042E+03</pdfrwt>
<pdfrwt beam="2">  1       -2 0.10354901E+00 0.59559042E+03</pdfrwt>
<totfact> 0.11040329E+01</totfact>
</mgrwt>
</event>
<event>
12    3  0.1176505E-007  0.8912207E+03  0.7818608E-02  0.9436623E-01
          1   -1    0    0  501    0  0.00000000000E+00  0.00000000000E+00  0.20231923725E+04  0.20231923725E+04  0.00000000000E+00 0. -1.
         -2   -1    0    0    0  501 -0.00000000000E+00 -0.00000000000E+00 -0.49530339116E+03  0.49530339116E+03  0.00000000000E+00 0.  1.
        -24    2    1    2    0    0  0.70001593651E+03  0.43899698470E+03  0.21799538865E+03  0.85758468334E+03  0.72033573352E+02 0.  0.
    5000000    2    1    2    0    0 -0.70001593651E+03 -0.43899698470E+03  0.13098935927E+04  0.16609110803E+04  0.60005310481E+03 0.  0.
        -24    2    4    4    0    0 -0.20785520266E+03 -0.40353248531E+03  0.34915654446E+03  0.57809180142E+03  0.78978391695E+02 0.  0.
         24    2    4    4    0    0 -0.49216073384E+03 -0.35464499393E+02  0.96073704824E+03  0.10828192789E+04  0.77472551570E+02 0.  0.
         13    1    5    5    0    0 -0.15191581312E+03 -0.30866142672E+03  0.21998810844E+03  0.40834428914E+03  0.00000000000E+00 0. -1.
        -14    1    5    5    0    0 -0.55939389545E+02 -0.94871058594E+02  0.12916843602E+03  0.16974751228E+03  0.00000000000E+00 0.  1.
         15    1    3    3    0    0  0.10312133658E+03  0.38698693469E+02  0.39811596695E+02  0.11713120803E+03  0.17770000000E+01 0. -1.
        -16    1    3    3    0    0  0.59689459993E+03  0.40029829123E+03  0.17818379196E+03  0.74045347531E+03  0.00000000000E+00 0.  1.
          4    1    6    6  502    0 -0.37745310094E+03 -0.59831974739E+02  0.72870593775E+03  0.82283841203E+03  0.00000000000E+00 0. -1.
         -3    1    6    6    0  502 -0.11470763290E+03  0.24367475346E+02  0.23203111049E+03  0.25998086687E+03  0.00000000000E+00 0.  1.
<mgrwt>
<rscale>  0 0.89122069E+03</rscale>
<asrwt>0</asrwt>
<pdfrwt beam="1">  1        1 0.31126036E+00 0.89122069E+03</pdfrwt>
<pdfrwt beam="2">  1       -2 0.76200523E-01 0.89122069E+03</pdfrwt>
<totfact> 0.39756283E+00</totfact>
</mgrwt>
</event>
<event>
12    3  0.1176505E-007  0.7115797E+03  0.7818608E-02  0.9697632E-01
          1   -1    0    0  501    0  0.00000000000E+00  0.00000000000E+00  0.36765132920E+04  0.36765132920E+04  0.00000000000E+00 0. -1.
         -2   -1    0    0    0  501 -0.00000000000E+00 -0.00000000000E+00 -0.18102289911E+03  0.18102289911E+03  0.00000000000E+00 0.  1.
        -24    2    1    2    0    0  0.57666408942E+03  0.14549097544E+03  0.24014302453E+04  0.24752742259E+04  0.80038581868E+02 0.  0.
    5000000    2    1    2    0    0 -0.57666408942E+03 -0.14549097544E+03  0.10940601476E+04  0.13822619652E+04  0.59997619776E+03 0.  0.
        -24    2    4    4    0    0 -0.59277402389E+03 -0.29800379103E+03  0.91065706398E+03  0.11296180941E+04  0.80953366175E+02 0.  0.
         24    2    4    4    0    0  0.16109934474E+02  0.15251281558E+03  0.18340308362E+03  0.25264387107E+03  0.81685651161E+02 0.  0.
         13    1    5    5    0    0 -0.46279636664E+03 -0.21739051029E+03  0.75086181128E+03  0.90842312310E+03  0.00000000000E+00 0. -1.
        -14    1    5    5    0    0 -0.12997765725E+03 -0.80613280737E+02  0.15979525270E+03  0.22119497101E+03  0.00000000000E+00 0.  1.
         15    1    3    3    0    0  0.30257382471E+03  0.64968020474E+02  0.10894795861E+04  0.11325814273E+04  0.17770000000E+01 0. -1.
        -16    1    3    3    0    0  0.27409026471E+03  0.80522954971E+02  0.13119506591E+04  0.13426927986E+04  0.00000000000E+00 0.  1.
          4    1    6    6  502    0 -0.14319335336E+02  0.11288526284E+03  0.16274183301E+03  0.19857751671E+03  0.00000000000E+00 0. -1.
         -3    1    6    6    0  502  0.30429269810E+02  0.39627552744E+02  0.20661250604E+02  0.54066354364E+02  0.00000000000E+00 0.  1.
<mgrwt>
<rscale>  0 0.71157969E+03</rscale>
<asrwt>0</asrwt>
<pdfrwt beam="1">  1        1 0.56561737E+00 0.71157969E+03</pdfrwt>
<pdfrwt beam="2">  1       -2 0.27849680E-01 0.71157969E+03</pdfrwt>
<totfact> 0.20446003E+00</totfact>
</mgrwt>
</event>
<event>
12    3  0.1176505E-007  0.4531943E+03  0.7818608E-02  0.1026774E+00
         -2   -1    0    0    0  501 -0.00000000000E+00  0.00000000000E+00  0.19008054895E+03  0.19008054895E+03  0.00000000000E+00 0.  1.
          1   -1    0    0  501    0  0.00000000000E+00 -0.00000000000E+00 -0.11814205318E+04  0.11814205318E+04  0.00000000000E+00 0. -1.
        -24    2    1    2    0    0 -0.13085399812E+03 -0.21464983402E+03 -0.46180648625E+03  0.53262860392E+03  0.85033398775E+02 0.  0.
    5000000    2    1    2    0    0  0.13085399812E+03  0.21464983402E+03 -0.52953349661E+03  0.83887247684E+03  0.60008665066E+03 0.  0.
        -24    2    4    4    0    0 -0.18990007636E+03 -0.64973372224E+02 -0.17662584723E+03  0.28003793479E+03  0.83312525538E+02 0.  0.
         24    2    4    4    0    0  0.32075407448E+03  0.27962320624E+03 -0.35290764938E+03  0.55883454204E+03  0.81730793645E+02 0.  0.
         11    1    5    5    0    0 -0.20072905718E+02 -0.40574459898E+02 -0.29582958919E+02  0.54077350142E+02  0.00000000000E+00 0. -1.
        -12    1    5    5    0    0 -0.16982717064E+03 -0.24398912325E+02 -0.14704288831E+03  0.22596058465E+03  0.00000000000E+00 0.  1.
         15    1    3    3    0    0 -0.92495210675E+02 -0.83329574512E+02 -0.26675764907E+03  0.29438407404E+03  0.17770000000E+01 0. -1.
        -16    1    3    3    0    0 -0.38358787443E+02 -0.13132025951E+03 -0.19504883718E+03  0.23824452988E+03  0.00000000000E+00 0.  1.
          2    1    6    6  502    0  0.11465916015E+03  0.70380168147E+02 -0.72755891596E+02  0.15294937344E+03  0.00000000000E+00 0. -1.
         -1    1    6    6    0  502  0.20609491433E+03  0.20924303809E+03 -0.28015175778E+03  0.40588516860E+03  0.00000000000E+00 0.  1.
<mgrwt>
<rscale>  0 0.45319435E+03</rscale>
<asrwt>0</asrwt>
<pdfrwt beam="1">  1        1 0.18175701E+00 0.45319435E+03</pdfrwt>
<pdfrwt beam="2">  1       -2 0.29243161E-01 0.45319435E+03</pdfrwt>
<totfact> 0.10906775E+02</totfact>
</mgrwt>
</event>
<event>
12    3  0.1176505E-007  0.5459088E+03  0.7818608E-02  0.1002445E+00
         -4   -1    0    0    0  501 -0.00000000000E+00  0.00000000000E+00  0.83022309960E+02  0.83022309960E+02  0.00000000000E+00 0.  1.
          3   -1    0    0  501    0  0.00000000000E+00 -0.00000000000E+00 -0.43601065908E+04  0.43601065908E+04  0.00000000000E+00 0. -1.
        -24    2    1    2    0    0  0.20199672053E+01 -0.44555939989E+03 -0.17795041407E+04  0.18361333165E+04  0.78887957681E+02 0.  0.
    5000000    2    1    2    0    0 -0.20199672053E+01  0.44555939989E+03 -0.24975801401E+04  0.26069955843E+04  0.59999346759E+03 0.  0.
        -24    2    4    4    0    0 -0.23620825140E+02 -0.79076814372E+02 -0.10361973338E+03  0.15486644956E+03  0.80221456615E+02 0.  0.
         24    2    4    4    0    0  0.21600857935E+02  0.52463621426E+03 -0.23939604067E+04  0.24521291347E+04  0.78620035885E+02 0.  0.
         13    1    5    5    0    0  0.17278966395E+02 -0.66833466874E+02 -0.45212403050E+02  0.82519309035E+02  0.00000000000E+00 0. -1.
        -14    1    5    5    0    0 -0.40899791535E+02 -0.12243347498E+02 -0.58407330331E+02  0.72347140524E+02  0.00000000000E+00 0.  1.
         15    1    3    3    0    0  0.39266989858E+02 -0.26751950011E+03 -0.10909552948E+04  0.11239640530E+04  0.17770000000E+01 0. -1.
        -16    1    3    3    0    0 -0.37247022653E+02 -0.17803989978E+03 -0.68854884589E+03  0.71216926344E+03  0.00000000000E+00 0.  1.
          4    1    6    6  502    0  0.24636286000E+02  0.94435726848E+02 -0.55507789782E+03  0.56359251747E+03  0.00000000000E+00 0. -1.
         -3    1    6    6    0  502 -0.30354280658E+01  0.43020048742E+03 -0.18388825089E+04  0.18885366173E+04  0.00000000000E+00 0.  1.
<mgrwt>
<rscale>  0 0.54590885E+03</rscale>
<asrwt>0</asrwt>
<pdfrwt beam="1">  1        3 0.67078558E+00 0.54590885E+03</pdfrwt>
<pdfrwt beam="2">  1       -4 0.12772664E-01 0.54590885E+03</pdfrwt>
<totfact> 0.65162023E-02</totfact>
</mgrwt>
</event>
<event>
12    3  0.1176505E-007  0.5095108E+03  0.7818608E-02  0.1011326E+00
          1   -1    0    0  501    0  0.00000000000E+00  0.00000000000E+00  0.89640051116E+03  0.89640051116E+03  0.00000000000E+00 0. -1.
         -2   -1    0    0    0  501 -0.00000000000E+00 -0.00000000000E+00 -0.78972471983E+03  0.78972471983E+03  0.00000000000E+00 0.  1.
        -24    2    1    2    0    0  0.27829197548E+03  0.37716515749E+03  0.61001880815E+03  0.77344763669E+03  0.79989504034E+02 0.  0.
    5000000    2    1    2    0    0 -0.27829197548E+03 -0.37716515749E+03 -0.50334301682E+03  0.91267759430E+03  0.59993851262E+03 0.  0.
        -24    2    4    4    0    0 -0.40340673882E+02 -0.28143657305E+03 -0.56501355929E+03  0.63700099155E+03  0.75472024149E+02 0.  0.
         24    2    4    4    0    0 -0.23795130159E+03 -0.95728584441E+02  0.61670542473E+02  0.27567660275E+03  0.80059663300E+02 0.  0.
         13    1    5    5    0    0 -0.54747365423E+02 -0.15441330603E+03 -0.27573411850E+03  0.32073360785E+03  0.00000000000E+00 0. -1.
        -14    1    5    5    0    0  0.14406691541E+02 -0.12702326702E+03 -0.28927944079E+03  0.31626738370E+03  0.00000000000E+00 0.  1.
         15    1    3    3    0    0  0.24419236747E+03  0.30273985098E+03  0.54137500770E+03  0.66661187087E+03  0.17770000000E+01 0. -1.
        -16    1    3    3    0    0  0.34099608008E+02  0.74425306517E+02  0.68643800456E+02  0.10683576582E+03  0.00000000000E+00 0.  1.
          2    1    6    6  502    0 -0.18927183259E+03 -0.73957036128E+02  0.13237322778E+02  0.20363864200E+03  0.00000000000E+00 0. -1.
         -1    1    6    6    0  502 -0.48679469008E+02 -0.21771548313E+02  0.48433219695E+02  0.72037960749E+02  0.00000000000E+00 0.  1.
<mgrwt>
<rscale>  0 0.50951078E+03</rscale>
<asrwt>0</asrwt>
<pdfrwt beam="1">  1        1 0.13790777E+00 0.50951078E+03</pdfrwt>
<pdfrwt beam="2">  1       -2 0.12149611E+00 0.50951078E+03</pdfrwt>
<totfact> 0.87556653E+00</totfact>
</mgrwt>
</event>
<event>
12    3  0.1176505E-007  0.9342677E+03  0.7818608E-02  0.9383731E-01
          1   -1    0    0  501    0  0.00000000000E+00  0.00000000000E+00  0.12680037600E+04  0.12680037600E+04  0.00000000000E+00 0. -1.
         -2   -1    0    0    0  501 -0.00000000000E+00 -0.00000000000E+00 -0.16672826440E+04  0.16672826440E+04  0.00000000000E+00 0.  1.
        -24    2    1    2    0    0 -0.28260193814E+03  0.79468479841E+03  0.92502322148E+03  0.12544713030E+04  0.81501567762E+02 0.  0.
    5000000    2    1    2    0    0  0.28260193814E+03 -0.79468479841E+03 -0.13243021056E+04  0.16808151010E+04  0.59997962696E+03 0.  0.
        -24    2    4    4    0    0 -0.15802027403E+03 -0.86125982971E+02 -0.26455860404E+03  0.32965591654E+03  0.79332694338E+02 0.  0.
         24    2    4    4    0    0  0.44062221217E+03 -0.70855881544E+03 -0.10597435015E+04  0.13511591845E+04  0.79820573785E+02 0.  0.
         11    1    5    5    0    0 -0.23288824719E+02 -0.30823918889E+02 -0.16511287004E+02  0.42013163783E+02  0.00000000000E+00 0. -1.
        -12    1    5    5    0    0 -0.13473144931E+03 -0.55302064082E+02 -0.24804731704E+03  0.28764275276E+03  0.00000000000E+00 0.  1.
         15    1    3    3    0    0 -0.17244397776E+02  0.13368929628E+03  0.13547424257E+03  0.19111940070E+03  0.17770000000E+01 0. -1.
        -16    1    3    3    0    0 -0.26535754036E+03  0.66099550213E+03  0.78954897891E+03  0.10633519023E+04  0.00000000000E+00 0.  1.
          4    1    6    6  502    0  0.30119079924E+03 -0.54108622927E+03 -0.75411953388E+03  0.97580042858E+03  0.00000000000E+00 0. -1.
         -3    1    6    6    0  502  0.13943141293E+03 -0.16747258617E+03 -0.30562396763E+03  0.37535875589E+03  0.00000000000E+00 0.  1.
<mgrwt>
<rscale>  0 0.93426766E+03</rscale>
<asrwt>0</asrwt>
<pdfrwt beam="1">  1        1 0.19507750E+00 0.93426766E+03</pdfrwt>
<pdfrwt beam="2">  1       -2 0.25650502E+00 0.93426766E+03</pdfrwt>
<totfact> 0.49687512E-01</totfact>
</mgrwt>
</event>
<event>
12    3  0.1176505E-007  0.3228568E+03  0.7818608E-02  0.1074342E+00
         -2   -1    0    0    0  501 -0.00000000000E+00  0.00000000000E+00  0.12866378663E+03  0.12866378663E+03  0.00000000000E+00 0.  1.
          1   -1    0    0  501    0  0.00000000000E+00 -0.00000000000E+00 -0.10379377523E+04  0.10379377523E+04  0.00000000000E+00 0. -1.
        -24    2    1    2    0    0  0.79099854892E+02 -0.51862160961E+02 -0.14967222385E+03  0.19380836902E+03  0.78825367265E+02 0.  0.
    5000000    2    1    2    0    0 -0.79099854892E+02  0.51862160961E+02 -0.75960174180E+03  0.97279316989E+03  0.60032097619E+03 0.  0.
        -24    2    4    4    0    0  0.19569211955E+03  0.10520124215E+03 -0.59121691192E+03  0.63655656353E+03  0.79398454792E+02 0.  0.
         24    2    4    4    0    0 -0.27479197444E+03 -0.53339081193E+02 -0.16838482988E+03  0.33623660636E+03  0.79661268668E+02 0.  0.
         11    1    5    5    0    0  0.24355405991E+02  0.48115376849E+02 -0.10850900235E+03  0.12117127911E+03  0.00000000000E+00 0. -1.
        -12    1    5    5    0    0  0.17133671356E+03  0.57085865305E+02 -0.48270790957E+03  0.51538528442E+03  0.00000000000E+00 0.  1.
         15    1    3    3    0    0  0.80100502744E+01 -0.51142553044E+02 -0.57211764057E+02  0.77175548672E+02  0.17770000000E+01 0. -1.
        -16    1    3    3    0    0  0.71089804617E+02 -0.71960791734E+00 -0.92460459796E+02  0.11663282035E+03  0.00000000000E+00 0.  1.
          2    1    6    6  502    0 -0.68862653784E+02  0.16566980110E+02 -0.22301561465E+02  0.74255569218E+02  0.00000000000E+00 0. -1.
         -1    1    6    6    0  502 -0.20592932066E+03 -0.69906061302E+02 -0.14608326842E+03  0.26198103715E+03  0.00000000000E+00 0.  1.
<mgrwt>
<rscale>  0 0.32285676E+03</rscale>
<asrwt>0</asrwt>
<pdfrwt beam="1">  1        1 0.15968273E+00 0.32285676E+03</pdfrwt>
<pdfrwt beam="2">  1       -2 0.19794429E-01 0.32285676E+03</pdfrwt>
<totfact> 0.28182231E+02</totfact>
</mgrwt>
</event>
<event>
12    3  0.1176505E-007  0.5137645E+03  0.7818608E-02  0.1010247E+00
          1   -1    0    0  501    0  0.00000000000E+00  0.00000000000E+00  0.75063774891E+03  0.75063774891E+03  0.00000000000E+00 0. -1.
         -2   -1    0    0    0  501 -0.00000000000E+00 -0.00000000000E+00 -0.38853165223E+03  0.38853165223E+03  0.00000000000E+00 0.  1.
        -24    2    1    2    0    0 -0.17840529149E+03  0.31641951196E+03  0.18729912198E+03  0.41630997619E+03  0.79267140764E+02 0.  0.
    5000000    2    1    2    0    0  0.17840529149E+03 -0.31641951196E+03  0.17480697470E+03  0.72285942495E+03  0.60001542834E+03 0.  0.
        -24    2    4    4    0    0  0.35625269807E+03 -0.91893528462E+02 -0.29131000376E+01  0.37631504791E+03  0.79019767617E+02 0.  0.
         24    2    4    4    0    0 -0.17784740658E+03 -0.22452598349E+03  0.17772007474E+03  0.34654437704E+03  0.80417429699E+02 0.  0.
         11    1    5    5    0    0  0.10080481606E+03  0.33656053349E+01  0.19628822019E+02  0.10275324274E+03  0.00000000000E+00 0. -1.
        -12    1    5    5    0    0  0.25544788201E+03 -0.95259133797E+02 -0.22541922057E+02  0.27356180517E+03  0.00000000000E+00 0.  1.
         15    1    3    3    0    0 -0.88626685381E+02  0.10192984905E+03  0.99465686457E+02  0.16775268701E+03  0.17770000000E+01 0. -1.
        -16    1    3    3    0    0 -0.89778606113E+02  0.21448966290E+03  0.87833435521E+02  0.24855728918E+03  0.00000000000E+00 0.  1.
          2    1    6    6  502    0 -0.82570583596E+02 -0.10528142095E+03  0.13018046413E+03  0.18667895466E+03  0.00000000000E+00 0. -1.
         -1    1    6    6    0  502 -0.95276822984E+02 -0.11924456255E+03  0.47539610610E+02  0.15986542238E+03  0.00000000000E+00 0.  1.
<mgrwt>
<rscale>  0 0.51376446E+03</rscale>
<asrwt>0</asrwt>
<pdfrwt beam="1">  1        1 0.11548273E+00 0.51376446E+03</pdfrwt>
<pdfrwt beam="2">  1       -2 0.59774100E-01 0.51376446E+03</pdfrwt>
<totfact> 0.58232447E+01</totfact>
</mgrwt>
</event>
<event>
12    3  0.1176505E-007  0.7008097E+03  0.7818608E-02  0.9715849E-01
          1   -1    0    0  501    0  0.00000000000E+00  0.00000000000E+00  0.65743143534E+03  0.65743143534E+03  0.00000000000E+00 0. -1.
         -2   -1    0    0    0  501 -0.00000000000E+00 -0.00000000000E+00 -0.13116399049E+04  0.13116399049E+04  0.00000000000E+00 0.  1.
        -24    2    1    2    0    0  0.56535262546E+03  0.38882226507E+03 -0.78775475906E+03  0.10478384420E+04  0.81249586226E+02 0.  0.
    5000000    2    1    2    0    0 -0.56535262546E+03 -0.38882226507E+03  0.13354628953E+03  0.92123289816E+03  0.60002424642E+03 0.  0.
        -24    2    4    4    0    0 -0.38884031360E+03 -0.31969250793E+03 -0.18491177039E+03  0.54216596274E+03  0.79696168208E+02 0.  0.
         24    2    4    4    0    0 -0.17651231186E+03 -0.69129757142E+02  0.31845805992E+03  0.37906693542E+03  0.79628424839E+02 0.  0.
         13    1    5    5    0    0 -0.29377575621E+03 -0.28251362023E+03 -0.14894605252E+03  0.43393901312E+03  0.00000000000E+00 0. -1.
        -14    1    5    5    0    0 -0.95064557390E+02 -0.37178887698E+02 -0.35965717867E+02  0.10822694962E+03  0.00000000000E+00 0.  1.
         15    1    3    3    0    0  0.38703434792E+03  0.29304419342E+03 -0.59953387974E+03  0.77143665745E+03  0.17770000000E+01 0. -1.
        -16    1    3    3    0    0  0.17831827753E+03  0.95778071644E+02 -0.18822087932E+03  0.27640178459E+03  0.00000000000E+00 0.  1.
          4    1    6    6  502    0 -0.14758933187E+03 -0.85792390164E+02  0.28191281555E+03  0.32957211754E+03  0.00000000000E+00 0. -1.
         -3    1    6    6    0  502 -0.28922979985E+02  0.16662633023E+02  0.36545244371E+02  0.49494817876E+02  0.00000000000E+00 0.  1.
<mgrwt>
<rscale>  0 0.70080968E+03</rscale>
<asrwt>0</asrwt>
<pdfrwt beam="1">  1        1 0.10114330E+00 0.70080968E+03</pdfrwt>
<pdfrwt beam="2">  1       -2 0.20179075E+00 0.70080968E+03</pdfrwt>
<totfact> 0.35118567E+00</totfact>
</mgrwt>
</event>
<event>
12    3  0.1176505E-007  0.8658003E+03  0.7818608E-02  0.9469372E-01
         -2   -1    0    0    0  501 -0.00000000000E+00  0.00000000000E+00  0.82672865461E+03  0.82672865461E+03  0.00000000000E+00 0.  1.
          1   -1    0    0  501    0  0.00000000000E+00 -0.00000000000E+00 -0.96194480887E+03  0.96194480887E+03  0.00000000000E+00 0. -1.
        -24    2    1    2    0    0 -0.77257926724E+03 -0.36032804698E+02  0.92306796672E+02  0.78366780515E+03  0.86241503523E+02 0.  0.
    5000000    2    1    2    0    0  0.77257926724E+03  0.36032804698E+02 -0.22752295093E+03  0.10050056583E+04  0.60007715580E+03 0.  0.
        -24    2    4    4    0    0  0.60357563732E+03  0.27379429030E+03 -0.89941287074E+02  0.67296228153E+03  0.74309715872E+02 0.  0.
         24    2    4    4    0    0  0.16900362992E+03 -0.23776148561E+03 -0.13758166385E+03  0.33204337681E+03  0.78938830049E+02 0.  0.
         11    1    5    5    0    0  0.14265204573E+03  0.87397840117E+02  0.21971518874E+01  0.16731053788E+03  0.00000000000E+00 0. -1.
        -12    1    5    5    0    0  0.46092359158E+03  0.18639645019E+03 -0.92138438961E+02  0.50565174365E+03  0.00000000000E+00 0.  1.
         15    1    3    3    0    0 -0.24493930040E+03 -0.26785761285E+02  0.66943447626E+02  0.25533766036E+03  0.17770000000E+01 0. -1.
        -16    1    3    3    0    0 -0.52763996684E+03 -0.92470434127E+01  0.25363349046E+02  0.52833014479E+03  0.00000000000E+00 0.  1.
          2    1    6    6  502    0  0.13740988894E+03 -0.17297180360E+03 -0.13703254257E+03  0.25995892011E+03  0.00000000000E+00 0. -1.
         -1    1    6    6    0  502  0.31593740975E+02 -0.64789682003E+02 -0.54912127745E+00  0.72084456695E+02  0.00000000000E+00 0.  1.
<mgrwt>
<rscale>  0 0.86580028E+03</rscale>
<asrwt>0</asrwt>
<pdfrwt beam="1">  1        1 0.14799151E+00 0.86580028E+03</pdfrwt>
<pdfrwt beam="2">  1       -2 0.12718902E+00 0.86580028E+03</pdfrwt>
<totfact> 0.65916611E+00</totfact>
</mgrwt>
</event>
<event>
12    3  0.1176505E-007  0.1126158E+04  0.7818608E-02  0.9180065E-01
          3   -1    0    0  501    0  0.00000000000E+00  0.00000000000E+00  0.63670536141E+03  0.63670536141E+03  0.00000000000E+00 0. -1.
         -4   -1    0    0    0  501 -0.00000000000E+00 -0.00000000000E+00 -0.20563250781E+04  0.20563250781E+04  0.00000000000E+00 0.  1.
        -24    2    1    2    0    0  0.79005972514E+03  0.69639292545E+03 -0.83845606075E+03  0.13486277947E+04  0.81430257804E+02 0.  0.
    5000000    2    1    2    0    0 -0.79005972514E+03 -0.69639292545E+03 -0.58116365593E+03  0.13444026448E+04  0.60042468346E+03 0.  0.
        -24    2    4    4    0    0 -0.20859754996E+03  0.72817618010E+02 -0.18629054106E+03  0.29941078414E+03  0.78277127121E+02 0.  0.
         24    2    4    4    0    0 -0.58146217518E+03 -0.76921054346E+03 -0.39487311487E+03  0.10449918607E+04  0.79373110606E+02 0.  0.
         13    1    5    5    0    0 -0.10594521328E+02  0.24927911003E+02 -0.41219552578E+02  0.49322369610E+02  0.00000000000E+00 0. -1.
        -14    1    5    5    0    0 -0.19800302863E+03  0.47889707007E+02 -0.14507098848E+03  0.25008841453E+03  0.00000000000E+00 0.  1.
         15    1    3    3    0    0  0.41197035845E+03  0.39443234181E+03 -0.49570450306E+03  0.75566034737E+03  0.17770000000E+01 0. -1.
        -16    1    3    3    0    0  0.37808936668E+03  0.30196058364E+03 -0.34275155769E+03  0.59296744731E+03  0.00000000000E+00 0.  1.
          4    1    6    6  502    0 -0.33982938369E+03 -0.51078310322E+03 -0.23974602323E+03  0.65868167138E+03  0.00000000000E+00 0. -1.
         -1    1    6    6    0  502 -0.24163279149E+03 -0.25842744025E+03 -0.15512709163E+03  0.38631018929E+03  0.00000000000E+00 0.  1.
<mgrwt>
<rscale>  0 0.11261582E+04</rscale>
<asrwt>0</asrwt>
<pdfrwt beam="1">  1        3 0.97954672E-01 0.11261582E+04</pdfrwt>
<pdfrwt beam="2">  1       -4 0.31635770E+00 0.11261582E+04</pdfrwt>
<totfact> 0.49739348E-02</totfact>
</mgrwt>
</event>
<event>
12    3  0.1176505E-007  0.1426193E+04  0.7818608E-02  0.8935074E-01
         -2   -1    0    0    0  501 -0.00000000000E+00  0.00000000000E+00  0.65724077666E+03  0.65724077666E+03  0.00000000000E+00 0.  1.
          1   -1    0    0  501    0  0.00000000000E+00 -0.00000000000E+00 -0.32591963639E+04  0.32591963639E+04  0.00000000000E+00 0. -1.
        -24    2    1    2    0    0 -0.11691649848E+04 -0.75890888170E+03 -0.10596193057E+04  0.17527681657E+04  0.80707604050E+02 0.  0.
    5000000    2    1    2    0    0  0.11691649848E+04  0.75890888170E+03 -0.15423362815E+04  0.21636689748E+04  0.59981061587E+03 0.  0.
        -24    2    4    4    0    0  0.11525097901E+04  0.78229366861E+03 -0.15412014929E+04  0.20788969495E+04  0.79046091522E+02 0.  0.
         24    2    4    4    0    0  0.16655194698E+02 -0.23384786904E+02 -0.11347886520E+01  0.84772025374E+02  0.79754402836E+02 0.  0.
         11    1    5    5    0    0  0.25548487809E+03  0.15363925424E+03 -0.28905932684E+03  0.41525033149E+03  0.00000000000E+00 0. -1.
        -12    1    5    5    0    0  0.89702491201E+03  0.62865441437E+03 -0.12521421660E+04  0.16636466180E+04  0.00000000000E+00 0.  1.
         15    1    3    3    0    0 -0.96971114139E+03 -0.63492693491E+03 -0.84243335404E+03  0.14328883502E+04  0.17770000000E+01 0. -1.
        -16    1    3    3    0    0 -0.19945384340E+03 -0.12398194680E+03 -0.21718595165E+03  0.31987981551E+03  0.00000000000E+00 0.  1.
          2    1    6    6  502    0  0.38163153903E+02 -0.20287431835E+02  0.25667613719E+02  0.50267609853E+02  0.00000000000E+00 0. -1.
         -1    1    6    6    0  502 -0.21507959205E+02 -0.30973550692E+01 -0.26802402371E+02  0.34504415521E+02  0.00000000000E+00 0.  1.
<mgrwt>
<rscale>  0 0.14261931E+04</rscale>
<asrwt>0</asrwt>
<pdfrwt beam="1">  1        1 0.50141482E+00 0.14261931E+04</pdfrwt>
<pdfrwt beam="2">  1       -2 0.10111397E+00 0.14261931E+04</pdfrwt>
<totfact> 0.26193988E-01</totfact>
</mgrwt>
</event>
<event>
12    3  0.1176505E-007  0.3023334E+03  0.7818608E-02  0.1084080E+00
          1   -1    0    0  501    0  0.00000000000E+00  0.00000000000E+00  0.12994184371E+03  0.12994184371E+03  0.00000000000E+00 0. -1.
         -2   -1    0    0    0  501 -0.00000000000E+00 -0.00000000000E+00 -0.16531575311E+04  0.16531575311E+04  0.00000000000E+00 0.  1.
        -24    2    1    2    0    0  0.18279805195E+03 -0.16620914712E+03 -0.29685533525E+03  0.39566811327E+03  0.85962534911E+02 0.  0.
    5000000    2    1    2    0    0 -0.18279805195E+03  0.16620914712E+03 -0.12263603521E+04  0.13874312615E+04  0.59997098581E+03 0.  0.
        -24    2    4    4    0    0 -0.13114665806E+03 -0.12277787165E+02 -0.68007466292E+01  0.15118660838E+03  0.73898243707E+02 0.  0.
         24    2    4    4    0    0 -0.51651393889E+02  0.17848693429E+03 -0.12195596055E+04  0.12362446531E+04  0.80310390803E+02 0.  0.
         13    1    5    5    0    0 -0.79650417512E+02  0.28913213661E+02  0.13107216894E+01  0.84745978815E+02  0.00000000000E+00 0. -1.
        -14    1    5    5    0    0 -0.51496240545E+02 -0.41191000825E+02 -0.81114683186E+01  0.66440629569E+02  0.00000000000E+00 0.  1.
         15    1    3    3    0    0  0.16247259945E+03 -0.16810813207E+03 -0.23909215140E+03  0.33440380415E+03  0.17770000000E+01 0. -1.
        -16    1    3    3    0    0  0.20325452495E+02  0.18989849493E+01 -0.57763183853E+02  0.61264309118E+02  0.00000000000E+00 0.  1.
          4    1    6    6  502    0 -0.41049306434E+00 -0.71682654571E+01 -0.98506059220E+02  0.98767384481E+02  0.00000000000E+00 0. -1.
         -3    1    6    6    0  502 -0.51240900825E+02  0.18565519974E+03 -0.11210535463E+04  0.11374772686E+04  0.00000000000E+00 0.  1.
<mgrwt>
<rscale>  0 0.30233336E+03</rscale>
<asrwt>0</asrwt>
<pdfrwt beam="1">  1        1 0.19991053E-01 0.30233336E+03</pdfrwt>
<pdfrwt beam="2">  1       -2 0.25433192E+00 0.30233336E+03</pdfrwt>
<totfact> 0.15125452E+01</totfact>
</mgrwt>
</event>
<event>
12    3  0.1176505E-007  0.1384566E+04  0.7818608E-02  0.8965067E-01
         -2   -1    0    0    0  501 -0.00000000000E+00  0.00000000000E+00  0.96366531232E+03  0.96366531232E+03  0.00000000000E+00 0.  1.
          1   -1    0    0  501    0  0.00000000000E+00 -0.00000000000E+00 -0.20209662169E+04  0.20209662169E+04  0.00000000000E+00 0. -1.
        -24    2    1    2    0    0 -0.12995261515E+04  0.27096627415E+03 -0.58783775000E+03  0.14539940245E+04  0.79714884765E+02 0.  0.
    5000000    2    1    2    0    0  0.12995261515E+04 -0.27096627415E+03 -0.46946315461E+03  0.15306375047E+04  0.60022044044E+03 0.  0.
        -24    2    4    4    0    0  0.77252592489E+03 -0.43091936488E+03 -0.19113830955E+03  0.90846580619E+03  0.79299836052E+02 0.  0.
         24    2    4    4    0    0  0.52700022662E+03  0.15995309073E+03 -0.27832484506E+03  0.62217169852E+03  0.79490080943E+02 0.  0.
         11    1    5    5    0    0  0.11101170322E+03 -0.53543109560E+02  0.43754268658E-01  0.12324960344E+03  0.00000000000E+00 0. -1.
        -12    1    5    5    0    0  0.66151422166E+03 -0.37737625532E+03 -0.19118206382E+03  0.78521620275E+03  0.00000000000E+00 0.  1.
         15    1    3    3    0    0 -0.81950322497E+03  0.15203402380E+03 -0.40570701775E+03  0.92698501720E+03  0.17770000000E+01 0. -1.
        -16    1    3    3    0    0 -0.48002292654E+03  0.11893225034E+03 -0.18213073225E+03  0.52700900733E+03  0.00000000000E+00 0.  1.
          4    1    6    6  502    0  0.36411748497E+03  0.14767661213E+03 -0.18941088742E+03  0.43619537928E+03  0.00000000000E+00 0. -1.
         -3    1    6    6    0  502  0.16288274165E+03  0.12276478595E+02 -0.88913957642E+02  0.18597631924E+03  0.00000000000E+00 0.  1.
<mgrwt>
<rscale>  0 0.13845656E+04</rscale>
<asrwt>0</asrwt>
<pdfrwt beam="1">  1        1 0.31091788E+00 0.13845656E+04</pdfrwt>
<pdfrwt beam="2">  1       -2 0.14825620E+00 0.13845656E+04</pdfrwt>
<totfact> 0.74888683E-01</totfact>
</mgrwt>
</event>
<event>
12    3  0.1176505E-007  0.3379532E+03  0.7818608E-02  0.1067671E+00
          1   -1    0    0  501    0  0.00000000000E+00  0.00000000000E+00  0.14896238992E+04  0.14896238992E+04  0.00000000000E+00 0. -1.
         -2   -1    0    0    0  501 -0.00000000000E+00 -0.00000000000E+00 -0.14634285626E+03  0.14634285626E+03  0.00000000000E+00 0.  1.
        -24    2    1    2    0    0  0.24899139073E+03 -0.43286549319E+02  0.54456814282E+03  0.60551678565E+03  0.78902962651E+02 0.  0.
    5000000    2    1    2    0    0 -0.24899139073E+03  0.43286549319E+02  0.79871290006E+03  0.10304499698E+04  0.60001200443E+03 0.  0.
        -24    2    4    4    0    0 -0.30594694162E+03 -0.29456384075E+02  0.11775926142E+03  0.33864244835E+03  0.79625715201E+02 0.  0.
         24    2    4    4    0    0  0.56955550894E+02  0.72742933394E+02  0.68095363864E+03  0.69180752142E+03  0.79776685676E+02 0.  0.
         11    1    5    5    0    0 -0.95221532331E+02  0.10073615852E+02  0.70993687245E+02  0.11920034222E+03  0.00000000000E+00 0. -1.
        -12    1    5    5    0    0 -0.21072540929E+03 -0.39529999927E+02  0.46765574176E+02  0.21944210613E+03  0.00000000000E+00 0.  1.
         15    1    3    3    0    0  0.11490878204E+03 -0.28203957754E+02  0.34402905958E+03  0.36381127386E+03  0.17770000000E+01 0. -1.
        -16    1    3    3    0    0  0.13408260869E+03 -0.15082591565E+02  0.20053908324E+03  0.24170551178E+03  0.00000000000E+00 0.  1.
          4    1    6    6  502    0  0.48594135677E+02  0.84848713055E+02  0.65239657727E+03  0.65968324836E+03  0.00000000000E+00 0. -1.
         -3    1    6    6    0  502  0.83614152170E+01 -0.12105779661E+02  0.28557061370E+02  0.32124273062E+02  0.00000000000E+00 0.  1.
<mgrwt>
<rscale>  0 0.33795325E+03</rscale>
<asrwt>0</asrwt>
<pdfrwt beam="1">  1        1 0.22917290E+00 0.33795325E+03</pdfrwt>
<pdfrwt beam="2">  1       -2 0.22514287E-01 0.33795325E+03</pdfrwt>
<totfact> 0.10869665E+02</totfact>
</mgrwt>
</event>
<event>
12    3  0.1176505E-007  0.5870364E+03  0.7818608E-02  0.9932672E-01
         -2   -1    0    0    0  501 -0.00000000000E+00  0.00000000000E+00  0.13811186314E+04  0.13811186314E+04  0.00000000000E+00 0.  1.
          1   -1    0    0  501    0  0.00000000000E+00 -0.00000000000E+00 -0.33011807300E+03  0.33011807300E+03  0.00000000000E+00 0. -1.
        -24    2    1    2    0    0 -0.25877657328E+03  0.35141955008E+03  0.25647989000E+02  0.44562856441E+03  0.86405920079E+02 0.  0.
    5000000    2    1    2    0    0  0.25877657328E+03 -0.35141955008E+03  0.10253525694E+04  0.12656081400E+04  0.59996254666E+03 0.  0.
        -24    2    4    4    0    0  0.28483297349E+03 -0.49330908700E+03  0.83212665806E+03  0.10116517186E+04  0.80751139649E+02 0.  0.
         24    2    4    4    0    0 -0.26056400207E+02  0.14188953693E+03  0.19322591139E+03  0.25395642145E+03  0.79662001505E+02 0.  0.
         13    1    5    5    0    0  0.20279622255E+03 -0.28763717730E+03  0.46948398041E+03  0.58675093652E+03  0.00000000000E+00 0. -1.
        -14    1    5    5    0    0  0.82036750936E+02 -0.20567190970E+03  0.36264267765E+03  0.42490078206E+03  0.00000000000E+00 0.  1.
         15    1    3    3    0    0 -0.13364695939E+03  0.11353923854E+03  0.22637550417E+02  0.17682840513E+03  0.17770000000E+01 0. -1.
        -16    1    3    3    0    0 -0.12512961389E+03  0.23788031154E+03  0.30104385832E+01  0.26880015928E+03  0.00000000000E+00 0.  1.
          2    1    6    6  502    0  0.10760130198E+02  0.10081543251E+03  0.84282121255E+02  0.13184463507E+03  0.00000000000E+00 0. -1.
         -1    1    6    6    0  502 -0.36816530405E+02  0.41074104420E+02  0.10894379013E+03  0.12211178638E+03  0.00000000000E+00 0.  1.
<mgrwt>
<rscale>  0 0.58703643E+03</rscale>
<asrwt>0</asrwt>
<pdfrwt beam="1">  1        1 0.50787397E-01 0.58703643E+03</pdfrwt>
<pdfrwt beam="2">  1       -2 0.21247979E+00 0.58703643E+03</pdfrwt>
<totfact> 0.77983160E+00</totfact>
</mgrwt>
</event>
<event>
12    3  0.1289177E-007  0.5735188E+03  0.7818608E-02  0.9961922E-01
          1   -1    0    0  501    0  0.00000000000E+00  0.00000000000E+00  0.14528608103E+04  0.14528608103E+04  0.00000000000E+00 0. -1.
         -2   -1    0    0    0  501 -0.00000000000E+00 -0.00000000000E+00 -0.35564671714E+03  0.35564671714E+03  0.00000000000E+00 0.  1.
        -24    2    1    2    0    0  0.31883550337E+03 -0.46671580609E+03  0.66977680446E+03  0.88001046382E+03  0.79609841045E+02 0.  0.
    5000000    2    1    2    0    0 -0.31883550337E+03  0.46671580609E+03  0.42743728874E+03  0.92849706366E+03  0.59993702967E+03 0.  0.
        -24    2    4    4    0    0 -0.15967616115E+03  0.19487190463E+03  0.52519900452E+03  0.58864456579E+03  0.84834514350E+02 0.  0.
         24    2    4    4    0    0 -0.15915934222E+03  0.27184390146E+03 -0.97761715778E+02  0.33985249788E+03  0.81924137270E+02 0.  0.
         13    1    5    5    0    0 -0.92959227079E+02  0.10086844212E+03  0.37506601468E+03  0.39936246179E+03  0.00000000000E+00 0. -1.
        -14    1    5    5    0    0 -0.66716934069E+02  0.94003462515E+02  0.15013298984E+03  0.18928210400E+03  0.00000000000E+00 0.  1.
         15    1    3    3    0    0  0.23672315535E+03 -0.27996808316E+03  0.42017521216E+03  0.55764715234E+03  0.17770000000E+01 0. -1.
        -16    1    3    3    0    0  0.82112348019E+02 -0.18674772292E+03  0.24960159230E+03  0.32236331149E+03  0.00000000000E+00 0.  1.
          2    1    6    6  502    0 -0.71269695128E+02  0.19352644601E+03 -0.77970117535E+02  0.22047946384E+03  0.00000000000E+00 0. -1.
         -1    1    6    6    0  502 -0.87889647093E+02  0.78317455451E+02 -0.19791598243E+02  0.11937303404E+03  0.00000000000E+00 0.  1.
<mgrwt>
<rscale>  0 0.57351875E+03</rscale>
<asrwt>0</asrwt>
<pdfrwt beam="1">  1        1 0.22351705E+00 0.57351875E+03</pdfrwt>
<pdfrwt beam="2">  1       -2 0.54714880E-01 0.57351875E+03</pdfrwt>
<totfact> 0.20526607E+01</totfact>
</mgrwt>
</event>
<event>
12    3  0.1176505E-007  0.8113216E+03  0.7818608E-02  0.9543773E-01
          1   -1    0    0  501    0  0.00000000000E+00  0.00000000000E+00  0.18241838202E+04  0.18241838202E+04  0.00000000000E+00 0. -1.
         -2   -1    0    0    0  501 -0.00000000000E+00 -0.00000000000E+00 -0.46027297970E+03  0.46027297970E+03  0.00000000000E+00 0.  1.
        -24    2    1    2    0    0  0.78352203861E+03 -0.11390849635E+02  0.89360698823E+03  0.11910539152E+04  0.77713854330E+02 0.  0.
    5000000    2    1    2    0    0 -0.78352203861E+03  0.11390849635E+02  0.47030385226E+03  0.10934028847E+04  0.60025629384E+03 0.  0.
        -24    2    4    4    0    0 -0.64705196689E+03 -0.81839441993E+02  0.80150628989E+02  0.66227875041E+03  0.82553484447E+02 0.  0.
         24    2    4    4    0    0 -0.13647007171E+03  0.93230291628E+02  0.39015322327E+03  0.43112413424E+03  0.79577093110E+02 0.  0.
         11    1    5    5    0    0 -0.53056490924E+02  0.13971238340E+02 -0.26825312542E+01  0.54930708205E+02  0.00000000000E+00 0. -1.
        -12    1    5    5    0    0 -0.59399547597E+03 -0.95810680333E+02  0.82833160244E+02  0.60734804221E+03  0.00000000000E+00 0.  1.
         15    1    3    3    0    0  0.22695415039E+03  0.15970455193E+02  0.30499391928E+03  0.38050977693E+03  0.17770000000E+01 0. -1.
        -16    1    3    3    0    0  0.55656788822E+03 -0.27361304829E+02  0.58861306895E+03  0.81054413830E+03  0.00000000000E+00 0.  1.
          2    1    6    6  502    0 -0.20108284729E+02  0.55478324621E+02  0.15897444926E+03  0.16957317929E+03  0.00000000000E+00 0. -1.
         -1    1    6    6    0  502 -0.11636178698E+03  0.37751967007E+02  0.23117877401E+03  0.26155095495E+03  0.00000000000E+00 0.  1.
<mgrwt>
<rscale>  0 0.81132157E+03</rscale>
<asrwt>0</asrwt>
<pdfrwt beam="1">  1        1 0.28064366E+00 0.81132157E+03</pdfrwt>
<pdfrwt beam="2">  1       -2 0.70811229E-01 0.81132157E+03</pdfrwt>
<totfact> 0.64288571E+00</totfact>
</mgrwt>
</event>
<event>
12    3  0.1176505E-007  0.4933242E+03  0.7818608E-02  0.1015536E+00
          1   -1    0    0  501    0  0.00000000000E+00  0.00000000000E+00  0.77339227510E+03  0.77339227510E+03  0.00000000000E+00 0. -1.
         -2   -1    0    0    0  501 -0.00000000000E+00 -0.00000000000E+00 -0.48107550512E+03  0.48107550512E+03  0.00000000000E+00 0.  1.
        -24    2    1    2    0    0 -0.15522998391E+03 -0.26511206111E+03  0.46092733744E+03  0.55961054658E+03  0.79556273097E+02 0.  0.
    5000000    2    1    2    0    0  0.15522998391E+03  0.26511206111E+03 -0.16861056747E+03  0.69485723364E+03  0.60001358220E+03 0.  0.
        -24    2    4    4    0    0  0.60769898460E+02  0.44257975706E+03 -0.14024573470E+03  0.47504296527E+03  0.80169388372E+02 0.  0.
         24    2    4    4    0    0  0.94460085448E+02 -0.17746769595E+03 -0.28364832772E+02  0.21981426837E+03  0.84239290087E+02 0.  0.
         13    1    5    5    0    0 -0.79224779907E+01  0.22023278091E+03 -0.54328097118E+02  0.22697309440E+03  0.00000000000E+00 0. -1.
        -14    1    5    5    0    0  0.68692376451E+02  0.22234697615E+03 -0.85917637579E+02  0.24806987086E+03  0.00000000000E+00 0.  1.
         15    1    3    3    0    0 -0.80199667479E+02 -0.20527604946E+03  0.34082143084E+03  0.40587269999E+03  0.17770000000E+01 0. -1.
        -16    1    3    3    0    0 -0.75030316429E+02 -0.59836011651E+02  0.12010590660E+03  0.15373784659E+03  0.00000000000E+00 0.  1.
          2    1    6    6  502    0  0.41408627167E+02 -0.11531135485E+02 -0.13099517470E+02  0.44935941599E+02  0.00000000000E+00 0. -1.
         -1    1    6    6    0  502  0.53051458281E+02 -0.16593656046E+03 -0.15265315302E+02  0.17487832677E+03  0.00000000000E+00 0.  1.
<mgrwt>
<rscale>  0 0.49332418E+03</rscale>
<asrwt>0</asrwt>
<pdfrwt beam="1">  1        1 0.11898343E+00 0.49332418E+03</pdfrwt>
<pdfrwt beam="2">  1       -2 0.74011616E-01 0.49332418E+03</pdfrwt>
<totfact> 0.35240047E+01</totfact>
</mgrwt>
</event>
<event>
12    3  0.1176505E-007  0.1653796E+04  0.7818608E-02  0.8788164E-01
         -2   -1    0    0    0  501 -0.00000000000E+00  0.00000000000E+00  0.44652813443E+04  0.44652813443E+04  0.00000000000E+00 0.  1.
          1   -1    0    0  501    0  0.00000000000E+00 -0.00000000000E+00 -0.83252789895E+03  0.83252789895E+03  0.00000000000E+00 0. -1.
        -24    2    1    2    0    0  0.88367180885E+03 -0.13851707305E+04  0.30301467617E+04  0.34479127878E+04  0.82093706551E+02 0.  0.
    5000000    2    1    2    0    0 -0.88367180885E+03  0.13851707305E+04  0.60260668366E+03  0.18498964554E+04  0.59950668225E+03 0.  0.
        -24    2    4    4    0    0 -0.27906917523E+03  0.67740981109E+03 -0.19343868263E+01  0.73712222893E+03  0.81128181288E+02 0.  0.
         24    2    4    4    0    0 -0.60460263362E+03  0.70776091944E+03  0.60454107048E+03  0.11127742265E+04  0.79540615731E+02 0.  0.
         13    1    5    5    0    0 -0.77614523744E+02  0.17182068564E+03 -0.35463813517E+02  0.19184380203E+03  0.00000000000E+00 0. -1.
        -14    1    5    5    0    0 -0.20145465148E+03  0.50558912545E+03  0.33529426691E+02  0.54527842689E+03  0.00000000000E+00 0.  1.
         15    1    3    3    0    0  0.27297271418E+03 -0.47456598644E+03  0.10715017880E+04  0.12032648161E+04  0.17770000000E+01 0. -1.
        -16    1    3    3    0    0  0.61069909466E+03 -0.91060474409E+03  0.19586449737E+04  0.22446479718E+04  0.00000000000E+00 0.  1.
          2    1    6    6  502    0 -0.20186415475E+03  0.24403966942E+03  0.25086681243E+03  0.40402803715E+03  0.00000000000E+00 0. -1.
         -1    1    6    6    0  502 -0.40273847887E+03  0.46372125002E+03  0.35367425805E+03  0.70874618933E+03  0.00000000000E+00 0.  1.
<mgrwt>
<rscale>  0 0.16537961E+04</rscale>
<asrwt>0</asrwt>
<pdfrwt beam="1">  1        1 0.12808122E+00 0.16537961E+04</pdfrwt>
<pdfrwt beam="2">  1       -2 0.68696635E+00 0.16537961E+04</pdfrwt>
<totfact> 0.42108458E-03</totfact>
</mgrwt>
</event>
<event>
12    3  0.1176505E-007  0.8765869E+03  0.7818608E-02  0.9455332E-01
          1   -1    0    0  501    0  0.00000000000E+00  0.00000000000E+00  0.26539257194E+04  0.26539257194E+04  0.00000000000E+00 0. -1.
         -2   -1    0    0    0  501 -0.00000000000E+00 -0.00000000000E+00 -0.76395981664E+03  0.76395981664E+03  0.00000000000E+00 0.  1.
        -24    2    1    2    0    0  0.69092475862E+03 -0.38549355468E+03 -0.42196958822E+03  0.90170595205E+03  0.95042031817E+02 0.  0.
    5000000    2    1    2    0    0 -0.69092475862E+03  0.38549355468E+03  0.23119354909E+04  0.25161795839E+04  0.60010972472E+03 0.  0.
        -24    2    4    4    0    0 -0.18495319539E+03 -0.12870020595E+03  0.34418982827E+03  0.41885138420E+03  0.78730023893E+02 0.  0.
         24    2    4    4    0    0 -0.50597156323E+03  0.51419376062E+03  0.19677456627E+04  0.20973281998E+04  0.79750475344E+02 0.  0.
         13    1    5    5    0    0 -0.45807739539E+02 -0.72921093547E+02  0.96571079638E+02  0.12939013992E+03  0.00000000000E+00 0. -1.
        -14    1    5    5    0    0 -0.13914545585E+03 -0.55779112399E+02  0.24761874863E+03  0.28946124428E+03  0.00000000000E+00 0.  1.
         15    1    3    3    0    0  0.42087870571E+03 -0.18965024557E+03 -0.27348343084E+03  0.53656541562E+03  0.17770000000E+01 0. -1.
        -16    1    3    3    0    0  0.27004605291E+03 -0.19584330910E+03 -0.14848615738E+03  0.36514053644E+03  0.00000000000E+00 0.  1.
          4    1    6    6  502    0 -0.18111370140E+03  0.20328992906E+03  0.63996875838E+03  0.69547751926E+03  0.00000000000E+00 0. -1.
         -3    1    6    6    0  502 -0.32485786184E+03  0.31090383156E+03  0.13277769043E+04  0.14018506805E+04  0.00000000000E+00 0.  1.
<mgrwt>
<rscale>  0 0.87658692E+03</rscale>
<asrwt>0</asrwt>
<pdfrwt beam="1">  1        1 0.40829626E+00 0.87658692E+03</pdfrwt>
<pdfrwt beam="2">  1       -2 0.11753228E+00 0.87658692E+03</pdfrwt>
<totfact> 0.53772989E-01</totfact>
</mgrwt>
</event>
<event>
12    3  0.1176505E-007  0.8176154E+03  0.7818608E-02  0.9534864E-01
         -2   -1    0    0    0  501 -0.00000000000E+00  0.00000000000E+00  0.76974809127E+03  0.76974809127E+03  0.00000000000E+00 0.  1.
          1   -1    0    0  501    0  0.00000000000E+00 -0.00000000000E+00 -0.12769538420E+04  0.12769538420E+04  0.00000000000E+00 0. -1.
        -24    2    1    2    0    0  0.32892716281E+03 -0.69226565837E+03  0.25365367799E+03  0.81122690963E+03  0.79524149524E+02 0.  0.
    5000000    2    1    2    0    0 -0.32892716281E+03  0.69226565837E+03 -0.76085942874E+03  0.12354750237E+04  0.60005553377E+03 0.  0.
        -24    2    4    4    0    0 -0.14504716620E+03  0.54923461176E+01 -0.40327726291E+03  0.43566312980E+03  0.78108678151E+02 0.  0.
         24    2    4    4    0    0 -0.18387999661E+03  0.68677331225E+03 -0.35758216583E+03  0.79981189386E+03  0.79778597856E+02 0.  0.
         11    1    5    5    0    0 -0.15260946304E+02  0.16083503373E+02 -0.14214845540E+03  0.14386715725E+03  0.00000000000E+00 0. -1.
        -12    1    5    5    0    0 -0.12978621990E+03 -0.10591157256E+02 -0.26112880751E+03  0.29179597255E+03  0.00000000000E+00 0.  1.
         15    1    3    3    0    0  0.24149054928E+02 -0.22296267828E+02  0.65324354789E+00  0.32922406794E+02  0.17770000000E+01 0. -1.
        -16    1    3    3    0    0  0.30477810788E+03 -0.66996939054E+03  0.25300043444E+03  0.77830450283E+03  0.00000000000E+00 0.  1.
          2    1    6    6  502    0 -0.24966107311E+02  0.20660730533E+03 -0.12837624071E+03  0.24452064189E+03  0.00000000000E+00 0. -1.
         -1    1    6    6    0  502 -0.15891388930E+03  0.48016600691E+03 -0.22920592513E+03  0.55529125198E+03  0.00000000000E+00 0.  1.
<mgrwt>
<rscale>  0 0.81761537E+03</rscale>
<asrwt>0</asrwt>
<pdfrwt beam="1">  1        1 0.19645444E+00 0.81761537E+03</pdfrwt>
<pdfrwt beam="2">  1       -2 0.11842278E+00 0.81761537E+03</pdfrwt>
<totfact> 0.46119922E+00</totfact>
</mgrwt>
</event>
<event>
12    3  0.1176505E-007  0.1386130E+04  0.7818608E-02  0.8963920E-01
         -2   -1    0    0    0  501 -0.00000000000E+00  0.00000000000E+00  0.10909487975E+04  0.10909487975E+04  0.00000000000E+00 0.  1.
          1   -1    0    0  501    0  0.00000000000E+00 -0.00000000000E+00 -0.31750369227E+04  0.31750369227E+04  0.00000000000E+00 0. -1.
        -24    2    1    2    0    0 -0.62815178085E+03 -0.11951059024E+04 -0.24000047307E+04  0.27549058550E+04  0.81429633651E+02 0.  0.
    5000000    2    1    2    0    0  0.62815178085E+03  0.11951059024E+04  0.31591660545E+03  0.15110798651E+04  0.60058827785E+03 0.  0.
        -24    2    4    4    0    0  0.67914753490E+03  0.96278184282E+03  0.10531023991E+03  0.11851914486E+04  0.73472935301E+02 0.  0.
         24    2    4    4    0    0 -0.50995754056E+02  0.23232405953E+03  0.21060636554E+03  0.32588841648E+03  0.72616686917E+02 0.  0.
         11    1    5    5    0    0  0.12197945523E+03  0.22541137222E+03  0.23547749634E+02  0.25737865245E+03  0.00000000000E+00 0. -1.
        -12    1    5    5    0    0  0.55716807967E+03  0.73737047060E+03  0.81762490272E+02  0.92781279616E+03  0.00000000000E+00 0.  1.
         15    1    3    3    0    0 -0.21293941333E+03 -0.40773010566E+03 -0.74053229616E+03  0.87176732687E+03  0.17770000000E+01 0. -1.
        -16    1    3    3    0    0 -0.41521236751E+03 -0.78737579669E+03 -0.16594724345E+04  0.18831385282E+04  0.00000000000E+00 0.  1.
          4    1    6    6  502    0  0.63991735255E+01  0.90266937226E+01 -0.31326152326E+01  0.11499734761E+02  0.00000000000E+00 0. -1.
         -3    1    6    6    0  502 -0.57394927581E+02  0.22329736581E+03  0.21373898078E+03  0.31438868172E+03  0.00000000000E+00 0.  1.
<mgrwt>
<rscale>  0 0.13861296E+04</rscale>
<asrwt>0</asrwt>
<pdfrwt beam="1">  1        1 0.48846721E+00 0.13861296E+04</pdfrwt>
<pdfrwt beam="2">  1       -2 0.16783828E+00 0.13861296E+04</pdfrwt>
<totfact> 0.82716802E-02</totfact>
</mgrwt>
</event>
<event>
12    3  0.1176505E-007  0.5352693E+03  0.7818608E-02  0.1004962E+00
          1   -1    0    0  501    0  0.00000000000E+00  0.00000000000E+00  0.81300319946E+03  0.81300319946E+03  0.00000000000E+00 0. -1.
         -2   -1    0    0    0  501 -0.00000000000E+00 -0.00000000000E+00 -0.37866349359E+03  0.37866349359E+03  0.00000000000E+00 0.  1.
        -24    2    1    2    0    0  0.26517645058E+03 -0.28190759964E+03  0.13611686973E+03  0.41789587278E+03  0.79490336439E+02 0.  0.
    5000000    2    1    2    0    0 -0.26517645058E+03  0.28190759964E+03  0.29822283614E+03  0.77377082027E+03  0.59999498134E+03 0.  0.
        -24    2    4    4    0    0 -0.17172212090E+03  0.45333825120E+03  0.26254921361E+03  0.55713404109E+03  0.80387768720E+02 0.  0.
         24    2    4    4    0    0 -0.93454329685E+02 -0.17143065157E+03  0.35673622532E+02  0.21663677919E+03  0.86814208048E+02 0.  0.
         11    1    5    5    0    0 -0.81874173712E+02  0.14766133666E+03  0.58041501166E+02  0.17853869755E+03  0.00000000000E+00 0. -1.
        -12    1    5    5    0    0 -0.89847947187E+02  0.30567691454E+03  0.20450771244E+03  0.37859534354E+03  0.00000000000E+00 0.  1.
         15    1    3    3    0    0  0.20719681654E+03 -0.21186270977E+03  0.67371384582E+02  0.30390523155E+03  0.17770000000E+01 0. -1.
        -16    1    3    3    0    0  0.57979634046E+02 -0.70044889870E+02  0.68745485146E+02  0.11399064123E+03  0.00000000000E+00 0.  1.
          2    1    6    6  502    0 -0.59256046337E+02 -0.93244662808E+02 -0.23292053187E+02  0.11290866181E+03  0.00000000000E+00 0. -1.
         -3    1    6    6    0  502 -0.34198283348E+02 -0.78185988758E+02  0.58965675720E+02  0.10372811738E+03  0.00000000000E+00 0.  1.
<mgrwt>
<rscale>  0 0.53526929E+03</rscale>
<asrwt>0</asrwt>
<pdfrwt beam="1">  1        1 0.12507741E+00 0.53526929E+03</pdfrwt>
<pdfrwt beam="2">  1       -2 0.58255922E-01 0.53526929E+03</pdfrwt>
<totfact> 0.54120052E+01</totfact>
</mgrwt>
</event>
<event>
12    3  0.1176505E-007  0.5246329E+03  0.7818608E-02  0.1007542E+00
         -2   -1    0    0    0  501 -0.00000000000E+00  0.00000000000E+00  0.36153598169E+03  0.36153598169E+03  0.00000000000E+00 0.  1.
          1   -1    0    0  501    0  0.00000000000E+00 -0.00000000000E+00 -0.10722685279E+04  0.10722685279E+04  0.00000000000E+00 0. -1.
        -24    2    1    2    0    0  0.37073424767E+03  0.27372902707E+03 -0.14517829507E+03  0.48924879994E+03  0.76916761692E+02 0.  0.
    5000000    2    1    2    0    0 -0.37073424767E+03 -0.27372902707E+03 -0.56555425112E+03  0.94455570963E+03  0.59996867833E+03 0.  0.
        -24    2    4    4    0    0 -0.33640052824E+03 -0.33978927304E+03 -0.13919584841E+03  0.50442376723E+03  0.80285660329E+02 0.  0.
         24    2    4    4    0    0 -0.34333719425E+02  0.66060245971E+02 -0.42635840271E+03  0.44013194240E+03  0.79949226235E+02 0.  0.
         11    1    5    5    0    0 -0.16753867103E+03 -0.11860235704E+03 -0.77331165870E+02  0.21935321881E+03  0.00000000000E+00 0. -1.
        -12    1    5    5    0    0 -0.16886185721E+03 -0.22118691600E+03 -0.61864682541E+02  0.28507054842E+03  0.00000000000E+00 0.  1.
         15    1    3    3    0    0  0.25723679699E+03  0.18187700009E+03 -0.61596749413E+02  0.32100985990E+03  0.17770000000E+01 0. -1.
        -16    1    3    3    0    0  0.11349745068E+03  0.91852026979E+02 -0.83581545656E+02  0.16823894004E+03  0.00000000000E+00 0.  1.
          4    1    6    6  502    0 -0.12649440761E+02 -0.15652573680E+02 -0.41825226888E+02  0.46415094728E+02  0.00000000000E+00 0. -1.
         -3    1    6    6    0  502 -0.21684278664E+02  0.81712819650E+02 -0.38453317582E+03  0.39371684767E+03  0.00000000000E+00 0.  1.
<mgrwt>
<rscale>  0 0.52463291E+03</rscale>
<asrwt>0</asrwt>
<pdfrwt beam="1">  1        1 0.16496439E+00 0.52463291E+03</pdfrwt>
<pdfrwt beam="2">  1       -2 0.55620920E-01 0.52463291E+03</pdfrwt>
<totfact> 0.37206324E+01</totfact>
</mgrwt>
</event>
<event>
12    3  0.1176505E-007  0.4841228E+03  0.7818608E-02  0.1018008E+00
         -2   -1    0    0    0  501 -0.00000000000E+00  0.00000000000E+00  0.24327526414E+03  0.24327526414E+03  0.00000000000E+00 0.  1.
          1   -1    0    0  501    0  0.00000000000E+00 -0.00000000000E+00 -0.15826466772E+04  0.15826466772E+04  0.00000000000E+00 0. -1.
        -24    2    1    2    0    0 -0.19091440546E+03 -0.33677923759E+03 -0.91161573072E+03  0.99353682687E+03  0.78763067274E+02 0.  0.
    5000000    2    1    2    0    0  0.19091440546E+03  0.33677923759E+03 -0.42775568236E+03  0.83238511449E+03  0.60001790802E+03 0.  0.
        -24    2    4    4    0    0  0.23094854368E+03  0.75389058379E+01 -0.42543863178E+03  0.49072755780E+03  0.80133898232E+02 0.  0.
         24    2    4    4    0    0 -0.40034138220E+02  0.32924033175E+03 -0.23170505864E+01  0.34165755669E+03  0.81991396188E+02 0.  0.
         11    1    5    5    0    0  0.14773195785E+03  0.38510348087E+02 -0.30522064838E+03  0.34127323727E+03  0.00000000000E+00 0. -1.
        -12    1    5    5    0    0  0.83216585833E+02 -0.30971442249E+02 -0.12021798339E+03  0.14945432053E+03  0.00000000000E+00 0.  1.
         15    1    3    3    0    0  0.36990248845E+01 -0.39166685618E+02 -0.84910832933E+02  0.93598714338E+02  0.17770000000E+01 0. -1.
        -16    1    3    3    0    0 -0.19461343034E+03 -0.29761255197E+03 -0.82670489779E+03  0.89993811253E+03  0.00000000000E+00 0.  1.
          2    1    6    6  502    0 -0.11115580017E+02  0.13077237137E+03  0.38930817440E+02  0.13689622997E+03  0.00000000000E+00 0. -1.
         -1    1    6    6    0  502 -0.28918558203E+02  0.19846796037E+03 -0.41247868027E+02  0.20476132672E+03  0.00000000000E+00 0.  1.
<mgrwt>
<rscale>  0 0.48412277E+03</rscale>
<asrwt>0</asrwt>
<pdfrwt beam="1">  1        1 0.24348410E+00 0.48412277E+03</pdfrwt>
<pdfrwt beam="2">  1       -2 0.37426964E-01 0.48412277E+03</pdfrwt>
<totfact> 0.36187249E+01</totfact>
</mgrwt>
</event>
<event>
12    3  0.1176505E-007  0.7446578E+03  0.7818608E-02  0.9643769E-01
          1   -1    0    0  501    0  0.00000000000E+00  0.00000000000E+00  0.97583206464E+03  0.97583206464E+03  0.00000000000E+00 0. -1.
         -2   -1    0    0    0  501 -0.00000000000E+00 -0.00000000000E+00 -0.63482134041E+03  0.63482134041E+03  0.00000000000E+00 0.  1.
        -24    2    1    2    0    0  0.10093103938E+03  0.63946708785E+03  0.32338642101E+03  0.72812277396E+03  0.80490779042E+02 0.  0.
    5000000    2    1    2    0    0 -0.10093103938E+03 -0.63946708785E+03  0.17624303223E+02  0.88253063108E+03  0.59953687758E+03 0.  0.
        -24    2    4    4    0    0 -0.19947454622E+03 -0.69698801283E+03  0.74337798923E+02  0.73304083778E+03  0.78996056199E+02 0.  0.
         24    2    4    4    0    0  0.98543506837E+02  0.57520924976E+02 -0.56713495700E+02  0.14948979330E+03  0.78174792336E+02 0.  0.
         11    1    5    5    0    0 -0.14256194623E+03 -0.52644290265E+03  0.89143978572E+02  0.55264155398E+03  0.00000000000E+00 0. -1.
        -12    1    5    5    0    0 -0.56912599994E+02 -0.17054511017E+03 -0.14806179649E+02  0.18039928381E+03  0.00000000000E+00 0.  1.
         15    1    3    3    0    0  0.75319903943E+02  0.50880117039E+03  0.21944957129E+03  0.55920746685E+03  0.17770000000E+01 0. -1.
        -16    1    3    3    0    0  0.25611135440E+02  0.13066591746E+03  0.10393684972E+03  0.16891530710E+03  0.00000000000E+00 0.  1.
          2    1    6    6  502    0  0.96677476935E+02  0.49944050893E+02 -0.18364412710E+02  0.11035485680E+03  0.00000000000E+00 0. -1.
         -3    1    6    6    0  502  0.18660299019E+01  0.75768740824E+01 -0.38349082989E+02  0.39134936496E+02  0.00000000000E+00 0.  1.
<mgrwt>
<rscale>  0 0.74465785E+03</rscale>
<asrwt>0</asrwt>
<pdfrwt beam="1">  1        1 0.15012801E+00 0.74465785E+03</pdfrwt>
<pdfrwt beam="2">  1       -2 0.97664821E-01 0.74465785E+03</pdfrwt>
<totfact> 0.12397179E+01</totfact>
</mgrwt>
</event>
<event>
12    3  0.1176505E-007  0.8322580E+03  0.7818608E-02  0.9514464E-01
          1   -1    0    0  501    0  0.00000000000E+00  0.00000000000E+00  0.76565782151E+03  0.76565782151E+03  0.00000000000E+00 0. -1.
         -2   -1    0    0    0  501 -0.00000000000E+00 -0.00000000000E+00 -0.10577857683E+04  0.10577857683E+04  0.00000000000E+00 0.  1.
        -24    2    1    2    0    0  0.39391062866E+03 -0.69256281792E+03 -0.85773104431E+02  0.80522326464E+03  0.78858356115E+02 0.  0.
    5000000    2    1    2    0    0 -0.39391062866E+03  0.69256281792E+03 -0.20635484234E+03  0.10182203252E+04  0.59948433630E+03 0.  0.
        -24    2    4    4    0    0 -0.15937059527E+03  0.56791753179E+03  0.10494756815E+03  0.60440195749E+03  0.79739730392E+02 0.  0.
         24    2    4    4    0    0 -0.23454003339E+03  0.12464528613E+03 -0.31130241049E+03  0.41381836767E+03  0.61570902417E+02 0.  0.
         13    1    5    5    0    0 -0.11250021885E+03  0.25384004782E+03  0.47005524680E+02  0.28160360166E+03  0.00000000000E+00 0. -1.
        -14    1    5    5    0    0 -0.46870376421E+02  0.31407748397E+03  0.57942043473E+02  0.32279835583E+03  0.00000000000E+00 0.  1.
         15    1    3    3    0    0  0.14265804285E+03 -0.32796903995E+03 -0.47337029457E+02  0.36077549868E+03  0.17770000000E+01 0. -1.
        -16    1    3    3    0    0  0.25125258580E+03 -0.36459377797E+03 -0.38436074973E+02  0.44444776596E+03  0.00000000000E+00 0.  1.
          2    1    6    6  502    0 -0.17784762095E+03  0.11382232899E+03 -0.21365615954E+03  0.30039016855E+03  0.00000000000E+00 0. -1.
         -1    1    6    6    0  502 -0.56692412443E+02  0.10822957142E+02 -0.97646250952E+02  0.11342819912E+03  0.00000000000E+00 0.  1.
<mgrwt>
<rscale>  0 0.83225800E+03</rscale>
<asrwt>0</asrwt>
<pdfrwt beam="1">  1        1 0.11779351E+00 0.83225800E+03</pdfrwt>
<pdfrwt beam="2">  1       -2 0.16273627E+00 0.83225800E+03</pdfrwt>
<totfact> 0.50637364E+00</totfact>
</mgrwt>
</event>
<event>
12    3  0.1176505E-007  0.2355050E+04  0.7818608E-02  0.8456526E-01
         -2   -1    0    0    0  501 -0.00000000000E+00  0.00000000000E+00  0.29391378196E+04  0.29391378196E+04  0.00000000000E+00 0.  1.
          1   -1    0    0  501    0  0.00000000000E+00 -0.00000000000E+00 -0.25229552361E+04  0.25229552361E+04  0.00000000000E+00 0. -1.
        -24    2    1    2    0    0 -0.27764862207E+03 -0.23354154908E+04  0.15140123450E+04  0.27981799842E+04  0.79520884682E+02 0.  0.
    5000000    2    1    2    0    0  0.27764862207E+03  0.23354154908E+04 -0.10978297614E+04  0.26639130716E+04  0.59995699502E+03 0.  0.
        -24    2    4    4    0    0  0.43166743573E+01  0.12620501632E+03 -0.22676656747E+03  0.27216555709E+03  0.81882076926E+02 0.  0.
         24    2    4    4    0    0  0.27333194771E+03  0.22092104745E+04 -0.87106319397E+03  0.23917475145E+04  0.79898754959E+02 0.  0.
         13    1    5    5    0    0 -0.75590613530E+01  0.10777591386E+03 -0.11312726040E+03  0.15643070051E+03  0.00000000000E+00 0. -1.
        -14    1    5    5    0    0  0.11875735710E+02  0.18429102460E+02 -0.11363930706E+03  0.11573485657E+03  0.00000000000E+00 0.  1.
         15    1    3    3    0    0 -0.55910897630E+02 -0.77389485448E+03  0.48674832565E+03  0.91595107103E+03  0.17770000000E+01 0. -1.
        -16    1    3    3    0    0 -0.22173772444E+03 -0.15615206363E+04  0.10272640193E+04  0.18822289131E+04  0.00000000000E+00 0.  1.
          4    1    6    6  502    0  0.12860486861E+03  0.13043134077E+04 -0.53632593929E+03  0.14161278865E+04  0.00000000000E+00 0. -1.
         -3    1    6    6    0  502  0.14472707910E+03  0.90489706680E+03 -0.33473725467E+03  0.97561962803E+03  0.00000000000E+00 0.  1.
<mgrwt>
<rscale>  0 0.23550501E+04</rscale>
<asrwt>0</asrwt>
<pdfrwt beam="1">  1        1 0.38814696E+00 0.23550501E+04</pdfrwt>
<pdfrwt beam="2">  1       -2 0.45217505E+00 0.23550501E+04</pdfrwt>
<totfact> 0.32500051E-03</totfact>
</mgrwt>
</event>
<event>
12    3  0.1176505E-007  0.1112703E+04  0.7818608E-02  0.9192899E-01
          1   -1    0    0  501    0  0.00000000000E+00  0.00000000000E+00  0.26528520135E+04  0.26528520135E+04  0.00000000000E+00 0. -1.
         -2   -1    0    0    0  501 -0.00000000000E+00 -0.00000000000E+00 -0.12019505170E+04  0.12019505170E+04  0.00000000000E+00 0.  1.
        -24    2    1    2    0    0 -0.11769590974E+02  0.10438286729E+04  0.22001974369E+04  0.24366152127E+04  0.80672868707E+02 0.  0.
    5000000    2    1    2    0    0  0.11769590974E+02 -0.10438286729E+04 -0.74929594041E+03  0.14181873178E+04  0.60007836191E+03 0.  0.
        -24    2    4    4    0    0  0.16090351514E+03 -0.60156624965E+02 -0.39141339801E+02  0.19324286982E+03  0.79385146874E+02 0.  0.
         24    2    4    4    0    0 -0.14913392416E+03 -0.98367204792E+03 -0.71015460061E+03  0.12249444480E+04  0.79484078106E+02 0.  0.
         11    1    5    5    0    0  0.50243246864E+02  0.98499435858E+01  0.12131719701E+02  0.52617334282E+02  0.00000000000E+00 0. -1.
        -12    1    5    5    0    0  0.11066026827E+03 -0.70006568551E+02 -0.51273059502E+02  0.14062553554E+03  0.00000000000E+00 0.  1.
         15    1    3    3    0    0 -0.41357087061E+02  0.54244034839E+03  0.10985079366E+04  0.12258363613E+04  0.17770000000E+01 0. -1.
        -16    1    3    3    0    0  0.29587496086E+02  0.50138832450E+03  0.11016895003E+04  0.12107788514E+04  0.00000000000E+00 0.  1.
          2    1    6    6  502    0 -0.81472580823E+02 -0.72667838859E+03 -0.49506289335E+03  0.88305522492E+03  0.00000000000E+00 0. -1.
         -1    1    6    6    0  502 -0.67661343338E+02 -0.25699365932E+03 -0.21509170726E+03  0.34188922306E+03  0.00000000000E+00 0.  1.
<mgrwt>
<rscale>  0 0.11127028E+04</rscale>
<asrwt>0</asrwt>
<pdfrwt beam="1">  1        1 0.40813108E+00 0.11127028E+04</pdfrwt>
<pdfrwt beam="2">  1       -2 0.18491547E+00 0.11127028E+04</pdfrwt>
<totfact> 0.15508754E-01</totfact>
</mgrwt>
</event>
<event>
12    3  0.1176505E-007  0.1472501E+04  0.7818608E-02  0.8902948E-01
          1   -1    0    0  501    0  0.00000000000E+00  0.00000000000E+00  0.16059728259E+04  0.16059728259E+04  0.00000000000E+00 0. -1.
         -2   -1    0    0    0  501 -0.00000000000E+00 -0.00000000000E+00 -0.16158105819E+04  0.16158105819E+04  0.00000000000E+00 0.  1.
        -24    2    1    2    0    0  0.12532575071E+04  0.75238094191E+03  0.52268683624E+03  0.15543056594E+04  0.77026574946E+02 0.  0.
    5000000    2    1    2    0    0 -0.12532575071E+04 -0.75238094191E+03 -0.53252459219E+03  0.16674777484E+04  0.60014009959E+03 0.  0.
        -24    2    4    4    0    0 -0.25925647518E+03 -0.25785097168E+03  0.99925782347E+02  0.38731672073E+03  0.79548957642E+02 0.  0.
         24    2    4    4    0    0 -0.99400103191E+03 -0.49452997023E+03 -0.63245037454E+03  0.12801610276E+04  0.78872285915E+02 0.  0.
         11    1    5    5    0    0 -0.14295322062E+03 -0.10708336154E+03  0.80499212728E+02  0.19591475915E+03  0.00000000000E+00 0. -1.
        -12    1    5    5    0    0 -0.11630325456E+03 -0.15076761015E+03  0.19426569619E+02  0.19140196158E+03  0.00000000000E+00 0.  1.
         15    1    3    3    0    0  0.29696376641E+03  0.21656373764E+03  0.13754258995E+03  0.39243910712E+03  0.17770000000E+01 0. -1.
        -16    1    3    3    0    0  0.95629374067E+03  0.53581720427E+03  0.38514424629E+03  0.11618665523E+04  0.00000000000E+00 0.  1.
          4    1    6    6  502    0 -0.16903736546E+03 -0.56612324291E+02 -0.11910476099E+03  0.21439340073E+03  0.00000000000E+00 0. -1.
         -3    1    6    6    0  502 -0.82496366645E+03 -0.43791764594E+03 -0.51334561355E+03  0.10657676269E+04  0.00000000000E+00 0.  1.
<mgrwt>
<rscale>  0 0.14725011E+04</rscale>
<asrwt>0</asrwt>
<pdfrwt beam="1">  1        1 0.24707274E+00 0.14725011E+04</pdfrwt>
<pdfrwt beam="2">  1       -2 0.24858624E+00 0.14725011E+04</pdfrwt>
<totfact> 0.30012088E-01</totfact>
</mgrwt>
</event>
<event>
12    3  0.1176505E-007  0.5270042E+03  0.7818608E-02  0.1006961E+00
          1   -1    0    0  501    0  0.00000000000E+00  0.00000000000E+00  0.14893287694E+04  0.14893287694E+04  0.00000000000E+00 0. -1.
         -2   -1    0    0    0  501 -0.00000000000E+00 -0.00000000000E+00 -0.22144598727E+03  0.22144598727E+03  0.00000000000E+00 0.  1.
        -24    2    1    2    0    0 -0.35390978272E+03  0.39164534934E+02  0.77235757685E+03  0.85457693973E+03  0.83543547265E+02 0.  0.
    5000000    2    1    2    0    0  0.35390978272E+03 -0.39164534934E+02  0.49552520529E+03  0.85619781696E+03  0.60061924510E+03 0.  0.
        -24    2    4    4    0    0  0.36463114941E+03  0.21433617903E+03  0.31965329421E+03  0.53601882252E+03  0.79006815077E+02 0.  0.
         24    2    4    4    0    0 -0.10721366690E+02 -0.25350071396E+03  0.17587191107E+03  0.32017899444E+03  0.84888748931E+02 0.  0.
         11    1    5    5    0    0  0.45330344084E+02  0.59434069889E+02  0.44851011407E+02  0.87171451649E+02  0.00000000000E+00 0. -1.
        -12    1    5    5    0    0  0.31930080533E+03  0.15490210914E+03  0.27480228281E+03  0.44884737087E+03  0.00000000000E+00 0.  1.
         15    1    3    3    0    0 -0.26123225928E+03  0.10985468841E+02  0.48007497630E+03  0.54666087697E+03  0.17770000000E+01 0. -1.
        -16    1    3    3    0    0 -0.92677523447E+02  0.28179066094E+02  0.29228260055E+03  0.30791606275E+03  0.00000000000E+00 0.  1.
          2    1    6    6  502    0 -0.40877649576E+02 -0.79031633420E+02  0.75229802429E+02  0.11651825818E+03  0.00000000000E+00 0. -1.
         -1    1    6    6    0  502  0.30156282887E+02 -0.17446908054E+03  0.10064210864E+03  0.20366073626E+03  0.00000000000E+00 0.  1.
<mgrwt>
<rscale>  0 0.52700425E+03</rscale>
<asrwt>0</asrwt>
<pdfrwt beam="1">  1        1 0.22912750E+00 0.52700425E+03</pdfrwt>
<pdfrwt beam="2">  1       -2 0.34068614E-01 0.52700425E+03</pdfrwt>
<totfact> 0.49663578E+01</totfact>
</mgrwt>
</event>
<event>
12    3  0.1176505E-007  0.1407012E+04  0.7818608E-02  0.8948759E-01
          1   -1    0    0  501    0  0.00000000000E+00  0.00000000000E+00  0.12869972503E+04  0.12869972503E+04  0.00000000000E+00 0. -1.
         -2   -1    0    0    0  501 -0.00000000000E+00 -0.00000000000E+00 -0.16761279590E+04  0.16761279590E+04  0.00000000000E+00 0.  1.
        -24    2    1    2    0    0  0.54185223782E+03  0.12932504907E+04 -0.29493496418E+03  0.14350872303E+04  0.79925252141E+02 0.  0.
    5000000    2    1    2    0    0 -0.54185223782E+03 -0.12932504907E+04 -0.94195744429E+02  0.15280379791E+04  0.59993878667E+03 0.  0.
        -24    2    4    4    0    0 -0.52624423106E+03 -0.11441403595E+04  0.10430364789E+03  0.12658911633E+04  0.74906831553E+02 0.  0.
         24    2    4    4    0    0 -0.15608006754E+02 -0.14911013121E+03 -0.19849939231E+03  0.26214681572E+03  0.82713379451E+02 0.  0.
         11    1    5    5    0    0 -0.17641890744E+03 -0.47094325412E+03  0.45010934856E+02  0.50491302593E+03  0.00000000000E+00 0. -1.
        -12    1    5    5    0    0 -0.34982532362E+03 -0.67319710541E+03  0.59292713029E+02  0.76097813740E+03  0.00000000000E+00 0.  1.
         15    1    3    3    0    0  0.41789725369E+02  0.10275961821E+03 -0.45763452249E+02  0.12001404739E+03  0.17770000000E+01 0. -1.
        -16    1    3    3    0    0  0.50006251245E+03  0.11904908725E+04 -0.24917151193E+03  0.13150731829E+04  0.00000000000E+00 0.  1.
          4    1    6    6  502    0  0.10108979529E+01 -0.27374099737E+02  0.14872976770E+01  0.27433106012E+02  0.00000000000E+00 0. -1.
         -3    1    6    6    0  502 -0.16618904707E+02 -0.12173603147E+03 -0.19998668999E+03  0.23471370971E+03  0.00000000000E+00 0.  1.
<mgrwt>
<rscale>  0 0.14070117E+04</rscale>
<asrwt>0</asrwt>
<pdfrwt beam="1">  1        1 0.19799958E+00 0.14070117E+04</pdfrwt>
<pdfrwt beam="2">  1       -2 0.25786584E+00 0.14070117E+04</pdfrwt>
<totfact> 0.44422103E-01</totfact>
</mgrwt>
</event>
<event>
12    3  0.1176505E-007  0.2984137E+03  0.7818608E-02  0.1086036E+00
          1   -1    0    0  501    0  0.00000000000E+00  0.00000000000E+00  0.12332377205E+04  0.12332377205E+04  0.00000000000E+00 0. -1.
         -2   -1    0    0    0  501 -0.00000000000E+00 -0.00000000000E+00 -0.22429470489E+03  0.22429470489E+03  0.00000000000E+00 0.  1.
        -24    2    1    2    0    0  0.66588572967E+02  0.23184374747E+03  0.69305229889E+03  0.73788708662E+03  0.77267731436E+02 0.  0.
    5000000    2    1    2    0    0 -0.66588572967E+02 -0.23184374747E+03  0.31589071671E+03  0.71964533875E+03  0.59993075217E+03 0.  0.
        -24    2    4    4    0    0  0.79284197999E+02 -0.14865977146E+03 -0.13598425477E+03  0.23098999797E+03  0.80491924506E+02 0.  0.
         24    2    4    4    0    0 -0.14587277097E+03 -0.83183976009E+02  0.45187497148E+03  0.48865534079E+03  0.79966324522E+02 0.  0.
         13    1    5    5    0    0  0.37447385753E+02 -0.13675555746E+03 -0.91365253610E+02  0.16867720285E+03  0.00000000000E+00 0. -1.
        -14    1    5    5    0    0  0.41836812246E+02 -0.11904214006E+02 -0.44619001162E+02  0.62312795112E+02  0.00000000000E+00 0.  1.
         15    1    3    3    0    0  0.52527397171E+02  0.13470566315E+03  0.30386728180E+03  0.33651630839E+03  0.17770000000E+01 0. -1.
        -16    1    3    3    0    0  0.14061175796E+02  0.97138084324E+02  0.38918501709E+03  0.40137077823E+03  0.00000000000E+00 0.  1.
          2    1    6    6  502    0 -0.11551382195E+03 -0.57529267833E+02  0.23437287535E+03  0.26755131175E+03  0.00000000000E+00 0. -1.
         -1    1    6    6    0  502 -0.30358949019E+02 -0.25654708176E+02  0.21750209613E+03  0.22110402904E+03  0.00000000000E+00 0.  1.
<mgrwt>
<rscale>  0 0.29841369E+03</rscale>
<asrwt>0</asrwt>
<pdfrwt beam="1">  1        1 0.18972888E+00 0.29841369E+03</pdfrwt>
<pdfrwt beam="2">  1       -2 0.34506878E-01 0.29841369E+03</pdfrwt>
<totfact> 0.75703989E+01</totfact>
</mgrwt>
</event>
<event>
12    3  0.1176505E-007  0.5458856E+03  0.7818608E-02  0.1002451E+00
         -2   -1    0    0    0  501 -0.00000000000E+00  0.00000000000E+00  0.39210212217E+03  0.39210212217E+03  0.00000000000E+00 0.  1.
          1   -1    0    0  501    0  0.00000000000E+00 -0.00000000000E+00 -0.97385569238E+03  0.97385569238E+03  0.00000000000E+00 0. -1.
        -24    2    1    2    0    0  0.31130286313E+03  0.32439445258E+03 -0.36791097754E+03  0.58639470466E+03  0.79743518876E+02 0.  0.
    5000000    2    1    2    0    0 -0.31130286313E+03 -0.32439445258E+03 -0.21384259268E+03  0.77956310989E+03  0.59987394876E+03 0.  0.
        -24    2    4    4    0    0 -0.32475582465E+03 -0.42391354742E+03 -0.12094376161E+02  0.54043539872E+03  0.82189445311E+02 0.  0.
         24    2    4    4    0    0  0.13452961517E+02  0.99519094845E+02 -0.20174821652E+03  0.23912771117E+03  0.79966786673E+02 0.  0.
         13    1    5    5    0    0 -0.28929425227E+03 -0.35973275207E+03  0.16020630768E+02  0.46190418694E+03  0.00000000000E+00 0. -1.
        -14    1    5    5    0    0 -0.35461572380E+02 -0.64180795355E+02 -0.28115006929E+02  0.78531211774E+02  0.00000000000E+00 0.  1.
         15    1    3    3    0    0  0.11978057077E+03  0.16303153287E+03 -0.12685233887E+03  0.23879141410E+03  0.17770000000E+01 0. -1.
        -16    1    3    3    0    0  0.19152229236E+03  0.16136291970E+03 -0.24105863867E+03  0.34760329055E+03  0.00000000000E+00 0.  1.
          4    1    6    6  502    0  0.21940124936E+02  0.70351626947E+02 -0.62570931872E+02  0.96673895193E+02  0.00000000000E+00 0. -1.
         -3    1    6    6    0  502 -0.84871634187E+01  0.29167467898E+02 -0.13917728464E+03  0.14245381598E+03  0.00000000000E+00 0.  1.
<mgrwt>
<rscale>  0 0.54588561E+03</rscale>
<asrwt>0</asrwt>
<pdfrwt beam="1">  1        1 0.14982395E+00 0.54588561E+03</pdfrwt>
<pdfrwt beam="2">  1       -2 0.60323404E-01 0.54588561E+03</pdfrwt>
<totfact> 0.37213306E+01</totfact>
</mgrwt>
</event>
<event>
12    3  0.1176505E-007  0.7144561E+03  0.7818608E-02  0.9692825E-01
          1   -1    0    0  501    0  0.00000000000E+00  0.00000000000E+00  0.28254497047E+04  0.28254497047E+04  0.00000000000E+00 0. -1.
         -2   -1    0    0    0  501 -0.00000000000E+00 -0.00000000000E+00 -0.24248313719E+03  0.24248313719E+03  0.00000000000E+00 0.  1.
        -24    2    1    2    0    0 -0.14115853761E+03 -0.69872078301E+03  0.99058071992E+03  0.12229964436E+04  0.79584376465E+02 0.  0.
    5000000    2    1    2    0    0  0.14115853761E+03  0.69872078301E+03  0.15923858476E+04  0.18449363983E+04  0.59996763317E+03 0.  0.
        -24    2    4    4    0    0  0.17678899725E+02  0.13231103934E+03  0.99898798015E+03  0.10115801210E+04  0.86594469488E+02 0.  0.
         24    2    4    4    0    0  0.12347963788E+03  0.56640974367E+03  0.59339786746E+03  0.83335627730E+03  0.79337488683E+02 0.  0.
         11    1    5    5    0    0  0.81170436699E+01  0.11968030224E+03  0.57909652657E+03  0.59138992909E+03  0.00000000000E+00 0. -1.
        -12    1    5    5    0    0  0.95618560552E+01  0.12630737095E+02  0.41989145358E+03  0.42019019194E+03  0.00000000000E+00 0.  1.
         15    1    3    3    0    0 -0.71340235099E+02 -0.28298518992E+03  0.46854345695E+03  0.55200197069E+03  0.17770000000E+01 0. -1.
        -16    1    3    3    0    0 -0.69818302508E+02 -0.41573559308E+03  0.52203726297E+03  0.67099447289E+03  0.00000000000E+00 0.  1.
          2    1    6    6  502    0  0.41853610350E+02  0.19306813931E+03  0.25756473955E+03  0.32460225843E+03  0.00000000000E+00 0. -1.
         -1    1    6    6    0  502  0.81626027532E+02  0.37334160436E+03  0.33583312791E+03  0.50875401887E+03  0.00000000000E+00 0.  1.
<mgrwt>
<rscale>  0 0.71445615E+03</rscale>
<asrwt>0</asrwt>
<pdfrwt beam="1">  1        1 0.43468455E+00 0.71445615E+03</pdfrwt>
<pdfrwt beam="2">  1       -2 0.37305100E-01 0.71445615E+03</pdfrwt>
<totfact> 0.50781937E+00</totfact>
</mgrwt>
</event>
<event>
12    3  0.1176505E-007  0.7006073E+03  0.7818608E-02  0.9716194E-01
         -2   -1    0    0    0  501 -0.00000000000E+00  0.00000000000E+00  0.28828632862E+03  0.28828632862E+03  0.00000000000E+00 0.  1.
          1   -1    0    0  501    0  0.00000000000E+00 -0.00000000000E+00 -0.18591708994E+04  0.18591708994E+04  0.00000000000E+00 0. -1.
        -24    2    1    2    0    0 -0.43931229398E+03 -0.37914920977E+03 -0.91256101080E+03  0.10843886758E+04  0.79886086403E+02 0.  0.
    5000000    2    1    2    0    0  0.43931229398E+03  0.37914920977E+03 -0.65832356001E+03  0.10630685523E+04  0.59997951822E+03 0.  0.
        -24    2    4    4    0    0  0.53381844564E+03  0.13339055718E+03 -0.38746161821E+03  0.67779395246E+03  0.80764860857E+02 0.  0.
         24    2    4    4    0    0 -0.94506151662E+02  0.24575865259E+03 -0.27086194179E+03  0.38527459982E+03  0.75773331281E+02 0.  0.
         13    1    5    5    0    0  0.13791077218E+03  0.43608948858E+02 -0.61534735558E+02  0.15718665714E+03  0.00000000000E+00 0. -1.
        -14    1    5    5    0    0  0.39590767346E+03  0.89781608326E+02 -0.32592688266E+03  0.52060729532E+03  0.00000000000E+00 0.  1.
         15    1    3    3    0    0 -0.94896138814E+02 -0.52098264878E+02 -0.13252440252E+03  0.17112972085E+03  0.17770000000E+01 0. -1.
        -16    1    3    3    0    0 -0.34441615516E+03 -0.32705094489E+03 -0.78003660828E+03  0.91325895492E+03  0.00000000000E+00 0.  1.
          4    1    6    6  502    0 -0.80556023496E+02  0.14682593633E+03 -0.12727492307E+03  0.21034741392E+03  0.00000000000E+00 0. -1.
         -3    1    6    6    0  502 -0.13950128166E+02  0.98932716253E+02 -0.14358701872E+03  0.17492718590E+03  0.00000000000E+00 0.  1.
<mgrwt>
<rscale>  0 0.70060730E+03</rscale>
<asrwt>0</asrwt>
<pdfrwt beam="1">  1        1 0.28602628E+00 0.70060730E+03</pdfrwt>
<pdfrwt beam="2">  1       -2 0.44351745E-01 0.70060730E+03</pdfrwt>
<totfact> 0.16410820E+01</totfact>
</mgrwt>
</event>
<event>
12    3  0.1176505E-007  0.8691302E+03  0.7818608E-02  0.9465015E-01
         -2   -1    0    0    0  501 -0.00000000000E+00  0.00000000000E+00  0.10450117503E+04  0.10450117503E+04  0.00000000000E+00 0.  1.
          1   -1    0    0  501    0  0.00000000000E+00 -0.00000000000E+00 -0.90006616120E+03  0.90006616120E+03  0.00000000000E+00 0. -1.
        -24    2    1    2    0    0  0.76065956015E+03  0.23313381115E+03  0.43107101413E+03  0.90826356423E+03  0.78524789287E+02 0.  0.
    5000000    2    1    2    0    0 -0.76065956015E+03 -0.23313381115E+03 -0.28612542505E+03  0.10368143473E+04  0.60013489441E+03 0.  0.
        -24    2    4    4    0    0 -0.66004481282E+03  0.16369128313E+02 -0.34634518584E+03  0.74998405276E+03  0.81203376461E+02 0.  0.
         24    2    4    4    0    0 -0.10061474733E+03 -0.24950293946E+03  0.60219760799E+02  0.28683029451E+03  0.79184304468E+02 0.  0.
         11    1    5    5    0    0 -0.27480432160E+03 -0.14314726424E+02 -0.10602731108E+03  0.29489679086E+03  0.00000000000E+00 0. -1.
        -12    1    5    5    0    0 -0.38524049121E+03  0.30683854737E+02 -0.24031787477E+03  0.45508726190E+03  0.00000000000E+00 0.  1.
         15    1    3    3    0    0  0.37579581711E+03  0.78601463291E+02  0.18708712436E+03  0.42708949415E+03  0.17770000000E+01 0. -1.
        -16    1    3    3    0    0  0.38486374304E+03  0.15453234786E+03  0.24398388978E+03  0.48117407008E+03  0.00000000000E+00 0.  1.
          2    1    6    6  502    0 -0.71501577448E+02 -0.85788666022E+02  0.56477228786E+01  0.11182158812E+03  0.00000000000E+00 0. -1.
         -1    1    6    6    0  502 -0.29113169887E+02 -0.16371427344E+03  0.54572037920E+02  0.17500870639E+03  0.00000000000E+00 0.  1.
<mgrwt>
<rscale>  0 0.86913017E+03</rscale>
<asrwt>0</asrwt>
<pdfrwt beam="1">  1        1 0.13847172E+00 0.86913017E+03</pdfrwt>
<pdfrwt beam="2">  1       -2 0.16077104E+00 0.86913017E+03</pdfrwt>
<totfact> 0.40044626E+00</totfact>
</mgrwt>
</event>
<event>
12    3  0.1176505E-007  0.1077216E+04  0.7818608E-02  0.9227688E-01
          1   -1    0    0  501    0  0.00000000000E+00  0.00000000000E+00  0.24628622440E+04  0.24628622440E+04  0.00000000000E+00 0. -1.
         -2   -1    0    0    0  501 -0.00000000000E+00 -0.00000000000E+00 -0.50680458841E+03  0.50680458841E+03  0.00000000000E+00 0.  1.
        -24    2    1    2    0    0 -0.32378295898E+03  0.96788721218E+03  0.68098814802E+03  0.12297013782E+04  0.82338094593E+02 0.  0.
    5000000    2    1    2    0    0  0.32378295898E+03 -0.96788721218E+03  0.12750695075E+04  0.17399654541E+04  0.60003039300E+03 0.  0.
        -24    2    4    4    0    0 -0.10065458911E+03 -0.91465707560E+02  0.35375372178E+02  0.16222601526E+03  0.81046536649E+02 0.  0.
         24    2    4    4    0    0  0.42443754809E+03 -0.87642150462E+03  0.12396941353E+04  0.15777394389E+04  0.64484895593E+02 0.  0.
         11    1    5    5    0    0 -0.52518624017E+02 -0.96436418068E+02  0.27458010493E+02  0.11319068397E+03  0.00000000000E+00 0. -1.
        -12    1    5    5    0    0 -0.48135965096E+02  0.49707105074E+01  0.79173616847E+01  0.49035331290E+02  0.00000000000E+00 0.  1.
         15    1    3    3    0    0 -0.11071302768E+03  0.32060901900E+03  0.18064788413E+03  0.38429719402E+03  0.17770000000E+01 0. -1.
        -16    1    3    3    0    0 -0.21306993130E+03  0.64727819319E+03  0.50034026389E+03  0.84540418420E+03  0.00000000000E+00 0.  1.
          4    1    6    6  502    0  0.98008195073E+02 -0.26404612313E+03  0.37656147176E+03  0.47023877281E+03  0.00000000000E+00 0. -1.
         -3    1    6    6    0  502  0.32642935302E+03 -0.61237538150E+03  0.86313266359E+03  0.11075006661E+04  0.00000000000E+00 0.  1.
<mgrwt>
<rscale>  0 0.10772160E+04</rscale>
<asrwt>0</asrwt>
<pdfrwt beam="1">  1        1 0.37890188E+00 0.10772160E+04</pdfrwt>
<pdfrwt beam="2">  1       -2 0.77969938E-01 0.10772160E+04</pdfrwt>
<totfact> 0.18554137E+00</totfact>
</mgrwt>
</event>
<event>
12    3  0.1176505E-007  0.8967767E+03  0.7818608E-02  0.9429620E-01
          1   -1    0    0  501    0  0.00000000000E+00  0.00000000000E+00  0.16384166771E+04  0.16384166771E+04  0.00000000000E+00 0. -1.
         -2   -1    0    0    0  501 -0.00000000000E+00 -0.00000000000E+00 -0.54306841330E+03  0.54306841330E+03  0.00000000000E+00 0.  1.
        -24    2    1    2    0    0 -0.73656542165E+03 -0.30641650833E+03  0.81819962652E+03  0.11453784966E+04  0.77598806396E+02 0.  0.
    5000000    2    1    2    0    0  0.73656542165E+03  0.30641650833E+03  0.27714863725E+03  0.10361065937E+04  0.60023812732E+03 0.  0.
        -24    2    4    4    0    0  0.11562915558E+03 -0.16286296739E+03  0.43654701945E+02  0.21965649569E+03  0.80304391707E+02 0.  0.
         24    2    4    4    0    0  0.62093626608E+03  0.46927947572E+03  0.23349393531E+03  0.81645009805E+03  0.79286013353E+02 0.  0.
         11    1    5    5    0    0 -0.39081162139E+01 -0.47977338996E+02 -0.28879608624E+00  0.48137114919E+02  0.00000000000E+00 0. -1.
        -12    1    5    5    0    0  0.11953727179E+03 -0.11488562840E+03  0.43943498032E+02  0.17151938077E+03  0.00000000000E+00 0.  1.
         15    1    3    3    0    0 -0.18243087983E+03 -0.48941933828E+02  0.22484985557E+03  0.29366129143E+03  0.17770000000E+01 0. -1.
        -16    1    3    3    0    0 -0.55413454183E+03 -0.25747457450E+03  0.59334977095E+03  0.85171720521E+03  0.00000000000E+00 0.  1.
          4    1    6    6  502    0  0.32678073294E+03  0.27588968359E+03  0.94593503172E+02  0.43800536044E+03  0.00000000000E+00 0. -1.
         -3    1    6    6    0  502  0.29415553314E+03  0.19338979214E+03  0.13890043213E+03  0.37844473761E+03  0.00000000000E+00 0.  1.
<mgrwt>
<rscale>  0 0.89677667E+03</rscale>
<asrwt>0</asrwt>
<pdfrwt beam="1">  1        1 0.25206410E+00 0.89677667E+03</pdfrwt>
<pdfrwt beam="2">  1       -2 0.83548987E-01 0.89677667E+03</pdfrwt>
<totfact> 0.58632563E+00</totfact>
</mgrwt>
</event>
<event>
12    3  0.1176505E-007  0.2964897E+03  0.7818608E-02  0.1087009E+00
          1   -1    0    0  501    0  0.00000000000E+00  0.00000000000E+00  0.27696976366E+04  0.27696976366E+04  0.00000000000E+00 0. -1.
         -2   -1    0    0    0  501 -0.00000000000E+00 -0.00000000000E+00 -0.62449228971E+02  0.62449228971E+02  0.00000000000E+00 0.  1.
        -24    2    1    2    0    0 -0.16777917224E+03  0.59135243944E+02  0.84977626402E+03  0.87223197729E+03  0.83797945078E+02 0.  0.
    5000000    2    1    2    0    0  0.16777917224E+03 -0.59135243944E+02  0.18574721436E+04  0.19599148883E+04  0.59951378409E+03 0.  0.
        -24    2    4    4    0    0  0.39776966208E+02 -0.20076225723E+03  0.21988364535E+03  0.30929643823E+03  0.73673456799E+02 0.  0.
         24    2    4    4    0    0  0.12800220603E+03  0.14162701329E+03  0.16375884983E+04  0.16506184501E+04  0.80015013522E+02 0.  0.
         13    1    5    5    0    0  0.51389048642E+02 -0.83276457058E+02  0.11848822598E+03  0.15367258154E+03  0.00000000000E+00 0. -1.
        -14    1    5    5    0    0 -0.11612082434E+02 -0.11748580018E+03  0.10139541937E+03  0.15562385669E+03  0.00000000000E+00 0.  1.
         15    1    3    3    0    0 -0.25035400999E+02  0.18919286633E+02  0.51780765566E+02  0.60573229413E+02  0.17770000000E+01 0. -1.
        -16    1    3    3    0    0 -0.14274377124E+03  0.40215957310E+02  0.79799549845E+03  0.81165874788E+03  0.00000000000E+00 0.  1.
          2    1    6    6  502    0  0.89269700528E+02  0.12844480019E+03  0.10476399876E+04  0.10592528922E+04  0.00000000000E+00 0. -1.
         -1    1    6    6    0  502  0.38732505507E+02  0.13182213099E+02  0.58994851071E+03  0.59136555785E+03  0.00000000000E+00 0.  1.
<mgrwt>
<rscale>  0 0.29648972E+03</rscale>
<asrwt>0</asrwt>
<pdfrwt beam="1">  1        1 0.42610723E+00 0.29648972E+03</pdfrwt>
<pdfrwt beam="2">  1       -2 0.96075758E-02 0.29648972E+03</pdfrwt>
<totfact> 0.64496788E+01</totfact>
</mgrwt>
</event>
<event>
12    3  0.1176505E-007  0.6617644E+03  0.7818608E-02  0.9784951E-01
          1   -1    0    0  501    0  0.00000000000E+00  0.00000000000E+00  0.15197075899E+04  0.15197075899E+04  0.00000000000E+00 0. -1.
         -2   -1    0    0    0  501 -0.00000000000E+00 -0.00000000000E+00 -0.47886553919E+03  0.47886553919E+03  0.00000000000E+00 0.  1.
        -24    2    1    2    0    0 -0.50572993393E+03 -0.20382095663E+03 -0.13792978528E+03  0.56797057225E+03  0.79121405690E+02 0.  0.
    5000000    2    1    2    0    0  0.50572993393E+03  0.20382095663E+03  0.11787718359E+04  0.14306025568E+04  0.59984571838E+03 0.  0.
        -24    2    4    4    0    0  0.56379387276E+03  0.16790883791E+02  0.99411962991E+03  0.11457339283E+04  0.79290170709E+02 0.  0.
         24    2    4    4    0    0 -0.58063938831E+02  0.18703007284E+03  0.18465220603E+03  0.28486862849E+03  0.93284667351E+02 0.  0.
         13    1    5    5    0    0  0.36606897857E+03  0.20932418274E+01  0.56803197006E+03  0.67577451694E+03  0.00000000000E+00 0. -1.
        -14    1    5    5    0    0  0.19772489419E+03  0.14697641963E+02  0.42608765985E+03  0.46995941137E+03  0.00000000000E+00 0.  1.
         15    1    3    3    0    0 -0.25081476949E+03 -0.12185728579E+03 -0.34756336379E+02  0.28101318001E+03  0.17770000000E+01 0. -1.
        -16    1    3    3    0    0 -0.25491516444E+03 -0.81963670838E+02 -0.10317344890E+03  0.28695739223E+03  0.00000000000E+00 0.  1.
          4    1    6    6  502    0  0.50094025800E+00 -0.84655525902E+01 -0.15355499979E+01  0.86182617503E+01  0.00000000000E+00 0. -1.
         -3    1    6    6    0  502 -0.58564879089E+02  0.19549562543E+03  0.18618775603E+03  0.27625036674E+03  0.00000000000E+00 0.  1.
<mgrwt>
<rscale>  0 0.66176439E+03</rscale>
<asrwt>0</asrwt>
<pdfrwt beam="1">  1        1 0.23380117E+00 0.66176439E+03</pdfrwt>
<pdfrwt beam="2">  1       -2 0.73671622E-01 0.66176439E+03</pdfrwt>
<totfact> 0.96662191E+00</totfact>
</mgrwt>
</event>
<event>
12    3  0.1176505E-007  0.7590441E+03  0.7818608E-02  0.9621268E-01
         -2   -1    0    0    0  501 -0.00000000000E+00  0.00000000000E+00  0.76136155642E+03  0.76136155642E+03  0.00000000000E+00 0.  1.
          1   -1    0    0  501    0  0.00000000000E+00 -0.00000000000E+00 -0.79708698323E+03  0.79708698323E+03  0.00000000000E+00 0. -1.
        -24    2    1    2    0    0  0.37451094680E+03 -0.53910192120E+03 -0.91260694349E+02  0.66729651453E+03  0.77889622262E+02 0.  0.
    5000000    2    1    2    0    0 -0.37451094680E+03  0.53910192120E+03  0.55535267547E+02  0.89115202512E+03  0.60014867759E+03 0.  0.
        -24    2    4    4    0    0  0.11869719692E+03  0.26195983873E+03  0.10795981101E+03  0.31739858594E+03  0.79840841077E+02 0.  0.
         24    2    4    4    0    0 -0.49320814372E+03  0.27714208248E+03 -0.52424543462E+02  0.57375343918E+03  0.79891609687E+02 0.  0.
         13    1    5    5    0    0  0.69087378196E+02  0.13121562275E+03  0.14059392506E+02  0.14895728246E+03  0.00000000000E+00 0. -1.
        -14    1    5    5    0    0  0.49609818725E+02  0.13074421598E+03  0.93900418503E+02  0.16844130349E+03  0.00000000000E+00 0.  1.
         15    1    3    3    0    0  0.79767089154E+01 -0.39445943328E+02 -0.14803533887E+02  0.42917510118E+02  0.17770000000E+01 0. -1.
        -16    1    3    3    0    0  0.36653423788E+03 -0.49965597787E+03 -0.76457160462E+02  0.62437900441E+03  0.00000000000E+00 0.  1.
          2    1    6    6  502    0 -0.34167217474E+03  0.22770301981E+03 -0.19934353025E+02  0.41107896888E+03  0.00000000000E+00 0. -1.
         -1    1    6    6    0  502 -0.15153596898E+03  0.49439062661E+02 -0.32490190438E+02  0.16267447030E+03  0.00000000000E+00 0.  1.
<mgrwt>
<rscale>  0 0.75904405E+03</rscale>
<asrwt>0</asrwt>
<pdfrwt beam="1">  1        1 0.12262877E+00 0.75904405E+03</pdfrwt>
<pdfrwt beam="2">  1       -2 0.11713255E+00 0.75904405E+03</pdfrwt>
<totfact> 0.11209697E+01</totfact>
</mgrwt>
</event>
<event>
12    3  0.1176505E-007  0.1486326E+04  0.7818608E-02  0.8893597E-01
          1   -1    0    0  501    0  0.00000000000E+00  0.00000000000E+00  0.20629106498E+04  0.20629106498E+04  0.00000000000E+00 0. -1.
         -2   -1    0    0    0  501 -0.00000000000E+00 -0.00000000000E+00 -0.11767209095E+04  0.11767209095E+04  0.00000000000E+00 0.  1.
        -24    2    1    2    0    0 -0.11741905703E+04 -0.82305786443E+03  0.88156771536E+03  0.16851972728E+04  0.81120082942E+02 0.  0.
    5000000    2    1    2    0    0  0.11741905703E+04  0.82305786443E+03  0.46220249123E+01  0.15544342865E+04  0.60008069832E+03 0.  0.
        -24    2    4    4    0    0  0.97055537851E+03  0.36747393408E+03 -0.70334567672E+02  0.10432304247E+04  0.79799327653E+02 0.  0.
         24    2    4    4    0    0  0.20363519177E+03  0.45558393035E+03  0.74956592584E+02  0.51120386180E+03  0.81773398040E+02 0.  0.
         13    1    5    5    0    0  0.56951376175E+03  0.23098459938E+03 -0.78184425785E+02  0.61952612085E+03  0.00000000000E+00 0. -1.
        -14    1    5    5    0    0  0.40104161675E+03  0.13648933470E+03  0.78498581131E+01  0.42370430388E+03  0.00000000000E+00 0.  1.
         15    1    3    3    0    0 -0.25246236771E+03 -0.21000533533E+03  0.17774512236E+03  0.37341126688E+03  0.17770000000E+01 0. -1.
        -16    1    3    3    0    0 -0.92172820256E+03 -0.61305252909E+03  0.70382259300E+03  0.13117860059E+04  0.00000000000E+00 0.  1.
          2    1    6    6  502    0  0.17367331921E+03  0.39423171388E+03  0.35275672231E+02  0.43223308421E+03  0.00000000000E+00 0. -1.
         -1    1    6    6    0  502  0.29961872554E+02  0.61352216470E+02  0.39680920354E+02  0.78970777588E+02  0.00000000000E+00 0.  1.
<mgrwt>
<rscale>  0 0.14863262E+04</rscale>
<asrwt>0</asrwt>
<pdfrwt beam="1">  1        1 0.31737087E+00 0.14863262E+04</pdfrwt>
<pdfrwt beam="2">  1       -2 0.18103399E+00 0.14863262E+04</pdfrwt>
<totfact> 0.39904656E-01</totfact>
</mgrwt>
</event>
<event>
12    3  0.1176505E-007  0.7062995E+03  0.7818608E-02  0.9706520E-01
          1   -1    0    0  501    0  0.00000000000E+00  0.00000000000E+00  0.72528336709E+03  0.72528336709E+03  0.00000000000E+00 0. -1.
         -2   -1    0    0    0  501 -0.00000000000E+00 -0.00000000000E+00 -0.81820068059E+03  0.81820068059E+03  0.00000000000E+00 0.  1.
        -24    2    1    2    0    0 -0.54823303244E+03  0.27283525139E+03  0.18092111519E+03  0.64354173186E+03  0.80093560688E+02 0.  0.
    5000000    2    1    2    0    0  0.54823303244E+03 -0.27283525139E+03 -0.27383842869E+03  0.89994231583E+03  0.59992512410E+03 0.  0.
        -24    2    4    4    0    0  0.63785334343E+03 -0.22836375338E+03 -0.10976676478E+03  0.69082040303E+03  0.78595133480E+02 0.  0.
         24    2    4    4    0    0 -0.89620310992E+02 -0.44471498013E+02 -0.16407166390E+03  0.20912191280E+03  0.82479992960E+02 0.  0.
         13    1    5    5    0    0  0.21801105659E+03 -0.54793899420E+02 -0.62926920894E+01  0.22487950147E+03  0.00000000000E+00 0. -1.
        -14    1    5    5    0    0  0.41984228685E+03 -0.17356985396E+03 -0.10347407269E+03  0.46594090156E+03  0.00000000000E+00 0.  1.
         15    1    3    3    0    0 -0.85619535792E+02  0.12950673142E+02  0.33111294136E+02  0.92725079523E+02  0.17770000000E+01 0. -1.
        -16    1    3    3    0    0 -0.46261349665E+03  0.25988457825E+03  0.14780982105E+03  0.55081665234E+03  0.00000000000E+00 0.  1.
          4    1    6    6  502    0 -0.98139728987E+02 -0.44497141335E+02 -0.10855788983E+03  0.15295822121E+03  0.00000000000E+00 0. -1.
         -3    1    6    6    0  502  0.85194179954E+01  0.25643321883E-01 -0.55513774072E+02  0.56163691584E+02  0.00000000000E+00 0.  1.
<mgrwt>
<rscale>  0 0.70629946E+03</rscale>
<asrwt>0</asrwt>
<pdfrwt beam="1">  1        1 0.11158206E+00 0.70629946E+03</pdfrwt>
<pdfrwt beam="2">  1       -2 0.12587703E+00 0.70629946E+03</pdfrwt>
<totfact> 0.10923156E+01</totfact>
</mgrwt>
</event>
<event>
12    3  0.1176505E-007  0.6914989E+03  0.7818608E-02  0.9731882E-01
         -2   -1    0    0    0  501 -0.00000000000E+00  0.00000000000E+00  0.27060109369E+03  0.27060109369E+03  0.00000000000E+00 0.  1.
          1   -1    0    0  501    0  0.00000000000E+00 -0.00000000000E+00 -0.23226292278E+04  0.23226292278E+04  0.00000000000E+00 0. -1.
        -24    2    1    2    0    0 -0.54772519292E+03  0.17970578172E+03 -0.30220778998E+03  0.65568245041E+03  0.79327627671E+02 0.  0.
    5000000    2    1    2    0    0  0.54772519292E+03 -0.17970578172E+03 -0.17498203441E+04  0.19375478711E+04  0.59993621417E+03 0.  0.
        -24    2    4    4    0    0 -0.11161067114E+03 -0.53421502252E+02 -0.20498370436E+03  0.25127716117E+03  0.76230531012E+02 0.  0.
         24    2    4    4    0    0  0.65933586405E+03 -0.12628427947E+03 -0.15448366398E+04  0.16862707099E+04  0.79480580461E+02 0.  0.
         13    1    5    5    0    0 -0.29548017034E+02 -0.38929945162E+02 -0.13107932304E+03  0.13989429892E+03  0.00000000000E+00 0. -1.
        -14    1    5    5    0    0 -0.82062654103E+02 -0.14491557090E+02 -0.73904381320E+02  0.11138286225E+03  0.00000000000E+00 0.  1.
         15    1    3    3    0    0 -0.37385541609E+03  0.12011720182E+03 -0.16323264682E+03  0.42525765017E+03  0.17770000000E+01 0. -1.
        -16    1    3    3    0    0 -0.17386977683E+03  0.59588579898E+02 -0.13897514316E+03  0.23042480024E+03  0.00000000000E+00 0.  1.
          4    1    6    6  502    0  0.26940720009E+03 -0.19949490844E+02 -0.56114820233E+03  0.62278850874E+03  0.00000000000E+00 0. -1.
         -3    1    6    6    0  502  0.38992866396E+03 -0.10633478863E+03 -0.98368843744E+03  0.10634822012E+04  0.00000000000E+00 0.  1.
<mgrwt>
<rscale>  0 0.69149891E+03</rscale>
<asrwt>0</asrwt>
<pdfrwt beam="1">  1        1 0.35732759E+00 0.69149891E+03</pdfrwt>
<pdfrwt beam="2">  1       -2 0.41630936E-01 0.69149891E+03</pdfrwt>
<totfact> 0.91205658E+00</totfact>
</mgrwt>
</event>
<event>
12    3  0.1176505E-007  0.5403652E+03  0.7818608E-02  0.1003749E+00
         -2   -1    0    0    0  501 -0.00000000000E+00  0.00000000000E+00  0.56433293063E+03  0.56433293063E+03  0.00000000000E+00 0.  1.
          1   -1    0    0  501    0  0.00000000000E+00 -0.00000000000E+00 -0.16856263216E+04  0.16856263216E+04  0.00000000000E+00 0. -1.
        -24    2    1    2    0    0 -0.35542032673E+03 -0.16189529518E+03 -0.14194531201E+04  0.14743546895E+04  0.79629737757E+02 0.  0.
    5000000    2    1    2    0    0  0.35542032673E+03  0.16189529518E+03  0.29815972914E+03  0.77560456270E+03  0.60010792225E+03 0.  0.
        -24    2    4    4    0    0  0.13846943304E+03  0.35938610008E+03  0.81156956713E+02  0.40186482381E+03  0.81097054039E+02 0.  0.
         24    2    4    4    0    0  0.21695089369E+03 -0.19749080490E+03  0.21700277242E+03  0.37373973889E+03  0.80751971439E+02 0.  0.
         13    1    5    5    0    0  0.60133141885E+02  0.21077276474E+03  0.99712451522E+01  0.21940961428E+03  0.00000000000E+00 0. -1.
        -14    1    5    5    0    0  0.78336291152E+02  0.14861333534E+03  0.71185711561E+02  0.18245520952E+03  0.00000000000E+00 0.  1.
         15    1    3    3    0    0 -0.21715029568E+03 -0.13846228322E+03 -0.87343158785E+03  0.91061075722E+03  0.17770000000E+01 0. -1.
        -16    1    3    3    0    0 -0.13827003105E+03 -0.23433011959E+02 -0.54602153227E+03  0.56374393233E+03  0.00000000000E+00 0.  1.
          2    1    6    6  502    0  0.10403073114E+03 -0.11999192173E+03  0.72272637633E+02  0.17448148456E+03  0.00000000000E+00 0. -1.
         -1    1    6    6    0  502  0.11292016255E+03 -0.77498883170E+02  0.14473013479E+03  0.19925825433E+03  0.00000000000E+00 0.  1.
<mgrwt>
<rscale>  0 0.54036524E+03</rscale>
<asrwt>0</asrwt>
<pdfrwt beam="1">  1        1 0.25932712E+00 0.54036524E+03</pdfrwt>
<pdfrwt beam="2">  1       -2 0.86820453E-01 0.54036524E+03</pdfrwt>
<totfact> 0.52881289E+00</totfact>
</mgrwt>
</event>
<event>
12    3  0.1176505E-007  0.5755970E+03  0.7818608E-02  0.9957369E-01
          1   -1    0    0  501    0  0.00000000000E+00  0.00000000000E+00  0.20090329600E+04  0.20090329600E+04  0.00000000000E+00 0. -1.
         -2   -1    0    0    0  501 -0.00000000000E+00 -0.00000000000E+00 -0.64086201130E+03  0.64086201130E+03  0.00000000000E+00 0.  1.
        -24    2    1    2    0    0  0.53343479895E+03 -0.65145490695E+02 -0.42004093003E+03  0.68871862096E+03  0.95406164723E+02 0.  0.
    5000000    2    1    2    0    0 -0.53343479895E+03  0.65145490695E+02  0.17882118788E+04  0.19611763504E+04  0.59976189792E+03 0.  0.
        -24    2    4    4    0    0 -0.34361203420E+03 -0.94502216123E+02  0.15977619603E+04  0.16390539127E+04  0.81575412838E+02 0.  0.
         24    2    4    4    0    0 -0.18982276475E+03  0.15964770682E+03  0.19044991844E+03  0.32212243767E+03  0.77276264841E+02 0.  0.
         13    1    5    5    0    0 -0.16440606265E+03 -0.45204196686E+02  0.94887557942E+03  0.96407346092E+03  0.00000000000E+00 0. -1.
        -14    1    5    5    0    0 -0.17920597155E+03 -0.49298019437E+02  0.64888638089E+03  0.67498045177E+03  0.00000000000E+00 0.  1.
         15    1    3    3    0    0  0.70305171159E+02 -0.22424564141E+02 -0.99383960751E+02  0.12379825343E+03  0.17770000000E+01 0. -1.
        -16    1    3    3    0    0  0.46312962779E+03 -0.42720926555E+02 -0.32065696928E+03  0.56492036753E+03  0.00000000000E+00 0.  1.
          2    1    6    6  502    0 -0.60854490213E+02  0.16120863529E+02  0.24274080324E+02  0.67471343514E+02  0.00000000000E+00 0. -1.
         -1    1    6    6    0  502 -0.12896827453E+03  0.14352684329E+03  0.16617583812E+03  0.25465109416E+03  0.00000000000E+00 0.  1.
<mgrwt>
<rscale>  0 0.57559701E+03</rscale>
<asrwt>0</asrwt>
<pdfrwt beam="1">  1        1 0.30908199E+00 0.57559701E+03</pdfrwt>
<pdfrwt beam="2">  1       -2 0.98594157E-01 0.57559701E+03</pdfrwt>
<totfact> 0.23836644E+00</totfact>
</mgrwt>
</event>
<event>
12    3  0.1176505E-007  0.5997075E+03  0.7818608E-02  0.9906013E-01
         -2   -1    0    0    0  501 -0.00000000000E+00  0.00000000000E+00  0.17618395623E+04  0.17618395623E+04  0.00000000000E+00 0.  1.
          1   -1    0    0  501    0  0.00000000000E+00 -0.00000000000E+00 -0.31657452027E+03  0.31657452027E+03  0.00000000000E+00 0. -1.
        -24    2    1    2    0    0  0.15355802807E+03  0.46278344575E+03  0.67276546343E+02  0.49836558320E+03  0.78061099061E+02 0.  0.
    5000000    2    1    2    0    0 -0.15355802807E+03 -0.46278344575E+03  0.13779884957E+04  0.15800484993E+04  0.59996031575E+03 0.  0.
        -24    2    4    4    0    0 -0.43689746862E+02  0.10563542736E+03  0.91126541146E+02  0.16671328880E+03  0.80135115063E+02 0.  0.
         24    2    4    4    0    0 -0.10986828121E+03 -0.56841887311E+03  0.12868619545E+04  0.14133352105E+04  0.79571809570E+02 0.  0.
         13    1    5    5    0    0  0.11419706013E+01  0.56023977764E+02  0.81867726138E+02  0.99208440994E+02  0.00000000000E+00 0. -1.
        -14    1    5    5    0    0 -0.44831717464E+02  0.49611449599E+02  0.92588150084E+01  0.67504847807E+02  0.00000000000E+00 0.  1.
         15    1    3    3    0    0  0.82564569446E+02  0.14776940653E+03  0.41074694287E+01  0.16933025326E+03  0.17770000000E+01 0. -1.
        -16    1    3    3    0    0  0.70993458625E+02  0.31501403922E+03  0.63169076914E+02  0.32903532994E+03  0.00000000000E+00 0.  1.
          4    1    6    6  502    0 -0.83513860319E+02 -0.22686880453E+03  0.52205862540E+03  0.57531663255E+03  0.00000000000E+00 0. -1.
         -3    1    6    6    0  502 -0.26354420890E+02 -0.34155006858E+03  0.76480332911E+03  0.83801857799E+03  0.00000000000E+00 0.  1.
<mgrwt>
<rscale>  0 0.59970747E+03</rscale>
<asrwt>0</asrwt>
<pdfrwt beam="1">  1        1 0.48703773E-01 0.59970747E+03</pdfrwt>
<pdfrwt beam="2">  1       -2 0.27105224E+00 0.59970747E+03</pdfrwt>
<totfact> 0.36167701E+00</totfact>
</mgrwt>
</event>
<event>
12    3  0.1176505E-007  0.7726495E+03  0.7818608E-02  0.9600472E-01
          1   -1    0    0  501    0  0.00000000000E+00  0.00000000000E+00  0.91352843154E+03  0.91352843154E+03  0.00000000000E+00 0. -1.
         -2   -1    0    0    0  501 -0.00000000000E+00 -0.00000000000E+00 -0.89101138397E+03  0.89101138397E+03  0.00000000000E+00 0.  1.
        -24    2    1    2    0    0 -0.66253810655E+03  0.10484495668E+03 -0.42649532967E+03  0.79868072207E+03  0.77739449449E+02 0.  0.
    5000000    2    1    2    0    0  0.66253810655E+03 -0.10484495668E+03  0.44901237725E+03  0.10058590934E+04  0.60015930666E+03 0.  0.
        -24    2    4    4    0    0  0.16440231146E+03 -0.29462881447E+03  0.86921230238E+02  0.35649482828E+03  0.75491747852E+02 0.  0.
         24    2    4    4    0    0  0.49813579509E+03  0.18978385779E+03  0.36209114701E+03  0.64936426516E+03  0.80042283196E+02 0.  0.
         13    1    5    5    0    0  0.79531275830E+02 -0.10607814666E+03  0.10078283431E+01  0.13258511512E+03  0.00000000000E+00 0. -1.
        -14    1    5    5    0    0  0.84871035629E+02 -0.18855066781E+03  0.85913401895E+02  0.22390971316E+03  0.00000000000E+00 0.  1.
         15    1    3    3    0    0 -0.55595965792E+03  0.10482520146E+03 -0.38489574890E+03  0.68427140766E+03  0.17770000000E+01 0. -1.
        -16    1    3    3    0    0 -0.10657844863E+03  0.19755221919E-01 -0.41599580778E+02  0.11440931441E+03  0.00000000000E+00 0.  1.
          2    1    6    6  502    0  0.23204588809E+03  0.10129491851E+03  0.12608063675E+03  0.28284674588E+03  0.00000000000E+00 0. -1.
         -1    1    6    6    0  502  0.26608990700E+03  0.88488939285E+02  0.23601051027E+03  0.36651751928E+03  0.00000000000E+00 0.  1.
<mgrwt>
<rscale>  0 0.77264949E+03</rscale>
<asrwt>0</asrwt>
<pdfrwt beam="1">  1        1 0.14054284E+00 0.77264949E+03</pdfrwt>
<pdfrwt beam="2">  1       -2 0.13707867E+00 0.77264949E+03</pdfrwt>
<totfact> 0.60219264E+00</totfact>
</mgrwt>
</event>
<event>
12    3  0.1176505E-007  0.4521027E+03  0.7818608E-02  0.1027097E+00
         -2   -1    0    0    0  501 -0.00000000000E+00  0.00000000000E+00  0.14586594347E+03  0.14586594347E+03  0.00000000000E+00 0.  1.
          1   -1    0    0  501    0  0.00000000000E+00 -0.00000000000E+00 -0.17980945063E+04  0.17980945063E+04  0.00000000000E+00 0. -1.
        -24    2    1    2    0    0  0.28981217170E+03  0.15325929904E+03 -0.62177701018E+03  0.70735773613E+03  0.79175809820E+02 0.  0.
    5000000    2    1    2    0    0 -0.28981217170E+03 -0.15325929904E+03 -0.10304515526E+04  0.12366027136E+04  0.59989695899E+03 0.  0.
        -24    2    4    4    0    0 -0.63073758446E+02  0.15897873579E+03 -0.69243441144E+03  0.71739532270E+03  0.77059051673E+02 0.  0.
         24    2    4    4    0    0 -0.22673841325E+03 -0.31223803483E+03 -0.33801714117E+03  0.51920739090E+03  0.80111351270E+02 0.  0.
         11    1    5    5    0    0 -0.71546423469E+02  0.10857648576E+03 -0.57147439922E+03  0.58608082457E+03  0.00000000000E+00 0. -1.
        -12    1    5    5    0    0  0.84726650230E+01  0.50402250035E+02 -0.12096001222E+03  0.13131449813E+03  0.00000000000E+00 0.  1.
         15    1    3    3    0    0  0.19366166503E+03  0.62105948308E+02 -0.40733685742E+03  0.45528942713E+03  0.17770000000E+01 0. -1.
        -16    1    3    3    0    0  0.96150506673E+02  0.91153350734E+02 -0.21444015276E+03  0.25206830900E+03  0.00000000000E+00 0.  1.
          2    1    6    6  502    0 -0.16708075518E+03 -0.20487663343E+03 -0.27383493901E+03  0.38062578407E+03  0.00000000000E+00 0. -1.
         -1    1    6    6    0  502 -0.59657658070E+02 -0.10736140140E+03 -0.64182202162E+02  0.13858160683E+03  0.00000000000E+00 0.  1.
<mgrwt>
<rscale>  0 0.45210271E+03</rscale>
<asrwt>0</asrwt>
<pdfrwt beam="1">  1        1 0.27662993E+00 0.45210271E+03</pdfrwt>
<pdfrwt beam="2">  1       -2 0.22440914E-01 0.45210271E+03</pdfrwt>
<totfact> 0.66829159E+01</totfact>
</mgrwt>
</event>
<event>
12    3  0.1176505E-007  0.5572897E+03  0.7818608E-02  0.9998206E-01
         -2   -1    0    0    0  501 -0.00000000000E+00  0.00000000000E+00  0.32271696675E+03  0.32271696675E+03  0.00000000000E+00 0.  1.
          1   -1    0    0  501    0  0.00000000000E+00 -0.00000000000E+00 -0.13089992121E+04  0.13089992121E+04  0.00000000000E+00 0. -1.
        -24    2    1    2    0    0 -0.28436247387E+03  0.39112101144E+03 -0.58431300854E+03  0.76262815152E+03  0.79638831067E+02 0.  0.
    5000000    2    1    2    0    0  0.28436247387E+03 -0.39112101144E+03 -0.40196923683E+03  0.86908802735E+03  0.59991421869E+03 0.  0.
        -24    2    4    4    0    0  0.17393679795E+03 -0.44921507703E+03 -0.49446749097E+03  0.69462310555E+03  0.77168413350E+02 0.  0.
         24    2    4    4    0    0  0.11042567592E+03  0.58094065596E+02  0.92498254139E+02  0.17446492180E+03  0.79456475888E+02 0.  0.
         11    1    5    5    0    0  0.69889281833E+02 -0.27401779865E+03 -0.26216212395E+03  0.38561541064E+03  0.00000000000E+00 0. -1.
        -12    1    5    5    0    0  0.10404751612E+03 -0.17519727838E+03 -0.23230536702E+03  0.30900769491E+03  0.00000000000E+00 0.  1.
         15    1    3    3    0    0 -0.16699231796E+03  0.29126411376E+03 -0.41137865470E+03  0.53099602022E+03  0.17770000000E+01 0. -1.
        -16    1    3    3    0    0 -0.11737015591E+03  0.99856897676E+02 -0.17293435384E+03  0.23163213130E+03  0.00000000000E+00 0.  1.
          4    1    6    6  502    0 -0.51299424815E+01  0.13282735293E+02  0.35101584027E+02  0.37879659026E+02  0.00000000000E+00 0. -1.
         -3    1    6    6    0  502  0.11555561840E+03  0.44811330304E+02  0.57396670113E+02  0.13658526277E+03  0.00000000000E+00 0.  1.
<mgrwt>
<rscale>  0 0.55728967E+03</rscale>
<asrwt>0</asrwt>
<pdfrwt beam="1">  1        1 0.20138449E+00 0.55728967E+03</pdfrwt>
<pdfrwt beam="2">  1       -2 0.49648764E-01 0.55728967E+03</pdfrwt>
<totfact> 0.31554422E+01</totfact>
</mgrwt>
</event>
<event>
12    3  0.1176505E-007  0.7472974E+03  0.7818608E-02  0.9639600E-01
         -2   -1    0    0    0  501 -0.00000000000E+00  0.00000000000E+00  0.49229948751E+03  0.49229948751E+03  0.00000000000E+00 0.  1.
          1   -1    0    0  501    0  0.00000000000E+00 -0.00000000000E+00 -0.15645758125E+04  0.15645758125E+04  0.00000000000E+00 0. -1.
        -24    2    1    2    0    0  0.50318352797E+03 -0.50305392041E+03 -0.82772514991E+03  0.10945499801E+04  0.81570984651E+02 0.  0.
    5000000    2    1    2    0    0 -0.50318352797E+03  0.50305392041E+03 -0.24455117512E+03  0.96232531992E+03  0.60000652867E+03 0.  0.
        -24    2    4    4    0    0 -0.37006258604E+03  0.50526066799E+03  0.45974544302E+02  0.63292007917E+03  0.78990554435E+02 0.  0.
         24    2    4    4    0    0 -0.13312094193E+03 -0.22067475764E+01 -0.29052571942E+03  0.32940524075E+03  0.79853391121E+02 0.  0.
         13    1    5    5    0    0 -0.32981794086E+03  0.41477999170E+03  0.18922866722E+02  0.53026445337E+03  0.00000000000E+00 0. -1.
        -14    1    5    5    0    0 -0.40244645177E+02  0.90480676293E+02  0.27051677580E+02  0.10265562580E+03  0.00000000000E+00 0.  1.
         15    1    3    3    0    0  0.29122303109E+03 -0.29198831496E+03 -0.41737721632E+03  0.58674945961E+03  0.17770000000E+01 0. -1.
        -16    1    3    3    0    0  0.21196049688E+03 -0.21106560545E+03 -0.41034793359E+03  0.50780052052E+03  0.00000000000E+00 0.  1.
          2    1    6    6  502    0 -0.98904611123E+02  0.33729996063E+02 -0.17766797407E+03  0.20612070189E+03  0.00000000000E+00 0. -1.
         -1    1    6    6    0  502 -0.34216330807E+02 -0.35936743640E+02 -0.11285774535E+03  0.12328453886E+03  0.00000000000E+00 0.  1.
<mgrwt>
<rscale>  0 0.74729736E+03</rscale>
<asrwt>0</asrwt>
<pdfrwt beam="1">  1        1 0.24070397E+00 0.74729736E+03</pdfrwt>
<pdfrwt beam="2">  1       -2 0.75738382E-01 0.74729736E+03</pdfrwt>
<totfact> 0.83688464E+00</totfact>
</mgrwt>
</event>
<event>
12    3  0.1176505E-007  0.7728983E+03  0.7818608E-02  0.9600096E-01
          1   -1    0    0  501    0  0.00000000000E+00  0.00000000000E+00  0.11765619190E+04  0.11765619190E+04  0.00000000000E+00 0. -1.
         -2   -1    0    0    0  501 -0.00000000000E+00 -0.00000000000E+00 -0.69940625969E+03  0.69940625969E+03  0.00000000000E+00 0.  1.
        -24    2    1    2    0    0  0.50095520916E+03 -0.53292097390E+03  0.56244934970E+03  0.92609638602E+03  0.79651485944E+02 0.  0.
    5000000    2    1    2    0    0 -0.50095520916E+03  0.53292097390E+03 -0.85293690434E+02  0.94987179263E+03  0.60001710209E+03 0.  0.
        -24    2    4    4    0    0 -0.40093851235E+02 -0.17961496309E+02 -0.19812437325E+03  0.21833570816E+03  0.80542423147E+02 0.  0.
         24    2    4    4    0    0 -0.46086135792E+03  0.55088247021E+03  0.11283068282E+03  0.73153608447E+03  0.80929553828E+02 0.  0.
         13    1    5    5    0    0 -0.21289000471E+01 -0.42377224368E+02 -0.12882021200E+03  0.13562819906E+03  0.00000000000E+00 0. -1.
        -14    1    5    5    0    0 -0.37964951188E+02  0.24415728059E+02 -0.69304161253E+02  0.82707509105E+02  0.00000000000E+00 0.  1.
         15    1    3    3    0    0  0.34123498006E+03 -0.41305430351E+03  0.42059316563E+03  0.68114384529E+03  0.17770000000E+01 0. -1.
        -16    1    3    3    0    0  0.15972022909E+03 -0.11986667039E+03  0.14185618408E+03  0.24495254073E+03  0.00000000000E+00 0.  1.
          2    1    6    6  502    0 -0.26828551686E+03  0.25785804534E+03  0.61370192748E+02  0.37713948436E+03  0.00000000000E+00 0. -1.
         -1    1    6    6    0  502 -0.19257584106E+03  0.29302442487E+03  0.51460490068E+02  0.35439660011E+03  0.00000000000E+00 0.  1.
<mgrwt>
<rscale>  0 0.77289832E+03</rscale>
<asrwt>0</asrwt>
<pdfrwt beam="1">  1        1 0.18100953E+00 0.77289832E+03</pdfrwt>
<pdfrwt beam="2">  1       -2 0.10760096E+00 0.77289832E+03</pdfrwt>
<totfact> 0.69199212E+00</totfact>
</mgrwt>
</event>
<event>
12    3  0.1176505E-007  0.6171922E+03  0.7818608E-02  0.9870366E-01
         -4   -1    0    0    0  501 -0.00000000000E+00  0.00000000000E+00  0.25377736047E+03  0.25377736047E+03  0.00000000000E+00 0.  1.
          3   -1    0    0  501    0  0.00000000000E+00 -0.00000000000E+00 -0.16055631749E+04  0.16055631749E+04  0.00000000000E+00 0. -1.
        -24    2    1    2    0    0 -0.48187803542E+03  0.32697849271E+02 -0.67590092880E+03  0.83457724836E+03  0.80009546689E+02 0.  0.
    5000000    2    1    2    0    0  0.48187803542E+03 -0.32697849271E+02 -0.67588488560E+03  0.10247632870E+04  0.60003652004E+03 0.  0.
        -24    2    4    4    0    0 -0.30357495467E+02 -0.19522168767E+03 -0.10782026755E+03  0.23878579790E+03  0.79751879720E+02 0.  0.
         24    2    4    4    0    0  0.51223553089E+03  0.16252383840E+03 -0.56806461806E+03  0.78597748907E+03  0.79145220257E+02 0.  0.
         11    1    5    5    0    0 -0.39794123820E+02 -0.37382965729E+02 -0.33630941672E+02  0.64125647405E+02  0.00000000000E+00 0. -1.
        -12    1    5    5    0    0  0.94366283535E+01 -0.15783872194E+03 -0.74189325873E+02  0.17466015050E+03  0.00000000000E+00 0.  1.
         15    1    3    3    0    0 -0.22992078485E+03  0.30249193825E+00 -0.25859268339E+03  0.34603033456E+03  0.17770000000E+01 0. -1.
        -16    1    3    3    0    0 -0.25195725057E+03  0.32395357333E+02 -0.41730824542E+03  0.48854691380E+03  0.00000000000E+00 0.  1.
          2    1    6    6  502    0  0.30608480899E+03  0.87778041596E+02 -0.28054342549E+03  0.42437896798E+03  0.00000000000E+00 0. -1.
         -1    1    6    6    0  502  0.20615072189E+03  0.74745796801E+02 -0.28752119257E+03  0.36159852109E+03  0.00000000000E+00 0.  1.
<mgrwt>
<rscale>  0 0.61719218E+03</rscale>
<asrwt>0</asrwt>
<pdfrwt beam="1">  1        3 0.24700972E+00 0.61719218E+03</pdfrwt>
<pdfrwt beam="2">  1       -4 0.39042670E-01 0.61719218E+03</pdfrwt>
<totfact> 0.11362348E+00</totfact>
</mgrwt>
</event>
<event>
12    3  0.1176505E-007  0.1179643E+04  0.7818608E-02  0.9130864E-01
         -2   -1    0    0    0  501 -0.00000000000E+00  0.00000000000E+00  0.14502733197E+04  0.14502733197E+04  0.00000000000E+00 0.  1.
          1   -1    0    0  501    0  0.00000000000E+00 -0.00000000000E+00 -0.19205820524E+04  0.19205820524E+04  0.00000000000E+00 0. -1.
        -24    2    1    2    0    0  0.11717793372E+04 -0.23053190227E+02  0.89312967595E+03  0.14754521040E+04  0.75365962371E+02 0.  0.
    5000000    2    1    2    0    0 -0.11717793372E+04  0.23053190227E+02 -0.13634384086E+04  0.18954032681E+04  0.59999249160E+03 0.  0.
        -24    2    4    4    0    0 -0.37963793586E+03 -0.67814184431E+02 -0.86798286838E+03  0.95310450841E+03  0.79310895797E+02 0.  0.
         24    2    4    4    0    0 -0.79214140136E+03  0.90867374659E+02 -0.49545554021E+03  0.94229875969E+03  0.81889441704E+02 0.  0.
         11    1    5    5    0    0 -0.22436982198E+03 -0.31181968389E+02 -0.59859020238E+03  0.64001903297E+03  0.00000000000E+00 0. -1.
        -12    1    5    5    0    0 -0.15526811389E+03 -0.36632216042E+02 -0.26939266599E+03  0.31308547544E+03  0.00000000000E+00 0.  1.
         15    1    3    3    0    0  0.60156668415E+03  0.17293445667E+02  0.48800893555E+03  0.77481444078E+03  0.17770000000E+01 0. -1.
        -16    1    3    3    0    0  0.57021265308E+03 -0.40346635894E+02  0.40512074040E+03  0.70063766317E+03  0.00000000000E+00 0.  1.
          2    1    6    6  502    0 -0.31081831317E+03  0.66380430145E+02 -0.22763445793E+03  0.39093711993E+03  0.00000000000E+00 0. -1.
         -1    1    6    6    0  502 -0.48132308820E+03  0.24486944513E+02 -0.26782108228E+03  0.55136163976E+03  0.00000000000E+00 0.  1.
<mgrwt>
<rscale>  0 0.11796432E+04</rscale>
<asrwt>0</asrwt>
<pdfrwt beam="1">  1        1 0.29547416E+00 0.11796432E+04</pdfrwt>
<pdfrwt beam="2">  1       -2 0.22311897E+00 0.11796432E+04</pdfrwt>
<totfact> 0.27343344E-01</totfact>
</mgrwt>
</event>
<event>
12    3  0.1176505E-007  0.7976298E+03  0.7818608E-02  0.9563454E-01
         -2   -1    0    0    0  501 -0.00000000000E+00  0.00000000000E+00  0.87665096127E+03  0.87665096127E+03  0.00000000000E+00 0.  1.
          1   -1    0    0  501    0  0.00000000000E+00 -0.00000000000E+00 -0.12814471280E+04  0.12814471280E+04  0.00000000000E+00 0. -1.
        -24    2    1    2    0    0  0.68889699949E+03  0.25711855432E+03 -0.83550366197E+03  0.11158801447E+04  0.80206616774E+02 0.  0.
    5000000    2    1    2    0    0 -0.68889699949E+03 -0.25711855432E+03  0.43070749520E+03  0.10422179446E+04  0.60001689201E+03 0.  0.
        -24    2    4    4    0    0 -0.26002964208E+03  0.11253896904E+03 -0.45947069206E+02  0.29786928575E+03  0.79589848037E+02 0.  0.
         24    2    4    4    0    0 -0.42886735740E+03 -0.36965752335E+03  0.47665456441E+03  0.74434865883E+03  0.79255645290E+02 0.  0.
         13    1    5    5    0    0 -0.83065559507E+02  0.93777059393E+01 -0.40674379320E+02  0.92963614807E+02  0.00000000000E+00 0. -1.
        -14    1    5    5    0    0 -0.17696408258E+03  0.10316126310E+03 -0.52726898859E+01  0.20490567094E+03  0.00000000000E+00 0.  1.
         15    1    3    3    0    0  0.57092477710E+03  0.18307097078E+03 -0.65672086235E+03  0.88924435911E+03  0.17770000000E+01 0. -1.
        -16    1    3    3    0    0  0.11797222239E+03  0.74047583539E+02 -0.17878279962E+03  0.22663578562E+03  0.00000000000E+00 0.  1.
          2    1    6    6  502    0 -0.28692114944E+03 -0.21868459984E+03  0.26102429328E+03  0.44528685349E+03  0.00000000000E+00 0. -1.
         -1    1    6    6    0  502 -0.14194620796E+03 -0.15097292351E+03  0.21563027113E+03  0.29906180534E+03  0.00000000000E+00 0.  1.
<mgrwt>
<rscale>  0 0.79762975E+03</rscale>
<asrwt>0</asrwt>
<pdfrwt beam="1">  1        1 0.19714571E+00 0.79762975E+03</pdfrwt>
<pdfrwt beam="2">  1       -2 0.13486938E+00 0.79762975E+03</pdfrwt>
<totfact> 0.33093648E+00</totfact>
</mgrwt>
</event>
<event>
12    3  0.1176505E-007  0.5129969E+03  0.7818608E-02  0.1010441E+00
         -2   -1    0    0    0  501 -0.00000000000E+00  0.00000000000E+00  0.98203312889E+02  0.98203312889E+02  0.00000000000E+00 0.  1.
          1   -1    0    0  501    0  0.00000000000E+00 -0.00000000000E+00 -0.33992361594E+04  0.33992361594E+04  0.00000000000E+00 0. -1.
        -24    2    1    2    0    0  0.15184354282E+03 -0.31975810670E+03 -0.18833144320E+04  0.19179724607E+04  0.80270804285E+02 0.  0.
    5000000    2    1    2    0    0 -0.15184354282E+03  0.31975810670E+03 -0.14177184145E+04  0.15794670115E+04  0.59957387324E+03 0.  0.
        -24    2    4    4    0    0 -0.25987099293E+03 -0.63781287714E+02 -0.71179995686E+03  0.76484147839E+03  0.81989772834E+02 0.  0.
         24    2    4    4    0    0  0.10802745011E+03  0.38353939441E+03 -0.70591845761E+03  0.81462553314E+03  0.80755763870E+02 0.  0.
         13    1    5    5    0    0 -0.16180056574E+03 -0.58089354493E+02 -0.54270559207E+03  0.56928301911E+03  0.00000000000E+00 0. -1.
        -14    1    5    5    0    0 -0.98070427189E+02 -0.56919332207E+01 -0.16909436479E+03  0.19555845928E+03  0.00000000000E+00 0.  1.
         15    1    3    3    0    0  0.23437333230E+02 -0.20928153421E+02 -0.29664287352E+03  0.29830764042E+03  0.17770000000E+01 0. -1.
        -16    1    3    3    0    0  0.12840620959E+03 -0.29882995328E+03 -0.15866715585E+04  0.16196648203E+04  0.00000000000E+00 0.  1.
          4    1    6    6  502    0  0.82222168087E+02  0.25188654075E+03 -0.53787870234E+03  0.59960054433E+03  0.00000000000E+00 0. -1.
         -3    1    6    6    0  502  0.25805282021E+02  0.13165285366E+03 -0.16803975528E+03  0.21502498881E+03  0.00000000000E+00 0.  1.
<mgrwt>
<rscale>  0 0.51299686E+03</rscale>
<asrwt>0</asrwt>
<pdfrwt beam="1">  1        1 0.52295931E+00 0.51299686E+03</pdfrwt>
<pdfrwt beam="2">  1       -2 0.15108205E-01 0.51299686E+03</pdfrwt>
<totfact> 0.10259886E+01</totfact>
</mgrwt>
</event>
<event>
12    3  0.1176505E-007  0.3684785E+03  0.7818608E-02  0.1055276E+00
          1   -1    0    0  501    0  0.00000000000E+00  0.00000000000E+00  0.82465317194E+03  0.82465317194E+03  0.00000000000E+00 0. -1.
         -2   -1    0    0    0  501 -0.00000000000E+00 -0.00000000000E+00 -0.34483025804E+03  0.34483025804E+03  0.00000000000E+00 0.  1.
        -24    2    1    2    0    0 -0.29616233525E+03  0.19316225216E+03  0.88001048783E+02  0.37043334118E+03  0.66729987215E+02 0.  0.
    5000000    2    1    2    0    0  0.29616233525E+03 -0.19316225216E+03  0.39182186512E+03  0.79905008880E+03  0.59994406901E+03 0.  0.
        -24    2    4    4    0    0  0.69212159311E+02 -0.84311125228E+02 -0.14691879365E+03  0.19968572455E+03  0.79941027201E+02 0.  0.
         24    2    4    4    0    0  0.22695017594E+03 -0.10885112693E+03  0.53874065876E+03  0.59936436425E+03  0.75107879277E+02 0.  0.
         11    1    5    5    0    0  0.53895282664E+02 -0.17590847388E+02 -0.10524271829E+03  0.11954149555E+03  0.00000000000E+00 0. -1.
        -12    1    5    5    0    0  0.15316876647E+02 -0.66720277840E+02 -0.41676075355E+02  0.80144229001E+02  0.00000000000E+00 0.  1.
         15    1    3    3    0    0 -0.17081864327E+03  0.79430688777E+02  0.66683194174E+02  0.19984506329E+03  0.17770000000E+01 0. -1.
        -16    1    3    3    0    0 -0.12534369198E+03  0.11373156338E+03  0.21317854609E+02  0.17058827789E+03  0.00000000000E+00 0.  1.
          2    1    6    6  502    0  0.88932867309E+02 -0.23860468813E+02  0.12699050452E+03  0.15685969877E+03  0.00000000000E+00 0. -1.
         -1    1    6    6    0  502  0.13801730863E+03 -0.84990658119E+02  0.41175015424E+03  0.44250466547E+03  0.00000000000E+00 0.  1.
<mgrwt>
<rscale>  0 0.36847847E+03</rscale>
<asrwt>0</asrwt>
<pdfrwt beam="1">  1        1 0.12686972E+00 0.36847847E+03</pdfrwt>
<pdfrwt beam="2">  1       -2 0.53050809E-01 0.36847847E+03</pdfrwt>
<totfact> 0.65586868E+01</totfact>
</mgrwt>
</event>
<event>
12    3  0.1176505E-007  0.1151154E+04  0.7818608E-02  0.9156720E-01
         -2   -1    0    0    0  501 -0.00000000000E+00  0.00000000000E+00  0.79711253206E+03  0.79711253206E+03  0.00000000000E+00 0.  1.
          1   -1    0    0  501    0  0.00000000000E+00 -0.00000000000E+00 -0.18629019020E+04  0.18629019020E+04  0.00000000000E+00 0. -1.
        -24    2    1    2    0    0  0.11218840663E+04 -0.56097880246E+02 -0.26872268390E+03  0.11576884972E+04  0.79119816479E+02 0.  0.
    5000000    2    1    2    0    0 -0.11218840663E+04  0.56097880246E+02 -0.79706668609E+03  0.15023259369E+04  0.59991423421E+03 0.  0.
        -24    2    4    4    0    0 -0.44266091285E+02  0.46717281042E+02  0.59810246717E+02  0.12309687210E+03  0.86218229645E+02 0.  0.
         24    2    4    4    0    0 -0.10776179750E+04  0.93805992033E+01 -0.85687693281E+03  0.13792290648E+04  0.81769429879E+02 0.  0.
         13    1    5    5    0    0 -0.65395552513E+02  0.43011740096E+02  0.64160267766E+02  0.10120833975E+03  0.00000000000E+00 0. -1.
        -14    1    5    5    0    0  0.21129461228E+02  0.37055409458E+01 -0.43500210493E+01  0.21888532354E+02  0.00000000000E+00 0.  1.
         15    1    3    3    0    0  0.46206356612E+03  0.49138663320E+01 -0.13824386270E+03  0.48232914957E+03  0.17770000000E+01 0. -1.
        -16    1    3    3    0    0  0.65982050014E+03 -0.61011746578E+02 -0.13047882120E+03  0.67535934761E+03  0.00000000000E+00 0.  1.
          4    1    6    6  502    0 -0.74803770746E+03  0.15978685347E+02 -0.64048187661E+03  0.98490241366E+03  0.00000000000E+00 0. -1.
         -3    1    6    6    0  502 -0.32958026752E+03 -0.65980861432E+01 -0.21639505620E+03  0.39432665117E+03  0.00000000000E+00 0.  1.
<mgrwt>
<rscale>  0 0.11511538E+04</rscale>
<asrwt>0</asrwt>
<pdfrwt beam="1">  1        1 0.28660029E+00 0.11511538E+04</pdfrwt>
<pdfrwt beam="2">  1       -2 0.12263270E+00 0.11511538E+04</pdfrwt>
<totfact> 0.16044254E+00</totfact>
</mgrwt>
</event>
<event>
12    3  0.1176505E-007  0.2670599E+04  0.7818608E-02  0.8344608E-01
          1   -1    0    0  501    0  0.00000000000E+00  0.00000000000E+00  0.20284062014E+04  0.20284062014E+04  0.00000000000E+00 0. -1.
         -2   -1    0    0    0  501 -0.00000000000E+00 -0.00000000000E+00 -0.35817011610E+04  0.35817011610E+04  0.00000000000E+00 0.  1.
        -24    2    1    2    0    0  0.15056711622E+03 -0.26569148707E+04 -0.79526723179E+03  0.27787618865E+04  0.84856143202E+02 0.  0.
    5000000    2    1    2    0    0 -0.15056711622E+03  0.26569148707E+04 -0.75802772790E+03  0.28313454759E+04  0.60003673321E+03 0.  0.
        -24    2    4    4    0    0  0.92038818708E+02  0.10325959758E+04 -0.54285892657E+03  0.11730761883E+04  0.81770018764E+02 0.  0.
         24    2    4    4    0    0 -0.24260593493E+03  0.16243188949E+04 -0.21516880133E+03  0.16582692876E+04  0.79308923387E+02 0.  0.
         13    1    5    5    0    0  0.90579637413E+02  0.95336317323E+03 -0.47618634151E+03  0.10695136477E+04  0.00000000000E+00 0. -1.
        -14    1    5    5    0    0  0.14591812954E+01  0.79232802607E+02 -0.66672585059E+02  0.10356254061E+03  0.00000000000E+00 0.  1.
         15    1    3    3    0    0  0.61797420703E+02 -0.16213017970E+04 -0.45497817886E+03  0.16850657966E+04  0.17770000000E+01 0. -1.
        -16    1    3    3    0    0  0.88769695521E+02 -0.10356130737E+04 -0.34028905294E+03  0.10936960898E+04  0.00000000000E+00 0.  1.
          2    1    6    6  502    0 -0.23248711810E+03  0.15334802489E+04 -0.22106629233E+03  0.15666787288E+04  0.00000000000E+00 0. -1.
         -1    1    6    6    0  502 -0.10118816834E+02  0.90838646008E+02  0.58974910019E+01  0.91590558808E+02  0.00000000000E+00 0.  1.
<mgrwt>
<rscale>  0 0.26705988E+04</rscale>
<asrwt>0</asrwt>
<pdfrwt beam="1">  1        1 0.31206250E+00 0.26705988E+04</pdfrwt>
<pdfrwt beam="2">  1       -2 0.55103094E+00 0.26705988E+04</pdfrwt>
<totfact> 0.17191142E-03</totfact>
</mgrwt>
</event>
<event>
12    3  0.1176505E-007  0.1358638E+04  0.7818608E-02  0.8984315E-01
         -4   -1    0    0    0  501 -0.00000000000E+00  0.00000000000E+00  0.12685613567E+04  0.12685613567E+04  0.00000000000E+00 0.  1.
          3   -1    0    0  501    0  0.00000000000E+00 -0.00000000000E+00 -0.26994095529E+04  0.26994095529E+04  0.00000000000E+00 0. -1.
        -24    2    1    2    0    0 -0.13308324165E+04  0.13966446935E+03  0.59534275530E+03  0.14667689201E+04  0.79730695267E+02 0.  0.
    5000000    2    1    2    0    0  0.13308324165E+04 -0.13966446935E+03 -0.20261909516E+04  0.25012019895E+04  0.59995044406E+03 0.  0.
        -24    2    4    4    0    0  0.92998583205E+02  0.56800414929E+02 -0.53168237891E+03  0.54863633329E+03  0.80253663806E+02 0.  0.
         24    2    4    4    0    0  0.12378338333E+04 -0.19646488428E+03 -0.14945085727E+04  0.19525656562E+04  0.90142767336E+02 0.  0.
         11    1    5    5    0    0  0.99499742129E+02  0.52022509916E+02 -0.52793146574E+03  0.53973898575E+03  0.00000000000E+00 0. -1.
        -12    1    5    5    0    0 -0.65011589235E+01  0.47779050132E+01 -0.37509131653E+01  0.88973475395E+01  0.00000000000E+00 0.  1.
         15    1    3    3    0    0 -0.57075538600E+03  0.98616874057E+02  0.24777538489E+03  0.62998634714E+03  0.17770000000E+01 0. -1.
        -16    1    3    3    0    0 -0.76007703050E+03  0.41047595292E+02  0.34756737041E+03  0.83678257292E+03  0.00000000000E+00 0.  1.
          2    1    6    6  502    0  0.13563902442E+03 -0.50395919579E+02 -0.17680258649E+03  0.22846629564E+03  0.00000000000E+00 0. -1.
         -1    1    6    6    0  502  0.11021948089E+04 -0.14606896470E+03 -0.13177059862E+04  0.17240993606E+04  0.00000000000E+00 0.  1.
<mgrwt>
<rscale>  0 0.13586384E+04</rscale>
<asrwt>0</asrwt>
<pdfrwt beam="1">  1        3 0.41529378E+00 0.13586384E+04</pdfrwt>
<pdfrwt beam="2">  1       -4 0.19516329E+00 0.13586384E+04</pdfrwt>
<totfact> 0.27792221E-03</totfact>
</mgrwt>
</event>
<event>
12    3  0.1176505E-007  0.1305193E+04  0.7818608E-02  0.9025458E-01
         -2   -1    0    0    0  501 -0.00000000000E+00  0.00000000000E+00  0.11209485675E+04  0.11209485675E+04  0.00000000000E+00 0.  1.
          1   -1    0    0  501    0  0.00000000000E+00 -0.00000000000E+00 -0.17602251433E+04  0.17602251433E+04  0.00000000000E+00 0. -1.
        -24    2    1    2    0    0 -0.10692504087E+04  0.62381976045E+03  0.21939928318E+03  0.12597447525E+04  0.79832736501E+02 0.  0.
    5000000    2    1    2    0    0  0.10692504087E+04 -0.62381976045E+03 -0.85867585898E+03  0.16214289583E+04  0.59938310449E+03 0.  0.
        -24    2    4    4    0    0  0.80630725515E+03 -0.14475895794E+03 -0.50667302694E+03  0.96658392517E+03  0.80500823255E+02 0.  0.
         24    2    4    4    0    0  0.26294315356E+03 -0.47906080251E+03 -0.35200283204E+03  0.65484503313E+03  0.79231743314E+02 0.  0.
         11    1    5    5    0    0  0.87541726815E+02 -0.30480698825E+02 -0.33832919059E+02  0.98677724673E+02  0.00000000000E+00 0. -1.
        -12    1    5    5    0    0  0.71876552834E+03 -0.11427825912E+03 -0.47284010788E+03  0.86790620049E+03  0.00000000000E+00 0.  1.
         15    1    3    3    0    0 -0.98152742060E+03  0.57820358029E+03  0.17999150222E+03  0.11533063584E+04  0.17770000000E+01 0. -1.
        -16    1    3    3    0    0 -0.87722988113E+02  0.45616180161E+02  0.39407780959E+02  0.10643839409E+03  0.00000000000E+00 0.  1.
          2    1    6    6  502    0  0.78328977104E+02 -0.79031658259E+02 -0.80408470584E+02  0.13728420813E+03  0.00000000000E+00 0. -1.
         -1    1    6    6    0  502  0.18461417646E+03 -0.40002914425E+03 -0.27159436145E+03  0.51756082500E+03  0.00000000000E+00 0.  1.
<mgrwt>
<rscale>  0 0.13051926E+04</rscale>
<asrwt>0</asrwt>
<pdfrwt beam="1">  1        1 0.27080387E+00 0.13051926E+04</pdfrwt>
<pdfrwt beam="2">  1       -2 0.17245363E+00 0.13051926E+04</pdfrwt>
<totfact> 0.75034187E-01</totfact>
</mgrwt>
</event>
<event>
12    3  0.1176505E-007  0.7019228E+03  0.7818608E-02  0.9713950E-01
          1   -1    0    0  501    0  0.00000000000E+00  0.00000000000E+00  0.21077018992E+04  0.21077018992E+04  0.00000000000E+00 0. -1.
         -2   -1    0    0    0  501 -0.00000000000E+00 -0.00000000000E+00 -0.35882442938E+03  0.35882442938E+03  0.00000000000E+00 0.  1.
        -24    2    1    2    0    0  0.52803432924E+03  0.22868005512E+03  0.14846440822E+04  0.15941427392E+04  0.77512590619E+02 0.  0.
    5000000    2    1    2    0    0 -0.52803432924E+03 -0.22868005512E+03  0.26423338758E+03  0.87238358932E+03  0.60009917792E+03 0.  0.
        -24    2    4    4    0    0  0.66813365807E+02 -0.20912834826E+03  0.41914899046E+02  0.23200163652E+03  0.62202963681E+02 0.  0.
         24    2    4    4    0    0 -0.59484769505E+03 -0.19551706857E+02  0.22231848853E+03  0.64038195280E+03  0.80233942812E+02 0.  0.
         11    1    5    5    0    0  0.25243421555E+02 -0.16513883155E+03  0.38168762792E+02  0.17136195164E+03  0.00000000000E+00 0. -1.
        -12    1    5    5    0    0  0.41569944252E+02 -0.43989516709E+02  0.37461362538E+01  0.60639684880E+02  0.00000000000E+00 0.  1.
         15    1    3    3    0    0  0.30911554102E+03  0.17498783261E+03  0.91075695541E+03  0.97757585323E+03  0.17770000000E+01 0. -1.
        -16    1    3    3    0    0  0.21891878822E+03  0.53692222507E+02  0.57388712680E+03  0.61656688599E+03  0.00000000000E+00 0.  1.
          4    1    6    6  502    0 -0.51185425191E+03 -0.85543775501E+01  0.21841356262E+03  0.55657204108E+03  0.00000000000E+00 0. -1.
         -3    1    6    6    0  502 -0.82993443140E+02 -0.10997329307E+02  0.39049259119E+01  0.83809911720E+02  0.00000000000E+00 0.  1.
<mgrwt>
<rscale>  0 0.70192278E+03</rscale>
<asrwt>0</asrwt>
<pdfrwt beam="1">  1        1 0.32426182E+00 0.70192278E+03</pdfrwt>
<pdfrwt beam="2">  1       -2 0.55203760E-01 0.70192278E+03</pdfrwt>
<totfact> 0.71813689E+00</totfact>
</mgrwt>
</event>
<event>
12    3  0.1176505E-007  0.8952645E+03  0.7818608E-02  0.9431520E-01
         -2   -1    0    0    0  501 -0.00000000000E+00  0.00000000000E+00  0.10098554607E+04  0.10098554607E+04  0.00000000000E+00 0.  1.
          1   -1    0    0  501    0  0.00000000000E+00 -0.00000000000E+00 -0.84722818396E+03  0.84722818396E+03  0.00000000000E+00 0. -1.
        -24    2    1    2    0    0 -0.69109553898E+02 -0.82071669684E+03  0.36315892067E+02  0.83029281864E+03  0.98566189728E+02 0.  0.
    5000000    2    1    2    0    0  0.69109553898E+02  0.82071669684E+03  0.12631138471E+03  0.10267908261E+04  0.59999400636E+03 0.  0.
        -24    2    4    4    0    0  0.21668192180E+03  0.74072825304E+03 -0.41147213714E+02  0.77670488330E+03  0.77123164162E+02 0.  0.
         24    2    4    4    0    0 -0.14757236790E+03  0.79988443796E+02  0.16745859843E+03  0.25008594277E+03  0.79528873202E+02 0.  0.
         11    1    5    5    0    0  0.16395578810E+03  0.64993166073E+03 -0.27857449218E+02  0.67087159840E+03  0.00000000000E+00 0. -1.
        -12    1    5    5    0    0  0.52726133700E+02  0.90796592316E+02 -0.13289764496E+02  0.10583328489E+03  0.00000000000E+00 0.  1.
         15    1    3    3    0    0  0.19177580898E+02 -0.35279134109E+03  0.15235040931E+02  0.35364498322E+03  0.17770000000E+01 0. -1.
        -16    1    3    3    0    0 -0.88287134796E+02 -0.46792535576E+03  0.21080851136E+02  0.47664783542E+03  0.00000000000E+00 0.  1.
          4    1    6    6  502    0 -0.73861608035E+02  0.84083791843E+02  0.10130258071E+03  0.15095639785E+03  0.00000000000E+00 0. -1.
         -3    1    6    6    0  502 -0.73710759868E+02 -0.40953480464E+01  0.66156017717E+02  0.99129544920E+02  0.00000000000E+00 0.  1.
<mgrwt>
<rscale>  0 0.89526449E+03</rscale>
<asrwt>0</asrwt>
<pdfrwt beam="1">  1        1 0.13034280E+00 0.89526449E+03</pdfrwt>
<pdfrwt beam="2">  1       -2 0.15536238E+00 0.89526449E+03</pdfrwt>
<totfact> 0.48461467E+00</totfact>
</mgrwt>
</event>
<event>
12    3  0.1176505E-007  0.9944465E+03  0.7818608E-02  0.9314657E-01
         -2   -1    0    0    0  501 -0.00000000000E+00  0.00000000000E+00  0.14038455345E+04  0.14038455345E+04  0.00000000000E+00 0.  1.
          1   -1    0    0  501    0  0.00000000000E+00 -0.00000000000E+00 -0.77368985971E+03  0.77368985971E+03  0.00000000000E+00 0. -1.
        -24    2    1    2    0    0 -0.23940121470E+03  0.88844903325E+03  0.26848684147E+02  0.92427330266E+03  0.83100300055E+02 0.  0.
    5000000    2    1    2    0    0  0.23940121470E+03 -0.88844903325E+03  0.60330699062E+03  0.12532620915E+04  0.60002659843E+03 0.  0.
        -24    2    4    4    0    0  0.19218042439E+03 -0.40049956638E+02  0.25063842769E+03  0.32845912907E+03  0.80798907720E+02 0.  0.
         24    2    4    4    0    0  0.47220790307E+02 -0.84839907662E+03  0.35266856293E+03  0.92480296245E+03  0.94205136999E+02 0.  0.
         11    1    5    5    0    0  0.26944800207E+02 -0.36067818373E+02  0.36536757858E+02  0.57981414739E+02  0.00000000000E+00 0. -1.
        -12    1    5    5    0    0  0.16523562419E+03 -0.39821382652E+01  0.21410166984E+03  0.27047771434E+03  0.00000000000E+00 0.  1.
         15    1    3    3    0    0 -0.18347991295E+03  0.78508026257E+03  0.18466560741E+02  0.80644904906E+03  0.17770000000E+01 0. -1.
        -16    1    3    3    0    0 -0.55921301757E+02  0.10336877068E+03  0.83821234063E+01  0.11782425360E+03  0.00000000000E+00 0.  1.
          2    1    6    6  502    0  0.74860335483E+02 -0.53546412375E+03  0.21645790217E+03  0.58239155305E+03  0.00000000000E+00 0. -1.
         -3    1    6    6    0  502 -0.27639545176E+02 -0.31293495287E+03  0.13621066076E+03  0.34241140940E+03  0.00000000000E+00 0.  1.
<mgrwt>
<rscale>  0 0.99444652E+03</rscale>
<asrwt>0</asrwt>
<pdfrwt beam="1">  1        1 0.11902921E+00 0.99444652E+03</pdfrwt>
<pdfrwt beam="2">  1       -2 0.21597624E+00 0.99444652E+03</pdfrwt>
<totfact> 0.21399288E+00</totfact>
</mgrwt>
</event>
<event>
12    3  0.1176505E-007  0.1134268E+04  0.7818608E-02  0.9172421E-01
         -2   -1    0    0    0  501 -0.00000000000E+00  0.00000000000E+00  0.14655160595E+04  0.14655160595E+04  0.00000000000E+00 0.  1.
          1   -1    0    0  501    0  0.00000000000E+00 -0.00000000000E+00 -0.99293681172E+03  0.99293681172E+03  0.00000000000E+00 0. -1.
        -24    2    1    2    0    0  0.58179827564E+02 -0.10942983309E+04  0.50330820957E+03  0.12084457626E+04  0.78410956056E+02 0.  0.
    5000000    2    1    2    0    0 -0.58179827564E+02  0.10942983309E+04 -0.30728961830E+02  0.12500071086E+04  0.60058286125E+03 0.  0.
        -24    2    4    4    0    0 -0.19558694339E+03  0.31070651373E+03  0.18946813540E+03  0.42044242670E+03  0.77979931669E+02 0.  0.
         24    2    4    4    0    0  0.13740711582E+03  0.78359181712E+03 -0.22019709723E+03  0.82956468190E+03  0.82425411703E+02 0.  0.
         11    1    5    5    0    0 -0.13089866727E+03  0.14662541635E+03  0.12352147896E+03  0.23214441535E+03  0.00000000000E+00 0. -1.
        -12    1    5    5    0    0 -0.64688276114E+02  0.16408109738E+03  0.65946656434E+02  0.18829801135E+03  0.00000000000E+00 0.  1.
         15    1    3    3    0    0  0.26137186449E+02 -0.69458665897E+03  0.35866469039E+03  0.78216193797E+03  0.17770000000E+01 0. -1.
        -16    1    3    3    0    0  0.32042641114E+02 -0.39971167188E+03  0.14464351918E+03  0.42628382461E+03  0.00000000000E+00 0.  1.
          4    1    6    6  502    0  0.13743145651E+03  0.58437381945E+03 -0.15593540541E+03  0.62023867725E+03  0.00000000000E+00 0. -1.
         -3    1    6    6    0  502 -0.24340684388E-01  0.19921799767E+03 -0.64261691817E+02  0.20932600465E+03  0.00000000000E+00 0.  1.
<mgrwt>
<rscale>  0 0.11342677E+04</rscale>
<asrwt>0</asrwt>
<pdfrwt beam="1">  1        1 0.15275951E+00 0.11342677E+04</pdfrwt>
<pdfrwt beam="2">  1       -2 0.22546401E+00 0.11342677E+04</pdfrwt>
<totfact> 0.12056141E+00</totfact>
</mgrwt>
</event>
<event>
12    3  0.1176505E-007  0.5785867E+03  0.7818608E-02  0.9950855E-01
          1   -1    0    0  501    0  0.00000000000E+00  0.00000000000E+00  0.52160917310E+03  0.52160917310E+03  0.00000000000E+00 0. -1.
         -2   -1    0    0    0  501 -0.00000000000E+00 -0.00000000000E+00 -0.92289272765E+03  0.92289272765E+03  0.00000000000E+00 0.  1.
        -24    2    1    2    0    0 -0.55088166985E+02  0.52459863902E+03 -0.36226650400E+03  0.64489644900E+03  0.80099761627E+02 0.  0.
    5000000    2    1    2    0    0  0.55088166985E+02 -0.52459863902E+03 -0.39017050555E+02  0.79960545174E+03  0.59967333609E+03 0.  0.
        -24    2    4    4    0    0 -0.10741946143E+03 -0.60165786119E+02  0.19893798544E+03  0.24694938512E+03  0.79049441778E+02 0.  0.
         24    2    4    4    0    0  0.16250762842E+03 -0.46443285290E+03 -0.23795503599E+03  0.55265606663E+03  0.81850624161E+02 0.  0.
         13    1    5    5    0    0  0.13092653281E+01 -0.10921319222E+02  0.71507181565E+02  0.72348230142E+02  0.00000000000E+00 0. -1.
        -14    1    5    5    0    0 -0.10872872676E+03 -0.49244466896E+02  0.12743080387E+03  0.17460115497E+03  0.00000000000E+00 0.  1.
         15    1    3    3    0    0 -0.45872018403E+02  0.49354440592E+03 -0.35963341818E+03  0.61239666548E+03  0.17770000000E+01 0. -1.
        -16    1    3    3    0    0 -0.92161485821E+01  0.31054233101E+02 -0.26330858162E+01  0.32499783524E+02  0.00000000000E+00 0.  1.
          2    1    6    6  502    0  0.84759059200E+02 -0.12852233574E+03 -0.69535590846E+02  0.16892982950E+03  0.00000000000E+00 0. -1.
         -1    1    6    6    0  502  0.77748569216E+02 -0.33591051716E+03 -0.16841944515E+03  0.38372623713E+03  0.00000000000E+00 0.  1.
<mgrwt>
<rscale>  0 0.57858675E+03</rscale>
<asrwt>0</asrwt>
<pdfrwt beam="1">  1        1 0.80247567E-01 0.57858675E+03</pdfrwt>
<pdfrwt beam="2">  1       -2 0.14198349E+00 0.57858675E+03</pdfrwt>
<totfact> 0.13150745E+01</totfact>
</mgrwt>
</event>
<event>
12    3  0.1176505E-007  0.1073741E+04  0.7818608E-02  0.9231170E-01
          1   -1    0    0  501    0  0.00000000000E+00  0.00000000000E+00  0.18721407572E+04  0.18721407572E+04  0.00000000000E+00 0. -1.
         -2   -1    0    0    0  501 -0.00000000000E+00 -0.00000000000E+00 -0.69774604625E+03  0.69774604625E+03  0.00000000000E+00 0.  1.
        -24    2    1    2    0    0  0.59820759282E+03 -0.79201662201E+03  0.97419405809E+03  0.13930639392E+04  0.80189913677E+02 0.  0.
    5000000    2    1    2    0    0 -0.59820759282E+03  0.79201662201E+03  0.20020065286E+03  0.11768228642E+04  0.59974085968E+03 0.  0.
        -24    2    4    4    0    0  0.85342456930E+02  0.27673313769E+03  0.30373793977E+02  0.30042889725E+03  0.73962088222E+02 0.  0.
         24    2    4    4    0    0 -0.68355004975E+03  0.51528348432E+03  0.16982685888E+03  0.87639396699E+03  0.80420666909E+02 0.  0.
         11    1    5    5    0    0 -0.72192530923E+01  0.85884311423E+02  0.17368832900E+02  0.87919900592E+02  0.00000000000E+00 0. -1.
        -12    1    5    5    0    0  0.92561710022E+02  0.19084882627E+03  0.13004961077E+02  0.21250899666E+03  0.00000000000E+00 0.  1.
         15    1    3    3    0    0  0.32150819140E+03 -0.42039515073E+03  0.57500807512E+03  0.78149666927E+03  0.17770000000E+01 0. -1.
        -16    1    3    3    0    0  0.27669940142E+03 -0.37162147128E+03  0.39918598298E+03  0.61156726994E+03  0.00000000000E+00 0.  1.
          4    1    6    6  502    0 -0.34875804590E+03  0.28302888572E+03  0.51495780432E+02  0.45209439295E+03  0.00000000000E+00 0. -1.
         -3    1    6    6    0  502 -0.33479200384E+03  0.23225459860E+03  0.11833107845E+03  0.42429957405E+03  0.00000000000E+00 0.  1.
<mgrwt>
<rscale>  0 0.10737410E+04</rscale>
<asrwt>0</asrwt>
<pdfrwt beam="1">  1        1 0.28802165E+00 0.10737410E+04</pdfrwt>
<pdfrwt beam="2">  1       -2 0.10734555E+00 0.10737410E+04</pdfrwt>
<totfact> 0.22146105E+00</totfact>
</mgrwt>
</event>
<event>
12    3  0.1176505E-007  0.7660202E+03  0.7818608E-02  0.9610547E-01
          1   -1    0    0  501    0  0.00000000000E+00  0.00000000000E+00  0.28338409050E+04  0.28338409050E+04  0.00000000000E+00 0. -1.
         -2   -1    0    0    0  501 -0.00000000000E+00 -0.00000000000E+00 -0.27359804627E+03  0.27359804627E+03  0.00000000000E+00 0.  1.
        -24    2    1    2    0    0  0.31442326166E+03  0.62002349900E+03  0.17431214766E+04  0.18782701976E+04  0.78328322727E+02 0.  0.
    5000000    2    1    2    0    0 -0.31442326166E+03 -0.62002349900E+03  0.81712138213E+03  0.12291687537E+04  0.59989777892E+03 0.  0.
        -24    2    4    4    0    0 -0.43213953531E+03 -0.45375050874E+03  0.79199346463E+03  0.10129880876E+04  0.79101930884E+02 0.  0.
         24    2    4    4    0    0  0.11771627365E+03 -0.16627299026E+03  0.25127917499E+02  0.21618066609E+03  0.67814746039E+02 0.  0.
         13    1    5    5    0    0 -0.23077853588E+03 -0.29216597541E+03  0.43826686394E+03  0.57506306944E+03  0.00000000000E+00 0. -1.
        -14    1    5    5    0    0 -0.20136099943E+03 -0.16158453333E+03  0.35372660069E+03  0.43792501817E+03  0.00000000000E+00 0.  1.
         15    1    3    3    0    0  0.18723357204E+03  0.31392515332E+03  0.99452360471E+03  0.10595686719E+04  0.17770000000E+01 0. -1.
        -16    1    3    3    0    0  0.12718968962E+03  0.30609834568E+03  0.74859787187E+03  0.81870152568E+03  0.00000000000E+00 0.  1.
          4    1    6    6  502    0  0.19741790851E+02 -0.41073536769E+02 -0.21665318803E+02  0.50459486398E+02  0.00000000000E+00 0. -1.
         -3    1    6    6    0  502  0.97974482798E+02 -0.12519945349E+03  0.46793236302E+02  0.16572117969E+03  0.00000000000E+00 0.  1.
<mgrwt>
<rscale>  0 0.76602024E+03</rscale>
<asrwt>0</asrwt>
<pdfrwt beam="1">  1        1 0.43597550E+00 0.76602024E+03</pdfrwt>
<pdfrwt beam="2">  1       -2 0.42092009E-01 0.76602024E+03</pdfrwt>
<totfact> 0.39239989E+00</totfact>
</mgrwt>
</event>
<event>
12    3  0.1176505E-007  0.5948350E+03  0.7818608E-02  0.9916180E-01
         -4   -1    0    0    0  501 -0.00000000000E+00  0.00000000000E+00  0.15366376837E+03  0.15366376837E+03  0.00000000000E+00 0.  1.
          3   -1    0    0  501    0  0.00000000000E+00 -0.00000000000E+00 -0.27664255648E+04  0.27664255648E+04  0.00000000000E+00 0. -1.
        -24    2    1    2    0    0 -0.13188869160E+03 -0.45107246687E+03 -0.58957436652E+03  0.75809049710E+03  0.79008042664E+02 0.  0.
    5000000    2    1    2    0    0  0.13188869160E+03  0.45107246687E+03 -0.20231874299E+04  0.21619988361E+04  0.60007548961E+03 0.  0.
        -24    2    4    4    0    0 -0.19308987063E+03  0.84789859433E+02 -0.34357079646E+03  0.41077399343E+03  0.78875617875E+02 0.  0.
         24    2    4    4    0    0  0.32497856223E+03  0.36628260743E+03 -0.16796166335E+04  0.17512248426E+04  0.76827076358E+02 0.  0.
         13    1    5    5    0    0 -0.94118938036E+02  0.82893085774E+02 -0.17527988532E+03  0.21552882954E+03  0.00000000000E+00 0. -1.
        -14    1    5    5    0    0 -0.98970932594E+02  0.18967736589E+01 -0.16829091115E+03  0.19524516389E+03  0.00000000000E+00 0.  1.
         15    1    3    3    0    0 -0.42208521056E+02 -0.27140311237E+03 -0.31523996490E+03  0.41811553649E+03  0.17770000000E+01 0. -1.
        -16    1    3    3    0    0 -0.89680170540E+02 -0.17966935450E+03 -0.27433440162E+03  0.33997496061E+03  0.00000000000E+00 0.  1.
          2    1    6    6  502    0  0.49411972102E+02  0.61622094368E+02 -0.18443195550E+03  0.20063392462E+03  0.00000000000E+00 0. -1.
         -1    1    6    6    0  502  0.27556659012E+03  0.30466051307E+03 -0.14951846780E+04  0.15505909180E+04  0.00000000000E+00 0.  1.
<mgrwt>
<rscale>  0 0.59483497E+03</rscale>
<asrwt>0</asrwt>
<pdfrwt beam="1">  1        3 0.42560392E+00 0.59483497E+03</pdfrwt>
<pdfrwt beam="2">  1       -4 0.23640580E-01 0.59483497E+03</pdfrwt>
<totfact> 0.33265936E-01</totfact>
</mgrwt>
</event>
<event>
12    3  0.1176505E-007  0.9196433E+03  0.7818608E-02  0.9401354E-01
         -2   -1    0    0    0  501 -0.00000000000E+00  0.00000000000E+00  0.14841565431E+04  0.14841565431E+04  0.00000000000E+00 0.  1.
          1   -1    0    0  501    0  0.00000000000E+00 -0.00000000000E+00 -0.70513242156E+03  0.70513242156E+03  0.00000000000E+00 0. -1.
        -24    2    1    2    0    0 -0.32236011879E+03 -0.84866642841E+03  0.12524392379E+03  0.91984454172E+03  0.79228704384E+02 0.  0.
    5000000    2    1    2    0    0  0.32236011879E+03  0.84866642841E+03  0.65378019780E+03  0.12694444230E+04  0.59992486456E+03 0.  0.
        -24    2    4    4    0    0  0.13503946065E+03  0.21758498123E+03  0.53021492546E+03  0.59497453723E+03  0.85369507323E+02 0.  0.
         24    2    4    4    0    0  0.18732065814E+03  0.63108144718E+03  0.12356527233E+03  0.67446988575E+03  0.79299611063E+02 0.  0.
         11    1    5    5    0    0  0.10809413256E+03  0.21286706872E+03  0.43864366821E+03  0.49940464365E+03  0.00000000000E+00 0. -1.
        -12    1    5    5    0    0  0.26945328086E+02  0.47179125122E+01  0.91571257254E+02  0.95569893582E+02  0.00000000000E+00 0.  1.
         15    1    3    3    0    0 -0.17720548769E+03 -0.36785018192E+03  0.74316957298E+02  0.41502013093E+03  0.17770000000E+01 0. -1.
        -16    1    3    3    0    0 -0.14515463110E+03 -0.48081624649E+03  0.50926966496E+02  0.50482441079E+03  0.00000000000E+00 0.  1.
          4    1    6    6  502    0  0.95444114190E+02  0.44478555354E+03  0.73610606372E+02  0.46082783005E+03  0.00000000000E+00 0. -1.
         -3    1    6    6    0  502  0.91876543947E+02  0.18629589364E+03  0.49954665959E+02  0.21364205570E+03  0.00000000000E+00 0.  1.
<mgrwt>
<rscale>  0 0.91964330E+03</rscale>
<asrwt>0</asrwt>
<pdfrwt beam="1">  1        1 0.10848191E+00 0.91964330E+03</pdfrwt>
<pdfrwt beam="2">  1       -2 0.22833178E+00 0.91964330E+03</pdfrwt>
<totfact> 0.20859762E+00</totfact>
</mgrwt>
</event>
<event>
12    3  0.1176505E-007  0.1190413E+04  0.7818608E-02  0.9121290E-01
          1   -1    0    0  501    0  0.00000000000E+00  0.00000000000E+00  0.57201510772E+03  0.57201510772E+03  0.00000000000E+00 0. -1.
         -2   -1    0    0    0  501 -0.00000000000E+00 -0.00000000000E+00 -0.37130305663E+04  0.37130305663E+04  0.00000000000E+00 0.  1.
        -24    2    1    2    0    0  0.95379224150E+03  0.68080993319E+03 -0.26169944908E+04  0.28683335101E+04  0.73859020106E+02 0.  0.
    5000000    2    1    2    0    0 -0.95379224150E+03 -0.68080993319E+03 -0.52402096778E+03  0.14167121640E+04  0.59937765711E+03 0.  0.
        -24    2    4    4    0    0 -0.32584864092E+02  0.30162535494E+02 -0.17812948797E+03  0.20032287801E+03  0.80172246177E+02 0.  0.
         24    2    4    4    0    0 -0.92120737740E+03 -0.71097246869E+03 -0.34589147981E+03  0.12163892860E+04  0.76531665431E+02 0.  0.
         13    1    5    5    0    0 -0.57340962633E+01  0.79315556918E+01  0.69405916795E+01  0.11998385246E+02  0.00000000000E+00 0. -1.
        -14    1    5    5    0    0 -0.26850767828E+02  0.22230979802E+02 -0.18507007964E+03  0.18832449277E+03  0.00000000000E+00 0.  1.
         15    1    3    3    0    0  0.63722470108E+03  0.47754642445E+03 -0.18470807750E+04  0.20114215009E+04  0.17770000000E+01 0. -1.
        -16    1    3    3    0    0  0.31656754041E+03  0.20326350874E+03 -0.76991371586E+03  0.85691200920E+03  0.00000000000E+00 0.  1.
          4    1    6    6  502    0 -0.33891424987E+03 -0.25980200376E+03 -0.88677933750E+02  0.43614645001E+03  0.00000000000E+00 0. -1.
         -3    1    6    6    0  502 -0.58229312754E+03 -0.45117046492E+03 -0.25721354606E+03  0.78024283596E+03  0.00000000000E+00 0.  1.
<mgrwt>
<rscale>  0 0.11904131E+04</rscale>
<asrwt>0</asrwt>
<pdfrwt beam="1">  1        1 0.88002323E-01 0.11904131E+04</pdfrwt>
<pdfrwt beam="2">  1       -2 0.57123548E+00 0.11904131E+04</pdfrwt>
<totfact> 0.20868870E-02</totfact>
</mgrwt>
</event>
<event>
12    3  0.1176505E-007  0.9016418E+03  0.7818608E-02  0.9423531E-01
         -4   -1    0    0    0  501 -0.00000000000E+00  0.00000000000E+00  0.37623631396E+04  0.37623631396E+04  0.00000000000E+00 0.  1.
          3   -1    0    0  501    0  0.00000000000E+00 -0.00000000000E+00 -0.22442073115E+03  0.22442073115E+03  0.00000000000E+00 0. -1.
        -24    2    1    2    0    0 -0.73408536349E+03 -0.35495283777E+03  0.14220536689E+04  0.16411769270E+04  0.79700881328E+02 0.  0.
    5000000    2    1    2    0    0  0.73408536349E+03  0.35495283777E+03  0.21158887396E+04  0.23456069438E+04  0.60001161536E+03 0.  0.
        -24    2    4    4    0    0  0.73678536689E+03  0.46671615395E+03  0.18124923309E+04  0.20127796866E+04  0.74006566681E+02 0.  0.
         24    2    4    4    0    0 -0.27000034021E+01 -0.11176331618E+03  0.30339640862E+03  0.33282725716E+03  0.78906739152E+02 0.  0.
         13    1    5    5    0    0  0.25002402122E+03  0.16981246856E+03  0.55186802930E+03  0.62921109926E+03  0.00000000000E+00 0. -1.
        -14    1    5    5    0    0  0.48676134567E+03  0.29690368539E+03  0.12606243016E+04  0.13835685873E+04  0.00000000000E+00 0.  1.
         15    1    3    3    0    0 -0.30833967702E+03 -0.19135978763E+03  0.60845704845E+03  0.70845964055E+03  0.17770000000E+01 0. -1.
        -16    1    3    3    0    0 -0.42574568647E+03 -0.16359305015E+03  0.81359662045E+03  0.93271728643E+03  0.00000000000E+00 0.  1.
          2    1    6    6  502    0 -0.24168024904E-01 -0.82887249656E+02  0.11248224564E+03  0.13972312737E+03  0.00000000000E+00 0. -1.
         -1    1    6    6    0  502 -0.26758353772E+01 -0.28876066523E+02  0.19091416299E+03  0.19310412979E+03  0.00000000000E+00 0.  1.
<mgrwt>
<rscale>  0 0.90164181E+03</rscale>
<asrwt>0</asrwt>
<pdfrwt beam="1">  1        3 0.34526269E-01 0.90164181E+03</pdfrwt>
<pdfrwt beam="2">  1       -4 0.57882505E+00 0.90164181E+03</pdfrwt>
<totfact> 0.52059855E-03</totfact>
</mgrwt>
</event>
<event>
12    3  0.1176505E-007  0.7303198E+03  0.7818608E-02  0.9666742E-01
         -4   -1    0    0    0  501 -0.00000000000E+00  0.00000000000E+00  0.11978739732E+04  0.11978739732E+04  0.00000000000E+00 0.  1.
          3   -1    0    0  501    0  0.00000000000E+00 -0.00000000000E+00 -0.51088206609E+03  0.51088206609E+03  0.00000000000E+00 0. -1.
        -24    2    1    2    0    0  0.21208425305E+03  0.62538400590E+03  0.37702188773E+03  0.76448899879E+03  0.78822840709E+02 0.  0.
    5000000    2    1    2    0    0 -0.21208425305E+03 -0.62538400590E+03  0.30997001942E+03  0.94426704054E+03  0.59956146113E+03 0.  0.
        -24    2    4    4    0    0 -0.47259249891E+02 -0.61896482843E+03  0.45510607438E+02  0.62736228022E+03  0.78494074445E+02 0.  0.
         24    2    4    4    0    0 -0.16482500316E+03 -0.64191774718E+01  0.26445941198E+03  0.31690476032E+03  0.57283147775E+02 0.  0.
         13    1    5    5    0    0  0.61648237676E+01 -0.40924116831E+03  0.29374167249E+02  0.41034032289E+03  0.00000000000E+00 0. -1.
        -14    1    5    5    0    0 -0.53424073659E+02 -0.20972366012E+03  0.16136440188E+02  0.21702195733E+03  0.00000000000E+00 0.  1.
         15    1    3    3    0    0  0.90939273343E+02  0.32005670457E+03  0.14868139522E+03  0.36443869250E+03  0.17770000000E+01 0. -1.
        -16    1    3    3    0    0  0.12114497971E+03  0.30532730133E+03  0.22834049250E+03  0.40005030629E+03  0.00000000000E+00 0.  1.
          2    1    6    6  502    0 -0.70572284140E+02  0.24216003991E+02  0.12964440645E+03  0.14958119622E+03  0.00000000000E+00 0. -1.
         -1    1    6    6    0  502 -0.94252719024E+02 -0.30635181463E+02  0.13481500553E+03  0.16732356410E+03  0.00000000000E+00 0.  1.
<mgrwt>
<rscale>  0 0.73031979E+03</rscale>
<asrwt>0</asrwt>
<pdfrwt beam="1">  1        3 0.78597241E-01 0.73031979E+03</pdfrwt>
<pdfrwt beam="2">  1       -4 0.18428830E+00 0.73031979E+03</pdfrwt>
<totfact> 0.57519764E-01</totfact>
</mgrwt>
</event>
<event>
12    3  0.1176505E-007  0.1263093E+04  0.7818608E-02  0.9059356E-01
          1   -1    0    0  501    0  0.00000000000E+00  0.00000000000E+00  0.15938050645E+04  0.15938050645E+04  0.00000000000E+00 0. -1.
         -2   -1    0    0    0  501 -0.00000000000E+00 -0.00000000000E+00 -0.15325562887E+04  0.15325562887E+04  0.00000000000E+00 0.  1.
        -24    2    1    2    0    0  0.79038736958E+03 -0.89907376788E+03 -0.88133353404E+03  0.14887427670E+04  0.80996259798E+02 0.  0.
    5000000    2    1    2    0    0 -0.79038736958E+03  0.89907376788E+03  0.94258230993E+03  0.16376185862E+04  0.60023944278E+03 0.  0.
        -24    2    4    4    0    0 -0.80906892056E+03  0.57821621443E+03  0.79566391118E+03  0.12760675609E+04  0.79629463799E+02 0.  0.
         24    2    4    4    0    0  0.18681550984E+02  0.32085755345E+03  0.14691839875E+03  0.36155102529E+03  0.76390824347E+02 0.  0.
         11    1    5    5    0    0 -0.45470949974E+03  0.27851664687E+03  0.40975566704E+03  0.67248193910E+03  0.00000000000E+00 0. -1.
        -12    1    5    5    0    0 -0.35435942083E+03  0.29969956756E+03  0.38590824413E+03  0.60358562177E+03  0.00000000000E+00 0.  1.
         15    1    3    3    0    0  0.53465584223E+03 -0.56545332591E+03 -0.53919386597E+03  0.94674575058E+03  0.17770000000E+01 0. -1.
        -16    1    3    3    0    0  0.25573152735E+03 -0.33362044197E+03 -0.34213966807E+03  0.54199701645E+03  0.00000000000E+00 0.  1.
          4    1    6    6  502    0 -0.27155301784E+02  0.18335498919E+03  0.79073210462E+02  0.20151683575E+03  0.00000000000E+00 0. -1.
         -3    1    6    6    0  502  0.45836852768E+02  0.13750256426E+03  0.67845188289E+02  0.16003418955E+03  0.00000000000E+00 0.  1.
<mgrwt>
<rscale>  0 0.12630930E+04</rscale>
<asrwt>0</asrwt>
<pdfrwt beam="1">  1        1 0.24520078E+00 0.12630930E+04</pdfrwt>
<pdfrwt beam="2">  1       -2 0.23577789E+00 0.12630930E+04</pdfrwt>
<totfact> 0.37607941E-01</totfact>
</mgrwt>
</event>
<event>
12    3  0.1176505E-007  0.1047418E+04  0.7818608E-02  0.9258014E-01
         -2   -1    0    0    0  501 -0.00000000000E+00  0.00000000000E+00  0.34055588883E+04  0.34055588883E+04  0.00000000000E+00 0.  1.
          1   -1    0    0  501    0  0.00000000000E+00 -0.00000000000E+00 -0.91141442987E+03  0.91141442987E+03  0.00000000000E+00 0. -1.
        -24    2    1    2    0    0 -0.10244698394E+04 -0.71587468761E+02  0.28863127076E+04  0.30645965702E+04  0.79296120094E+02 0.  0.
    5000000    2    1    2    0    0  0.10244698394E+04  0.71587468761E+02 -0.39216824917E+03  0.12523767479E+04  0.59999030452E+03 0.  0.
        -24    2    4    4    0    0  0.90624020247E+03  0.13278467061E+03 -0.51554955146E+03  0.10544865709E+04  0.85132337727E+02 0.  0.
         24    2    4    4    0    0  0.11822963696E+03 -0.61197201845E+02  0.12338130228E+03  0.19789017701E+03  0.78830399178E+02 0.  0.
         13    1    5    5    0    0  0.49546079722E+03  0.40811545517E+02 -0.24645116821E+03  0.55487400564E+03  0.00000000000E+00 0. -1.
        -14    1    5    5    0    0  0.41077940525E+03  0.91973125089E+02 -0.26909838324E+03  0.49961256527E+03  0.00000000000E+00 0.  1.
         15    1    3    3    0    0 -0.56738064167E+03 -0.65812591923E+02  0.15149471718E+04  0.16190491595E+04  0.17770000000E+01 0. -1.
        -16    1    3    3    0    0 -0.45708919776E+03 -0.57748768379E+01  0.13713655358E+04  0.14455474107E+04  0.00000000000E+00 0.  1.
          2    1    6    6  502    0  0.84117954671E+02 -0.70170714725E+01  0.97157185338E+02  0.12870348967E+03  0.00000000000E+00 0. -1.
         -1    1    6    6    0  502  0.34111682291E+02 -0.54180130372E+02  0.26224116946E+02  0.69186687343E+02  0.00000000000E+00 0.  1.
<mgrwt>
<rscale>  0 0.10474181E+04</rscale>
<asrwt>0</asrwt>
<pdfrwt beam="1">  1        1 0.14021761E+00 0.10474181E+04</pdfrwt>
<pdfrwt beam="2">  1       -2 0.52393213E+00 0.10474181E+04</pdfrwt>
<totfact> 0.18472273E-02</totfact>
</mgrwt>
</event>
<event>
12    3  0.1176505E-007  0.5346851E+03  0.7818608E-02  0.1005102E+00
         -2   -1    0    0    0  501 -0.00000000000E+00  0.00000000000E+00  0.27608642104E+03  0.27608642104E+03  0.00000000000E+00 0.  1.
          1   -1    0    0  501    0  0.00000000000E+00 -0.00000000000E+00 -0.11218706196E+04  0.11218706196E+04  0.00000000000E+00 0. -1.
        -24    2    1    2    0    0 -0.31618385471E+03 -0.18682995385E+03 -0.46506350151E+03  0.59803427122E+03  0.80518739951E+02 0.  0.
    5000000    2    1    2    0    0  0.31618385471E+03  0.18682995385E+03 -0.38072069699E+03  0.79992276937E+03  0.60004210370E+03 0.  0.
        -24    2    4    4    0    0 -0.16402120218E+03  0.19198955734E+02 -0.54076011608E+02  0.19023970098E+03  0.77429801300E+02 0.  0.
         24    2    4    4    0    0  0.48020505689E+03  0.16763099811E+03 -0.32664468539E+03  0.60968306840E+03  0.79496196186E+02 0.  0.
         13    1    5    5    0    0 -0.89082205523E+02  0.49019509293E+02 -0.32561929867E+02  0.10676530761E+03  0.00000000000E+00 0. -1.
        -14    1    5    5    0    0 -0.74938996660E+02 -0.29820553559E+02 -0.21514081741E+02  0.83474393367E+02  0.00000000000E+00 0.  1.
         15    1    3    3    0    0 -0.21588540366E+03 -0.83626392930E+02 -0.30227966773E+03  0.38075718819E+03  0.17770000000E+01 0. -1.
        -16    1    3    3    0    0 -0.10029845105E+03 -0.10320356092E+03 -0.16278383379E+03  0.21727708303E+03  0.00000000000E+00 0.  1.
          2    1    6    6  502    0  0.41279118884E+03  0.16372431394E+03 -0.25891477210E+03  0.51404190079E+03  0.00000000000E+00 0. -1.
         -1    1    6    6    0  502  0.67413868051E+02  0.39066841712E+01 -0.67729913291E+02  0.95641167608E+02  0.00000000000E+00 0.  1.
<mgrwt>
<rscale>  0 0.53468507E+03</rscale>
<asrwt>0</asrwt>
<pdfrwt beam="1">  1        1 0.17259547E+00 0.53468507E+03</pdfrwt>
<pdfrwt beam="2">  1       -2 0.42474835E-01 0.53468507E+03</pdfrwt>
<totfact> 0.58779651E+01</totfact>
</mgrwt>
</event>
<event>
12    3  0.1176505E-007  0.5655204E+03  0.7818608E-02  0.9979641E-01
          1   -1    0    0  501    0  0.00000000000E+00  0.00000000000E+00  0.19364563522E+04  0.19364563522E+04  0.00000000000E+00 0. -1.
         -2   -1    0    0    0  501 -0.00000000000E+00 -0.00000000000E+00 -0.19271706470E+03  0.19271706470E+03  0.00000000000E+00 0.  1.
        -24    2    1    2    0    0  0.12061632650E+03  0.40348910660E+03  0.34632487648E+03  0.55112533753E+03  0.80289851354E+02 0.  0.
    5000000    2    1    2    0    0 -0.12061632650E+03 -0.40348910660E+03  0.13974144110E+04  0.15780480794E+04  0.60009744819E+03 0.  0.
        -24    2    4    4    0    0 -0.16436381648E+03 -0.53472474532E+03  0.11821120116E+04  0.13103530600E+04  0.81794355688E+02 0.  0.
         24    2    4    4    0    0  0.43747489976E+02  0.13123563872E+03  0.21530239944E+03  0.26769501933E+03  0.78542118764E+02 0.  0.
         13    1    5    5    0    0 -0.22805947751E+01 -0.11972407794E+03  0.26000089373E+03  0.28625080034E+03  0.00000000000E+00 0. -1.
        -14    1    5    5    0    0 -0.16208322170E+03 -0.41500066738E+03  0.92211111782E+03  0.10241022597E+04  0.00000000000E+00 0.  1.
         15    1    3    3    0    0  0.54193859108E+02  0.29028264666E+03  0.26460980298E+03  0.39651291893E+03  0.17770000000E+01 0. -1.
        -16    1    3    3    0    0  0.66422467394E+02  0.11320645994E+03  0.81715073505E+02  0.15461241860E+03  0.00000000000E+00 0.  1.
          4    1    6    6  502    0  0.26116165398E+02  0.53978046152E+02  0.31936151707E+02  0.67938217133E+02  0.00000000000E+00 0. -1.
         -3    1    6    6    0  502  0.17631324578E+02  0.77257592570E+02  0.18336624774E+03  0.19975680220E+03  0.00000000000E+00 0.  1.
<mgrwt>
<rscale>  0 0.56552042E+03</rscale>
<asrwt>0</asrwt>
<pdfrwt beam="1">  1        1 0.29791635E+00 0.56552042E+03</pdfrwt>
<pdfrwt beam="2">  1       -2 0.29648781E-01 0.56552042E+03</pdfrwt>
<totfact> 0.32149429E+01</totfact>
</mgrwt>
</event>
<event>
12    3  0.1176505E-007  0.5478253E+03  0.7818608E-02  0.1001999E+00
          1   -1    0    0  501    0  0.00000000000E+00  0.00000000000E+00  0.70898669678E+03  0.70898669678E+03  0.00000000000E+00 0. -1.
         -2   -1    0    0    0  501 -0.00000000000E+00 -0.00000000000E+00 -0.79099942070E+03  0.79099942070E+03  0.00000000000E+00 0.  1.
        -24    2    1    2    0    0  0.16619337322E+03 -0.50907088262E+03 -0.35902637781E+03  0.64953177868E+03  0.78855505350E+02 0.  0.
    5000000    2    1    2    0    0 -0.16619337322E+03  0.50907088262E+03  0.27701365389E+03  0.85045433881E+03  0.59980214831E+03 0.  0.
        -24    2    4    4    0    0 -0.26965239157E+02  0.17851128029E+03  0.41733455685E+03  0.46171742107E+03  0.80133908345E+02 0.  0.
         24    2    4    4    0    0 -0.13922813407E+03  0.33055960233E+03 -0.14032090296E+03  0.38873691774E+03  0.52652743486E+02 0.  0.
         13    1    5    5    0    0  0.24064219845E+02  0.10336920981E+03  0.20751281711E+03  0.23307906272E+03  0.00000000000E+00 0. -1.
        -14    1    5    5    0    0 -0.51029459002E+02  0.75142070473E+02  0.20982173974E+03  0.22863835835E+03  0.00000000000E+00 0.  1.
         15    1    3    3    0    0  0.10655135275E+03 -0.37700986225E+03 -0.29829568631E+03  0.49241557775E+03  0.17770000000E+01 0. -1.
        -16    1    3    3    0    0  0.59642020471E+02 -0.13206102037E+03 -0.60730691494E+02  0.15711620094E+03  0.00000000000E+00 0.  1.
          4    1    6    6  502    0 -0.12559546786E+02  0.82707071786E+02 -0.23692351938E+02  0.86945554683E+02  0.00000000000E+00 0. -1.
         -3    1    6    6    0  502 -0.12666858728E+03  0.24785253054E+03 -0.11662855102E+03  0.30179136305E+03  0.00000000000E+00 0.  1.
<mgrwt>
<rscale>  0 0.54782532E+03</rscale>
<asrwt>0</asrwt>
<pdfrwt beam="1">  1        1 0.10907488E+00 0.54782532E+03</pdfrwt>
<pdfrwt beam="2">  1       -2 0.12169222E+00 0.54782532E+03</pdfrwt>
<totfact> 0.12553057E+01</totfact>
</mgrwt>
</event>
<event>
12    3  0.1176505E-007  0.9129544E+03  0.7818608E-02  0.9409531E-01
         -2   -1    0    0    0  501 -0.00000000000E+00  0.00000000000E+00  0.30823794610E+03  0.30823794610E+03  0.00000000000E+00 0.  1.
          1   -1    0    0  501    0  0.00000000000E+00 -0.00000000000E+00 -0.29471141787E+04  0.29471141787E+04  0.00000000000E+00 0. -1.
        -24    2    1    2    0    0 -0.29911258125E+03 -0.79791510040E+03 -0.10407105292E+04  0.13474245889E+04  0.79610134505E+02 0.  0.
    5000000    2    1    2    0    0  0.29911258125E+03  0.79791510040E+03 -0.15981657034E+04  0.19079275359E+04  0.59993084845E+03 0.  0.
        -24    2    4    4    0    0  0.27595011855E+03  0.14912604872E+03 -0.24729085424E+03  0.40710567370E+03  0.78709698446E+02 0.  0.
         24    2    4    4    0    0  0.23162462697E+02  0.64878905168E+03 -0.13508748492E+04  0.15008218622E+04  0.78356050394E+02 0.  0.
         11    1    5    5    0    0  0.20122401857E+03  0.14561981670E+03 -0.18398917056E+03  0.30910880212E+03  0.00000000000E+00 0. -1.
        -12    1    5    5    0    0  0.74726099986E+02  0.35062320171E+01 -0.63301683684E+02  0.97996871580E+02  0.00000000000E+00 0.  1.
         15    1    3    3    0    0 -0.22153835767E+03 -0.53405809853E+03 -0.75352037848E+03  0.94978598381E+03  0.17770000000E+01 0. -1.
        -16    1    3    3    0    0 -0.77574223580E+02 -0.26385700187E+03 -0.28719015070E+03  0.39763860509E+03  0.00000000000E+00 0.  1.
          2    1    6    6  502    0  0.20494856880E+02  0.29858327338E+03 -0.53642513359E+03  0.61426698938E+03  0.00000000000E+00 0. -1.
         -1    1    6    6    0  502  0.26676058170E+01  0.35020577830E+03 -0.81444971561E+03  0.88655487283E+03  0.00000000000E+00 0.  1.
<mgrwt>
<rscale>  0 0.91295436E+03</rscale>
<asrwt>0</asrwt>
<pdfrwt beam="1">  1        1 0.45340219E+00 0.91295436E+03</pdfrwt>
<pdfrwt beam="2">  1       -2 0.47421221E-01 0.91295436E+03</pdfrwt>
<totfact> 0.25090545E+00</totfact>
</mgrwt>
</event>
<event>
12    3  0.1176505E-007  0.1448937E+04  0.7818608E-02  0.8919138E-01
          1   -1    0    0  501    0  0.00000000000E+00  0.00000000000E+00  0.28376419857E+04  0.28376419857E+04  0.00000000000E+00 0. -1.
         -2   -1    0    0    0  501 -0.00000000000E+00 -0.00000000000E+00 -0.75897300980E+03  0.75897300980E+03  0.00000000000E+00 0.  1.
        -24    2    1    2    0    0  0.11028412614E+04 -0.85160250954E+03  0.12181119564E+04  0.18524685227E+04  0.79732095894E+02 0.  0.
    5000000    2    1    2    0    0 -0.11028412614E+04  0.85160250954E+03  0.86055701949E+03  0.17441464728E+04  0.60000237726E+03 0.  0.
        -24    2    4    4    0    0 -0.93769739567E+03  0.92207481541E+03  0.78463128065E+03  0.15334502655E+04  0.79530491731E+02 0.  0.
         24    2    4    4    0    0 -0.16514386575E+03 -0.70472305876E+02  0.75925738841E+02  0.21069620732E+03  0.79933295136E+02 0.  0.
         13    1    5    5    0    0 -0.24649102530E+03  0.20852012911E+03  0.16459839993E+03  0.36239633422E+03  0.00000000000E+00 0. -1.
        -14    1    5    5    0    0 -0.69120637037E+03  0.71355468630E+03  0.62003288071E+03  0.11710539313E+04  0.00000000000E+00 0.  1.
         15    1    3    3    0    0  0.60124041255E+03 -0.42460551119E+03  0.67521775498E+03  0.99885036326E+03  0.17770000000E+01 0. -1.
        -16    1    3    3    0    0  0.50160084887E+03 -0.42699699835E+03  0.54289420146E+03  0.85361815946E+03  0.00000000000E+00 0.  1.
          2    1    6    6  502    0 -0.13787619980E+03 -0.35389760463E+02  0.27506114815E+02  0.14497885353E+03  0.00000000000E+00 0. -1.
         -1    1    6    6    0  502 -0.27267665942E+02 -0.35082545413E+02  0.48419624025E+02  0.65717353791E+02  0.00000000000E+00 0.  1.
<mgrwt>
<rscale>  0 0.14489365E+04</rscale>
<asrwt>0</asrwt>
<pdfrwt beam="1">  1        1 0.43656030E+00 0.14489365E+04</pdfrwt>
<pdfrwt beam="2">  1       -2 0.11676508E+00 0.14489365E+04</pdfrwt>
<totfact> 0.37427763E-01</totfact>
</mgrwt>
</event>
<event>
12    3  0.1176505E-007  0.2274679E+03  0.7818608E-02  0.1128435E+00
         -2   -1    0    0    0  501 -0.00000000000E+00  0.00000000000E+00  0.59362464979E+03  0.59362464979E+03  0.00000000000E+00 0.  1.
          1   -1    0    0  501    0  0.00000000000E+00 -0.00000000000E+00 -0.21297989565E+03  0.21297989565E+03  0.00000000000E+00 0. -1.
        -24    2    1    2    0    0  0.67784231657E+02 -0.26124123875E+02  0.50939298995E+02  0.11829261135E+03  0.78237828500E+02 0.  0.
    5000000    2    1    2    0    0 -0.67784231657E+02  0.26124123875E+02  0.32970545515E+03  0.68831193409E+03  0.59982535753E+03 0.  0.
        -24    2    4    4    0    0  0.11957939740E+03  0.69149669820E+02  0.42593297321E+03  0.45782262773E+03  0.95403100977E+02 0.  0.
         24    2    4    4    0    0 -0.18736362905E+03 -0.43025545945E+02 -0.96227518065E+02  0.23048930635E+03  0.83121946644E+02 0.  0.
         13    1    5    5    0    0  0.41860752400E+02  0.53695364687E+02  0.91041335395E+02  0.11368394579E+03  0.00000000000E+00 0. -1.
        -14    1    5    5    0    0  0.77718644996E+02  0.15454305133E+02  0.33489163782E+03  0.34413868194E+03  0.00000000000E+00 0.  1.
         15    1    3    3    0    0  0.81892549248E+02 -0.12472605775E+02  0.53300468691E+02  0.98519303737E+02  0.17770000000E+01 0. -1.
        -16    1    3    3    0    0 -0.14108317590E+02 -0.13651518100E+02 -0.23611696953E+01  0.19773307614E+02  0.00000000000E+00 0.  1.
          2    1    6    6  502    0 -0.82390136884E+00 -0.16716962505E+02  0.38451011731E+01  0.17173248147E+02  0.00000000000E+00 0. -1.
         -1    1    6    6    0  502 -0.18653972768E+03 -0.26308583439E+02 -0.10007261924E+03  0.21331605821E+03  0.00000000000E+00 0.  1.
<mgrwt>
<rscale>  0 0.22746788E+03</rscale>
<asrwt>0</asrwt>
<pdfrwt beam="1">  1        1 0.32766138E-01 0.22746788E+03</pdfrwt>
<pdfrwt beam="2">  1       -2 0.91326868E-01 0.22746788E+03</pdfrwt>
<totfact> 0.12707865E+02</totfact>
</mgrwt>
</event>
<event>
12    3  0.1176505E-007  0.3968204E+03  0.7818608E-02  0.1044886E+00
         -2   -1    0    0    0  501 -0.00000000000E+00  0.00000000000E+00  0.31636237985E+03  0.31636237985E+03  0.00000000000E+00 0.  1.
          1   -1    0    0  501    0  0.00000000000E+00 -0.00000000000E+00 -0.99277018740E+03  0.99277018740E+03  0.00000000000E+00 0. -1.
        -24    2    1    2    0    0  0.13919815153E+03 -0.35365327746E+03 -0.11701501943E+03  0.40500870324E+03  0.76764372506E+02 0.  0.
    5000000    2    1    2    0    0 -0.13919815153E+03  0.35365327746E+03 -0.55939278811E+03  0.90412386401E+03  0.60006075029E+03 0.  0.
        -24    2    4    4    0    0 -0.34936590263E+02  0.50989367346E+02 -0.56517535526E+03  0.57425574841E+03  0.80783670749E+02 0.  0.
         24    2    4    4    0    0 -0.10426156127E+03  0.30266391011E+03  0.57825671502E+01  0.32986811560E+03  0.79395339719E+02 0.  0.
         11    1    5    5    0    0 -0.27501550717E+02 -0.60626297881E+01 -0.36192810131E+03  0.36302209477E+03  0.00000000000E+00 0. -1.
        -12    1    5    5    0    0 -0.74350395455E+01  0.57051997135E+02 -0.20324725395E+03  0.21123365364E+03  0.00000000000E+00 0.  1.
         15    1    3    3    0    0  0.11878580621E+03 -0.20047046213E+03 -0.76260287815E+02  0.24518821988E+03  0.17770000000E+01 0. -1.
        -16    1    3    3    0    0  0.20412345323E+02 -0.15318281532E+03 -0.40754731614E+02  0.15982048336E+03  0.00000000000E+00 0.  1.
          2    1    6    6  502    0 -0.70777364918E+02  0.18617674506E+03 -0.34506243832E+02  0.20214325773E+03  0.00000000000E+00 0. -1.
         -1    1    6    6    0  502 -0.33484196348E+02  0.11648716505E+03  0.40288810983E+02  0.12772485787E+03  0.00000000000E+00 0.  1.
<mgrwt>
<rscale>  0 0.39682038E+03</rscale>
<asrwt>0</asrwt>
<pdfrwt beam="1">  1        1 0.15273388E+00 0.39682038E+03</pdfrwt>
<pdfrwt beam="2">  1       -2 0.48671135E-01 0.39682038E+03</pdfrwt>
<totfact> 0.57128120E+01</totfact>
</mgrwt>
</event>
<event>
12    3  0.1176505E-007  0.4636056E+03  0.7818608E-02  0.1023741E+00
          1   -1    0    0  501    0  0.00000000000E+00  0.00000000000E+00  0.15429191794E+03  0.15429191794E+03  0.00000000000E+00 0. -1.
         -2   -1    0    0    0  501 -0.00000000000E+00 -0.00000000000E+00 -0.19117469318E+04  0.19117469318E+04  0.00000000000E+00 0.  1.
        -24    2    1    2    0    0 -0.31050179913E+02 -0.34587978425E+03 -0.34873257144E+03  0.49600578386E+03  0.61728376106E+02 0.  0.
    5000000    2    1    2    0    0  0.31050179913E+02  0.34587978425E+03 -0.14087224424E+04  0.15700330659E+04  0.59992330289E+03 0.  0.
        -24    2    4    4    0    0  0.14175709220E+03  0.40609599544E+03 -0.13326066241E+04  0.14026152886E+04  0.80499705350E+02 0.  0.
         24    2    4    4    0    0 -0.11070691229E+03 -0.60216211190E+02 -0.76115818289E+02  0.16741777723E+03  0.79706221970E+02 0.  0.
         11    1    5    5    0    0  0.45899981756E+02  0.75220077491E+02 -0.36603696357E+03  0.37649425903E+03  0.00000000000E+00 0. -1.
        -12    1    5    5    0    0  0.95857110448E+02  0.33087591795E+03 -0.96656966055E+03  0.10261210296E+04  0.00000000000E+00 0.  1.
         15    1    3    3    0    0 -0.48297116193E+02 -0.23629515080E+03 -0.25201617881E+03  0.34883136590E+03  0.17770000000E+01 0. -1.
        -16    1    3    3    0    0  0.17246936281E+02 -0.10958463345E+03 -0.96716392628E+02  0.14717441796E+03  0.00000000000E+00 0.  1.
          2    1    6    6  502    0 -0.80817002877E+02 -0.65748897944E+01 -0.67312652784E+02  0.10538315973E+03  0.00000000000E+00 0. -1.
         -3    1    6    6    0  502 -0.29889909415E+02 -0.53641321396E+02 -0.88031655049E+01  0.62034617504E+02  0.00000000000E+00 0.  1.
<mgrwt>
<rscale>  0 0.46360565E+03</rscale>
<asrwt>0</asrwt>
<pdfrwt beam="1">  1        1 0.23737217E-01 0.46360565E+03</pdfrwt>
<pdfrwt beam="2">  1       -2 0.29411492E+00 0.46360565E+03</pdfrwt>
<totfact> 0.68228796E+00</totfact>
</mgrwt>
</event>
<event>
12    3  0.1176505E-007  0.5910798E+03  0.7818608E-02  0.9924087E-01
         -2   -1    0    0    0  501 -0.00000000000E+00  0.00000000000E+00  0.88292190385E+03  0.88292190385E+03  0.00000000000E+00 0.  1.
          1   -1    0    0  501    0  0.00000000000E+00 -0.00000000000E+00 -0.12201373418E+04  0.12201373418E+04  0.00000000000E+00 0. -1.
        -24    2    1    2    0    0  0.46566631058E+03 -0.31394724177E+03  0.62070020070E+03  0.84092409346E+03  0.80477378183E+02 0.  0.
    5000000    2    1    2    0    0 -0.46566631058E+03  0.31394724177E+03 -0.95791563869E+03  0.12621351522E+04  0.59997898981E+03 0.  0.
        -24    2    4    4    0    0 -0.25300551133E+03  0.30850451610E+03 -0.16793683891E+03  0.44027771965E+03  0.80342164162E+02 0.  0.
         24    2    4    4    0    0 -0.21266079925E+03  0.54427256732E+01 -0.78997879978E+03  0.82185743257E+03  0.78287269568E+02 0.  0.
         13    1    5    5    0    0 -0.11903621380E+03  0.15108984528E+03 -0.12430183009E+03  0.22901682582E+03  0.00000000000E+00 0. -1.
        -14    1    5    5    0    0 -0.13396929753E+03  0.15741467082E+03 -0.43635008818E+02  0.21126089384E+03  0.00000000000E+00 0.  1.
         15    1    3    3    0    0  0.39105495040E+03 -0.24855760938E+03  0.54960688170E+03  0.71887115783E+03  0.17770000000E+01 0. -1.
        -16    1    3    3    0    0  0.74611360176E+02 -0.65389632388E+02  0.71093318996E+02  0.12205293563E+03  0.00000000000E+00 0.  1.
          2    1    6    6  502    0 -0.63168026655E+02  0.28446417185E+02 -0.34464823610E+03  0.35154203858E+03  0.00000000000E+00 0. -1.
         -1    1    6    6    0  502 -0.14949277259E+03 -0.23003691512E+02 -0.44533056368E+03  0.47031539400E+03  0.00000000000E+00 0.  1.
<mgrwt>
<rscale>  0 0.59107981E+03</rscale>
<asrwt>0</asrwt>
<pdfrwt beam="1">  1        1 0.18771344E+00 0.59107981E+03</pdfrwt>
<pdfrwt beam="2">  1       -2 0.13583414E+00 0.59107981E+03</pdfrwt>
<totfact> 0.37166779E+00</totfact>
</mgrwt>
</event>
<event>
12    3  0.1176505E-007  0.7330952E+03  0.7818608E-02  0.9662251E-01
         -2   -1    0    0    0  501 -0.00000000000E+00  0.00000000000E+00  0.46920325084E+03  0.46920325084E+03  0.00000000000E+00 0.  1.
          1   -1    0    0  501    0  0.00000000000E+00 -0.00000000000E+00 -0.15612857604E+04  0.15612857604E+04  0.00000000000E+00 0. -1.
        -24    2    1    2    0    0 -0.11274210809E+03 -0.69362636817E+03 -0.78495175738E+03  0.10567853727E+04  0.82569612704E+02 0.  0.
    5000000    2    1    2    0    0  0.11274210809E+03  0.69362636817E+03 -0.30713075216E+03  0.97370363854E+03  0.59995096068E+03 0.  0.
        -24    2    4    4    0    0  0.19012236490E+03  0.43637224627E+03  0.87555066628E+02  0.49012855370E+03  0.77413555106E+02 0.  0.
         24    2    4    4    0    0 -0.77380256809E+02  0.25725412190E+03 -0.39468581879E+03  0.48357508484E+03  0.76815231185E+02 0.  0.
         13    1    5    5    0    0  0.14652761170E+03  0.24273078958E+03  0.44077039405E+02  0.28693442213E+03  0.00000000000E+00 0. -1.
        -14    1    5    5    0    0  0.43594753206E+02  0.19364145668E+03  0.43478027222E+02  0.20319413157E+03  0.00000000000E+00 0.  1.
         15    1    3    3    0    0 -0.78266876006E+02 -0.25767203473E+03 -0.27287576617E+03  0.38338612762E+03  0.17770000000E+01 0. -1.
        -16    1    3    3    0    0 -0.34475232089E+02 -0.43595433344E+03 -0.51207599121E+03  0.67339924506E+03  0.00000000000E+00 0.  1.
          4    1    6    6  502    0 -0.57400212522E+02  0.76188650475E+02 -0.16287049830E+03  0.18874928894E+03  0.00000000000E+00 0. -1.
         -3    1    6    6    0  502 -0.19980044287E+02  0.18106547143E+03 -0.23181532049E+03  0.29482579590E+03  0.00000000000E+00 0.  1.
<mgrwt>
<rscale>  0 0.73309516E+03</rscale>
<asrwt>0</asrwt>
<pdfrwt beam="1">  1        1 0.24019781E+00 0.73309516E+03</pdfrwt>
<pdfrwt beam="2">  1       -2 0.72185115E-01 0.73309516E+03</pdfrwt>
<totfact> 0.93726922E+00</totfact>
</mgrwt>
</event>
<event>
12    3  0.1176505E-007  0.1483957E+04  0.7818608E-02  0.8895192E-01
         -2   -1    0    0    0  501 -0.00000000000E+00  0.00000000000E+00  0.25938411074E+04  0.25938411074E+04  0.00000000000E+00 0.  1.
          1   -1    0    0  501    0  0.00000000000E+00 -0.00000000000E+00 -0.13391898710E+04  0.13391898710E+04  0.00000000000E+00 0. -1.
        -24    2    1    2    0    0 -0.14136580959E+04 -0.30422970641E+03 -0.54531320182E+03  0.15474835135E+04  0.79710789101E+02 0.  0.
    5000000    2    1    2    0    0  0.14136580959E+04  0.30422970641E+03  0.17999644382E+04  0.23855474649E+04  0.59998316835E+03 0.  0.
        -24    2    4    4    0    0  0.27218974937E+03 -0.12609982982E+03  0.58860872550E+03  0.66548234639E+03  0.80113013138E+02 0.  0.
         24    2    4    4    0    0  0.11414683466E+04  0.43032953624E+03  0.12113557127E+04  0.17200651185E+04  0.55748125116E+02 0.  0.
         13    1    5    5    0    0  0.77240877726E+02 -0.52572638254E+02  0.11574788670E+03  0.14875351680E+03  0.00000000000E+00 0. -1.
        -14    1    5    5    0    0  0.19494887164E+03 -0.73527191568E+02  0.47286083880E+03  0.51672882959E+03  0.00000000000E+00 0.  1.
         15    1    3    3    0    0 -0.40835452991E+03 -0.98986613273E+02 -0.19561369569E+03  0.46348640474E+03  0.17770000000E+01 0. -1.
        -16    1    3    3    0    0 -0.10053035660E+04 -0.20524309314E+03 -0.34969950613E+03  0.10839971087E+04  0.00000000000E+00 0.  1.
          2    1    6    6  502    0  0.66913066319E+03  0.25483140786E+03  0.67226387925E+03  0.98214745034E+03  0.00000000000E+00 0. -1.
         -1    1    6    6    0  502  0.47233768337E+03  0.17549812837E+03  0.53909183342E+03  0.73791766820E+03  0.00000000000E+00 0.  1.
<mgrwt>
<rscale>  0 0.14839572E+04</rscale>
<asrwt>0</asrwt>
<pdfrwt beam="1">  1        1 0.20602921E+00 0.14839572E+04</pdfrwt>
<pdfrwt beam="2">  1       -2 0.39905248E+00 0.14839572E+04</pdfrwt>
<totfact> 0.53086621E-02</totfact>
</mgrwt>
</event>
<event>
12    3  0.1176505E-007  0.7290721E+03  0.7818608E-02  0.9668767E-01
         -4   -1    0    0    0  501 -0.00000000000E+00  0.00000000000E+00  0.51739447859E+03  0.51739447859E+03  0.00000000000E+00 0.  1.
          3   -1    0    0  501    0  0.00000000000E+00 -0.00000000000E+00 -0.12288609475E+04  0.12288609475E+04  0.00000000000E+00 0. -1.
        -24    2    1    2    0    0 -0.58416970144E+03 -0.34320878881E+03 -0.22174696064E+03  0.71725271385E+03  0.78950795843E+02 0.  0.
    5000000    2    1    2    0    0  0.58416970144E+03  0.34320878881E+03 -0.48971950822E+03  0.10290027122E+04  0.59997905979E+03 0.  0.
        -24    2    4    4    0    0  0.59225275443E+03  0.21701166056E+03 -0.14400479699E+03  0.65216668105E+03  0.82015927466E+02 0.  0.
         24    2    4    4    0    0 -0.80830529907E+01  0.12619712825E+03 -0.34571471123E+03  0.37683603116E+03  0.80595793254E+02 0.  0.
         11    1    5    5    0    0  0.28952926235E+03  0.12355021081E+03 -0.33235041592E+02  0.31653817516E+03  0.00000000000E+00 0. -1.
        -12    1    5    5    0    0  0.30272349208E+03  0.93461449753E+02 -0.11076975540E+03  0.33562850588E+03  0.00000000000E+00 0.  1.
         15    1    3    3    0    0 -0.28509663800E+02 -0.42727937047E+01 -0.22353868113E+02  0.36522744210E+02  0.17770000000E+01 0. -1.
        -16    1    3    3    0    0 -0.55566003764E+03 -0.33893599511E+03 -0.19939309253E+03  0.68072996964E+03  0.00000000000E+00 0.  1.
          4    1    6    6  502    0 -0.39654538324E+02  0.92283441806E+02 -0.19791795515E+03  0.22194646429E+03  0.00000000000E+00 0. -1.
         -3    1    6    6    0  502  0.31571485334E+02  0.33913686446E+02 -0.14779675609E+03  0.15488956687E+03  0.00000000000E+00 0.  1.
<mgrwt>
<rscale>  0 0.72907210E+03</rscale>
<asrwt>0</asrwt>
<pdfrwt beam="1">  1        3 0.18905553E+00 0.72907210E+03</pdfrwt>
<pdfrwt beam="2">  1       -4 0.79599151E-01 0.72907210E+03</pdfrwt>
<totfact> 0.54952570E-01</totfact>
</mgrwt>
</event>
<event>
12    3  0.1176505E-007  0.5452344E+03  0.7818608E-02  0.1002603E+00
         -2   -1    0    0    0  501 -0.00000000000E+00  0.00000000000E+00  0.10061852224E+04  0.10061852224E+04  0.00000000000E+00 0.  1.
          1   -1    0    0  501    0  0.00000000000E+00 -0.00000000000E+00 -0.64127088970E+03  0.64127088970E+03  0.00000000000E+00 0. -1.
        -24    2    1    2    0    0 -0.33695140674E+03 -0.26403113784E+03  0.71051707670E+03  0.83346140785E+03  0.81084584434E+02 0.  0.
    5000000    2    1    2    0    0  0.33695140674E+03  0.26403113784E+03 -0.34560274400E+03  0.81399470426E+03  0.59991451862E+03 0.  0.
        -24    2    4    4    0    0 -0.93199455217E+02  0.17013337749E+03  0.51725015603E+02  0.21597826379E+03  0.79621784728E+02 0.  0.
         24    2    4    4    0    0  0.43015086196E+03  0.93897760353E+02 -0.39732775960E+03  0.59801644047E+03  0.76861961197E+02 0.  0.
         11    1    5    5    0    0 -0.49096390377E+02  0.20551510182E+02  0.19854188824E+02  0.56806768370E+02  0.00000000000E+00 0. -1.
        -12    1    5    5    0    0 -0.44103064839E+02  0.14958186731E+03  0.31870826779E+02  0.15917149542E+03  0.00000000000E+00 0.  1.
         15    1    3    3    0    0 -0.18464950481E+02 -0.44774002512E+02  0.66521886541E+02  0.82304221126E+02  0.17770000000E+01 0. -1.
        -16    1    3    3    0    0 -0.31848645626E+03 -0.21925713533E+03  0.64399519016E+03  0.75115718672E+03  0.00000000000E+00 0.  1.
          2    1    6    6  502    0  0.31823890539E+03  0.10141074993E+03 -0.28188476482E+03  0.43705738953E+03  0.00000000000E+00 0. -1.
         -1    1    6    6    0  502  0.11191195656E+03 -0.75129895750E+01 -0.11544299478E+03  0.16095905094E+03  0.00000000000E+00 0.  1.
<mgrwt>
<rscale>  0 0.54523442E+03</rscale>
<asrwt>0</asrwt>
<pdfrwt beam="1">  1        1 0.98657060E-01 0.54523442E+03</pdfrwt>
<pdfrwt beam="2">  1       -2 0.15479773E+00 0.54523442E+03</pdfrwt>
<totfact> 0.78678606E+00</totfact>
</mgrwt>
</event>
<event>
12    3  0.1176505E-007  0.6670455E+03  0.7818608E-02  0.9775310E-01
          1   -1    0    0  501    0  0.00000000000E+00  0.00000000000E+00  0.13096731045E+04  0.13096731045E+04  0.00000000000E+00 0. -1.
         -2   -1    0    0    0  501 -0.00000000000E+00 -0.00000000000E+00 -0.68862442734E+03  0.68862442734E+03  0.00000000000E+00 0.  1.
        -24    2    1    2    0    0  0.53409086585E+03  0.14749406707E+03  0.96229137117E+03  0.11133228614E+04  0.80470851241E+02 0.  0.
    5000000    2    1    2    0    0 -0.53409086585E+03 -0.14749406707E+03 -0.34124269403E+03  0.88497467041E+03  0.59977165508E+03 0.  0.
        -24    2    4    4    0    0 -0.48089229445E+03  0.11699953480E+03 -0.33819518059E+03  0.60432005344E+03  0.76684136652E+02 0.  0.
         24    2    4    4    0    0 -0.53198571400E+02 -0.26449360187E+03 -0.30475134425E+01  0.28065461697E+03  0.77270778814E+02 0.  0.
         13    1    5    5    0    0 -0.14121537303E+03  0.25166361459E+02 -0.14015574823E+03  0.20054615701E+03  0.00000000000E+00 0. -1.
        -14    1    5    5    0    0 -0.33967692143E+03  0.91833173341E+02 -0.19803943236E+03  0.40377389644E+03  0.00000000000E+00 0.  1.
         15    1    3    3    0    0  0.21875185770E+03  0.10024018623E+03  0.43490507557E+03  0.49703727492E+03  0.17770000000E+01 0. -1.
        -16    1    3    3    0    0  0.31533900816E+03  0.47253880842E+02  0.52738629561E+03  0.61628558649E+03  0.00000000000E+00 0.  1.
          2    1    6    6  502    0  0.15151049719E+02 -0.18176245206E+02 -0.80103019812E+01  0.24981896149E+02  0.00000000000E+00 0. -1.
         -1    1    6    6    0  502 -0.68349621120E+02 -0.24631735666E+03  0.49627885386E+01  0.25567272082E+03  0.00000000000E+00 0.  1.
<mgrwt>
<rscale>  0 0.66704555E+03</rscale>
<asrwt>0</asrwt>
<pdfrwt beam="1">  1        1 0.20148817E+00 0.66704555E+03</pdfrwt>
<pdfrwt beam="2">  1       -2 0.10594222E+00 0.66704555E+03</pdfrwt>
<totfact> 0.58560448E+00</totfact>
</mgrwt>
</event>
<event>
12    3  0.1176505E-007  0.5718703E+03  0.7818608E-02  0.9965548E-01
          1   -1    0    0  501    0  0.00000000000E+00  0.00000000000E+00  0.20530475936E+04  0.20530475936E+04  0.00000000000E+00 0. -1.
         -2   -1    0    0    0  501 -0.00000000000E+00 -0.00000000000E+00 -0.13232821242E+04  0.13232821242E+04  0.00000000000E+00 0.  1.
        -24    2    1    2    0    0  0.11807752685E+03 -0.42945204179E+03 -0.12131432863E+04  0.12946888248E+04  0.78301732998E+02 0.  0.
    5000000    2    1    2    0    0 -0.11807752685E+03  0.42945204179E+03  0.19429087558E+04  0.20816408930E+04  0.59996917902E+03 0.  0.
        -24    2    4    4    0    0  0.16266804541E+03  0.72424217768E+01  0.22739674498E+03  0.29098271275E+03  0.80301393650E+02 0.  0.
         24    2    4    4    0    0 -0.28074557226E+03  0.42220962002E+03  0.17155120108E+04  0.17906581803E+04  0.79976370821E+02 0.  0.
         13    1    5    5    0    0  0.11950408062E+03 -0.31307214402E+02  0.16019462281E+03  0.20229603094E+03  0.00000000000E+00 0. -1.
        -14    1    5    5    0    0  0.43163964787E+02  0.38549636179E+02  0.67202122177E+02  0.88686681811E+02  0.00000000000E+00 0.  1.
         15    1    3    3    0    0  0.74168826196E+01 -0.13529615341E+03 -0.30655748075E+03  0.33517265104E+03  0.17770000000E+01 0. -1.
        -16    1    3    3    0    0  0.11066064423E+03 -0.29415588838E+03 -0.90658580558E+03  0.95951617377E+03  0.00000000000E+00 0.  1.
          2    1    6    6  502    0 -0.12538498397E+03  0.12432362239E+03  0.63810199730E+03  0.66208150272E+03  0.00000000000E+00 0. -1.
         -1    1    6    6    0  502 -0.15536058829E+03  0.29788599763E+03  0.10774100135E+04  0.11285766776E+04  0.00000000000E+00 0.  1.
<mgrwt>
<rscale>  0 0.57187030E+03</rscale>
<asrwt>0</asrwt>
<pdfrwt beam="1">  1        1 0.31585348E+00 0.57187030E+03</pdfrwt>
<pdfrwt beam="2">  1       -2 0.20358187E+00 0.57187030E+03</pdfrwt>
<totfact> 0.33497619E-01</totfact>
</mgrwt>
</event>
<event>
12    3  0.1176505E-007  0.4731948E+03  0.7818608E-02  0.1021022E+00
          1   -1    0    0  501    0  0.00000000000E+00  0.00000000000E+00  0.24878853686E+04  0.24878853686E+04  0.00000000000E+00 0. -1.
         -2   -1    0    0    0  501 -0.00000000000E+00 -0.00000000000E+00 -0.13228359415E+03  0.13228359415E+03  0.00000000000E+00 0.  1.
        -24    2    1    2    0    0 -0.40998925697E+03 -0.21145690856E+02  0.79044636282E+03  0.89438754367E+03  0.81149828754E+02 0.  0.
    5000000    2    1    2    0    0  0.40998925697E+03  0.21145690856E+02  0.15651554116E+04  0.17257814191E+04  0.60005975773E+03 0.  0.
        -24    2    4    4    0    0  0.32019491804E+03  0.15545329117E+03  0.38257203456E+03  0.52947108764E+03  0.85368376757E+02 0.  0.
         24    2    4    4    0    0  0.89794338936E+02 -0.13430760032E+03  0.11825833771E+04  0.11963103315E+04  0.80953138234E+02 0.  0.
         11    1    5    5    0    0  0.85358437746E+01  0.28073404771E+02  0.31221795203E+02  0.42845970407E+02  0.00000000000E+00 0. -1.
        -12    1    5    5    0    0  0.31165907426E+03  0.12737988640E+03  0.35135023936E+03  0.48662511724E+03  0.00000000000E+00 0.  1.
         15    1    3    3    0    0 -0.18245250928E+03  0.29240931972E+02  0.32516672893E+03  0.37400602880E+03  0.17770000000E+01 0. -1.
        -16    1    3    3    0    0 -0.22753674769E+03 -0.50386622827E+02  0.46527963389E+03  0.52038151488E+03  0.00000000000E+00 0.  1.
          4    1    6    6  502    0  0.50185150253E+02 -0.90356777347E+02  0.97490120268E+03  0.98036485632E+03  0.00000000000E+00 0. -1.
         -3    1    6    6    0  502  0.39609188682E+02 -0.43950822971E+02  0.20768217441E+03  0.21594547514E+03  0.00000000000E+00 0.  1.
<mgrwt>
<rscale>  0 0.47319482E+03</rscale>
<asrwt>0</asrwt>
<pdfrwt beam="1">  1        1 0.38275156E+00 0.47319482E+03</pdfrwt>
<pdfrwt beam="2">  1       -2 0.20351324E-01 0.47319482E+03</pdfrwt>
<totfact> 0.27518642E+01</totfact>
</mgrwt>
</event>
<event>
12    3  0.1176505E-007  0.1468897E+04  0.7818608E-02  0.8905403E-01
         -2   -1    0    0    0  501 -0.00000000000E+00  0.00000000000E+00  0.95629469453E+03  0.95629469453E+03  0.00000000000E+00 0.  1.
          1   -1    0    0  501    0  0.00000000000E+00 -0.00000000000E+00 -0.24818437088E+04  0.24818437088E+04  0.00000000000E+00 0. -1.
        -24    2    1    2    0    0 -0.85739459756E+02 -0.14155206837E+04 -0.12110990143E+04  0.18665510689E+04  0.78752837789E+02 0.  0.
    5000000    2    1    2    0    0  0.85739459756E+02  0.14155206837E+04 -0.31445000004E+03  0.15715873345E+04  0.59996490432E+03 0.  0.
        -24    2    4    4    0    0 -0.22598986967E+03  0.51288579290E+03 -0.94902382643E+01  0.56606440001E+03  0.78838966110E+02 0.  0.
         24    2    4    4    0    0  0.31172932942E+03  0.90263489079E+03 -0.30495976177E+03  0.10055229345E+04  0.78428276386E+02 0.  0.
         11    1    5    5    0    0 -0.82503946957E+02  0.24456120682E+03 -0.36134992622E+02  0.26062007374E+03  0.00000000000E+00 0. -1.
        -12    1    5    5    0    0 -0.14348592271E+03  0.26832458608E+03  0.26644754358E+02  0.30544432627E+03  0.00000000000E+00 0.  1.
         15    1    3    3    0    0  0.38682385513E+01 -0.36567102252E+03 -0.34208271918E+03  0.50075343680E+03  0.17770000000E+01 0. -1.
        -16    1    3    3    0    0 -0.89607698307E+02 -0.10498496612E+04 -0.86901629509E+03  0.13657976321E+04  0.00000000000E+00 0.  1.
          4    1    6    6  502    0  0.12593777600E+03  0.29816423309E+03 -0.13505815067E+03  0.35071774603E+03  0.00000000000E+00 0. -1.
         -3    1    6    6    0  502  0.18579155343E+03  0.60447065770E+03 -0.16990161110E+03  0.65480518844E+03  0.00000000000E+00 0.  1.
<mgrwt>
<rscale>  0 0.14688972E+04</rscale>
<asrwt>0</asrwt>
<pdfrwt beam="1">  1        1 0.38182210E+00 0.14688972E+04</pdfrwt>
<pdfrwt beam="2">  1       -2 0.14712226E+00 0.14688972E+04</pdfrwt>
<totfact> 0.36666548E-01</totfact>
</mgrwt>
</event>
<event>
12    3  0.1176505E-007  0.5082884E+03  0.7818608E-02  0.1011638E+00
          1   -1    0    0  501    0  0.00000000000E+00  0.00000000000E+00  0.11324442794E+04  0.11324442794E+04  0.00000000000E+00 0. -1.
         -2   -1    0    0    0  501 -0.00000000000E+00 -0.00000000000E+00 -0.24864368005E+03  0.24864368005E+03  0.00000000000E+00 0.  1.
        -24    2    1    2    0    0 -0.11542613335E+03  0.33604327222E+03  0.29832296079E+03  0.47070199625E+03  0.79470165896E+02 0.  0.
    5000000    2    1    2    0    0  0.11542613335E+03 -0.33604327222E+03  0.58547763861E+03  0.91038596325E+03  0.59980852253E+03 0.  0.
        -24    2    4    4    0    0 -0.17079189038E+03  0.44885699452E+02  0.77914459438E+02  0.20968122964E+03  0.81920444585E+02 0.  0.
         24    2    4    4    0    0  0.28621802373E+03 -0.38092897168E+03  0.50756317917E+03  0.70070473360E+03  0.79618492029E+02 0.  0.
         11    1    5    5    0    0 -0.56983931143E+02  0.55320609608E+01 -0.13104998543E+02  0.58732555655E+02  0.00000000000E+00 0. -1.
        -12    1    5    5    0    0 -0.11380795924E+03  0.39353638491E+02  0.91019457981E+02  0.15094867399E+03  0.00000000000E+00 0.  1.
         15    1    3    3    0    0 -0.28585256241E+02  0.14302366001E+03  0.78903143678E+02  0.16583650988E+03  0.17770000000E+01 0. -1.
        -16    1    3    3    0    0 -0.86840877113E+02  0.19301961221E+03  0.21941981711E+03  0.30486548637E+03  0.00000000000E+00 0.  1.
          4    1    6    6  502    0  0.13901110943E+03 -0.24138284915E+03  0.32236668853E+03  0.42603996325E+03  0.00000000000E+00 0. -1.
         -3    1    6    6    0  502  0.14720691430E+03 -0.13954612252E+03  0.18519649065E+03  0.27466477036E+03  0.00000000000E+00 0.  1.
<mgrwt>
<rscale>  0 0.50828839E+03</rscale>
<asrwt>0</asrwt>
<pdfrwt beam="1">  1        1 0.17422219E+00 0.50828839E+03</pdfrwt>
<pdfrwt beam="2">  1       -2 0.38252875E-01 0.50828839E+03</pdfrwt>
<totfact> 0.70992895E+01</totfact>
</mgrwt>
</event>
<event>
12    3  0.1176505E-007  0.6577160E+03  0.7818608E-02  0.9792407E-01
         -2   -1    0    0    0  501 -0.00000000000E+00  0.00000000000E+00  0.13903881084E+04  0.13903881084E+04  0.00000000000E+00 0.  1.
          1   -1    0    0  501    0  0.00000000000E+00 -0.00000000000E+00 -0.75892407291E+03  0.75892407291E+03  0.00000000000E+00 0. -1.
        -24    2    1    2    0    0  0.48967374630E+03 -0.19288774441E+03  0.11012758422E+04  0.12231540100E+04  0.79443010265E+02 0.  0.
    5000000    2    1    2    0    0 -0.48967374630E+03  0.19288774441E+03 -0.46981180670E+03  0.92615817129E+03  0.60004980191E+03 0.  0.
        -24    2    4    4    0    0 -0.26442675869E+03 -0.19583006772E+03 -0.24250474937E+03  0.41645596915E+03  0.79725119229E+02 0.  0.
         24    2    4    4    0    0 -0.22524698761E+03  0.38871781213E+03 -0.22730705733E+03  0.50970220214E+03  0.79310110684E+02 0.  0.
         11    1    5    5    0    0 -0.12635394094E+03 -0.50726503671E+02 -0.75621076246E+02  0.15574672946E+03  0.00000000000E+00 0. -1.
        -12    1    5    5    0    0 -0.13807281775E+03 -0.14510356405E+03 -0.16688367312E+03  0.26070923969E+03  0.00000000000E+00 0.  1.
         15    1    3    3    0    0  0.20828694361E+03 -0.10433918484E+03  0.56404378821E+03  0.61026114830E+03  0.17770000000E+01 0. -1.
        -16    1    3    3    0    0  0.28138680269E+03 -0.88548559572E+02  0.53723205396E+03  0.61289286170E+03  0.00000000000E+00 0.  1.
          4    1    6    6  502    0 -0.10835795382E+03  0.14802577106E+03 -0.55263398961E+02  0.19159101837E+03  0.00000000000E+00 0. -1.
         -3    1    6    6    0  502 -0.11688903379E+03  0.24069204107E+03 -0.17204365837E+03  0.31811118377E+03  0.00000000000E+00 0.  1.
<mgrwt>
<rscale>  0 0.65771600E+03</rscale>
<asrwt>0</asrwt>
<pdfrwt beam="1">  1        1 0.11675755E+00 0.65771600E+03</pdfrwt>
<pdfrwt beam="2">  1       -2 0.21390586E+00 0.65771600E+03</pdfrwt>
<totfact> 0.23813778E+00</totfact>
</mgrwt>
</event>
<event>
12    3  0.1176505E-007  0.6464154E+03  0.7818608E-02  0.9813529E-01
         -4   -1    0    0    0  501 -0.00000000000E+00  0.00000000000E+00  0.41831611696E+03  0.41831611696E+03  0.00000000000E+00 0.  1.
          3   -1    0    0  501    0  0.00000000000E+00 -0.00000000000E+00 -0.12873965953E+04  0.12873965953E+04  0.00000000000E+00 0. -1.
        -24    2    1    2    0    0  0.60141499185E+03  0.73595042811E+02 -0.42411499271E+03  0.74386472541E+03  0.79655382238E+02 0.  0.
    5000000    2    1    2    0    0 -0.60141499185E+03 -0.73595042811E+02 -0.44496548563E+03  0.96184798685E+03  0.60003420207E+03 0.  0.
        -24    2    4    4    0    0 -0.43996402747E+03 -0.17412826228E+03 -0.55050001052E+03  0.73015642572E+03  0.78671133426E+02 0.  0.
         24    2    4    4    0    0 -0.16145096438E+03  0.10053321947E+03  0.10553452490E+03  0.23169156113E+03  0.79812915234E+02 0.  0.
         11    1    5    5    0    0 -0.32698213619E+03 -0.10146212001E+03 -0.35733784700E+03  0.49487596030E+03  0.00000000000E+00 0. -1.
        -12    1    5    5    0    0 -0.11298189128E+03 -0.72666142264E+02 -0.19316216352E+03  0.23528046541E+03  0.00000000000E+00 0.  1.
         15    1    3    3    0    0  0.15248732552E+03  0.52522960488E+02 -0.12405960221E+03  0.20348215758E+03  0.17770000000E+01 0. -1.
        -16    1    3    3    0    0  0.44892766633E+03  0.21072082323E+02 -0.30005539050E+03  0.54038256783E+03  0.00000000000E+00 0.  1.
          2    1    6    6  502    0 -0.11542182883E+03  0.26781762916E+02  0.50510249564E+02  0.12880507252E+03  0.00000000000E+00 0. -1.
         -1    1    6    6    0  502 -0.46029135550E+02  0.73751456552E+02  0.55024275331E+02  0.10288648861E+03  0.00000000000E+00 0.  1.
<mgrwt>
<rscale>  0 0.64641540E+03</rscale>
<asrwt>0</asrwt>
<pdfrwt beam="1">  1        3 0.19806101E+00 0.64641540E+03</pdfrwt>
<pdfrwt beam="2">  1       -4 0.64356328E-01 0.64641540E+03</pdfrwt>
<totfact> 0.77690404E-01</totfact>
</mgrwt>
</event>
<event>
12    3  0.1176505E-007  0.5621228E+03  0.7818608E-02  0.9987263E-01
          1   -1    0    0  501    0  0.00000000000E+00  0.00000000000E+00  0.13215033508E+04  0.13215033508E+04  0.00000000000E+00 0. -1.
         -2   -1    0    0    0  501 -0.00000000000E+00 -0.00000000000E+00 -0.34687321154E+03  0.34687321154E+03  0.00000000000E+00 0.  1.
        -24    2    1    2    0    0  0.49819822986E+03  0.20662883332E+03  0.34664899406E+03  0.64597418667E+03  0.78868078245E+02 0.  0.
    5000000    2    1    2    0    0 -0.49819822986E+03 -0.20662883332E+03  0.62798114515E+03  0.10224023756E+04  0.60004112193E+03 0.  0.
        -24    2    4    4    0    0 -0.18766818434E+03 -0.96329038787E+01  0.61322811087E+03  0.64642139965E+03  0.80621149317E+02 0.  0.
         24    2    4    4    0    0 -0.31053004552E+03 -0.19699592944E+03  0.14753034284E+02  0.37598097597E+03  0.76861803782E+02 0.  0.
         13    1    5    5    0    0 -0.19022332854E+03 -0.22061114332E+02  0.56596062532E+03  0.59748057450E+03  0.00000000000E+00 0. -1.
        -14    1    5    5    0    0  0.25551441986E+01  0.12428210453E+02  0.47267485545E+02  0.48940825154E+02  0.00000000000E+00 0.  1.
         15    1    3    3    0    0  0.26907290905E+03  0.69649390792E+02  0.18531628014E+03  0.33406069724E+03  0.17770000000E+01 0. -1.
        -16    1    3    3    0    0  0.22912532081E+03  0.13697944253E+03  0.16133271392E+03  0.31191348944E+03  0.00000000000E+00 0.  1.
          4    1    6    6  502    0 -0.24379874536E+03 -0.11533246825E+03  0.16348570583E+01  0.26970739558E+03  0.00000000000E+00 0. -1.
         -3    1    6    6    0  502 -0.66731300163E+02 -0.81663461192E+02  0.13118177226E+02  0.10627358039E+03  0.00000000000E+00 0.  1.
<mgrwt>
<rscale>  0 0.56212279E+03</rscale>
<asrwt>0</asrwt>
<pdfrwt beam="1">  1        1 0.20330820E+00 0.56212279E+03</pdfrwt>
<pdfrwt beam="2">  1       -2 0.53365110E-01 0.56212279E+03</pdfrwt>
<totfact> 0.26675313E+01</totfact>
</mgrwt>
</event>
<event>
12    3  0.1176505E-007  0.4430409E+03  0.7818608E-02  0.1029818E+00
         -2   -1    0    0    0  501 -0.00000000000E+00  0.00000000000E+00  0.22596899687E+03  0.22596899687E+03  0.00000000000E+00 0.  1.
          1   -1    0    0  501    0  0.00000000000E+00 -0.00000000000E+00 -0.12884623951E+04  0.12884623951E+04  0.00000000000E+00 0. -1.
        -24    2    1    2    0    0  0.32327755173E+03  0.16515733552E+03 -0.29392423594E+03  0.47401309840E+03  0.80694733733E+02 0.  0.
    5000000    2    1    2    0    0 -0.32327755173E+03 -0.16515733552E+03 -0.76856916232E+03  0.10404182936E+04  0.59998862277E+03 0.  0.
        -24    2    4    4    0    0 -0.33852988560E+03  0.84047700235E+01 -0.77198918314E+03  0.84683173135E+03  0.80520548451E+02 0.  0.
         24    2    4    4    0    0  0.15252333870E+02 -0.17356210554E+03  0.34200208225E+01  0.19358656225E+03  0.84306716066E+02 0.  0.
         11    1    5    5    0    0 -0.19283471132E+02 -0.60293058986E+01 -0.10881854924E+03  0.11067827903E+03  0.00000000000E+00 0. -1.
        -12    1    5    5    0    0 -0.31924641447E+03  0.14434075922E+02 -0.66317063390E+03  0.73615345232E+03  0.00000000000E+00 0.  1.
         15    1    3    3    0    0  0.21977010694E+03  0.14870578147E+03 -0.18959652835E+03  0.32613235142E+03  0.17770000000E+01 0. -1.
        -16    1    3    3    0    0  0.10350744479E+03  0.16451554045E+02 -0.10432770759E+03  0.14788074698E+03  0.00000000000E+00 0.  1.
          2    1    6    6  502    0  0.19914781099E+02 -0.79314553074E+02  0.41651851921E+02  0.91772945926E+02  0.00000000000E+00 0. -1.
         -1    1    6    6    0  502 -0.46624472296E+01 -0.94247552467E+02 -0.38231831099E+02  0.10181361633E+03  0.00000000000E+00 0.  1.
<mgrwt>
<rscale>  0 0.44304089E+03</rscale>
<asrwt>0</asrwt>
<pdfrwt beam="1">  1        1 0.19822498E+00 0.44304089E+03</pdfrwt>
<pdfrwt beam="2">  1       -2 0.34764462E-01 0.44304089E+03</pdfrwt>
<totfact> 0.66532299E+01</totfact>
</mgrwt>
</event>
<event>
12    3  0.1176505E-007  0.6405921E+03  0.7818608E-02  0.9824594E-01
          1   -1    0    0  501    0  0.00000000000E+00  0.00000000000E+00  0.37084471208E+03  0.37084471208E+03  0.00000000000E+00 0. -1.
         -2   -1    0    0    0  501 -0.00000000000E+00 -0.00000000000E+00 -0.11405591096E+04  0.11405591096E+04  0.00000000000E+00 0.  1.
        -24    2    1    2    0    0 -0.43096397945E+03  0.26273229407E+03 -0.23507544477E+03  0.56254193547E+03  0.80216921528E+02 0.  0.
    5000000    2    1    2    0    0  0.43096397945E+03 -0.26273229407E+03 -0.53463895277E+03  0.94886188624E+03  0.59978484427E+03 0.  0.
        -24    2    4    4    0    0 -0.26708609383E+02  0.14089166628E+03 -0.76304883713E+02  0.18157473721E+03  0.81136542161E+02 0.  0.
         24    2    4    4    0    0  0.45767258883E+03 -0.40362396035E+03 -0.45833406906E+03  0.76728714903E+03  0.79265063348E+02 0.  0.
         11    1    5    5    0    0 -0.31215775763E+02  0.20972424396E+02  0.30120843433E+01  0.37727177123E+02  0.00000000000E+00 0. -1.
        -12    1    5    5    0    0  0.45071663805E+01  0.11991924188E+03 -0.79316968056E+02  0.14384756009E+03  0.00000000000E+00 0.  1.
         15    1    3    3    0    0 -0.18438705227E+03  0.71035448757E+02 -0.72925191962E+02  0.21063205211E+03  0.17770000000E+01 0. -1.
        -16    1    3    3    0    0 -0.24657692718E+03  0.19169684532E+03 -0.16215025281E+03  0.35190988336E+03  0.00000000000E+00 0.  1.
          4    1    6    6  502    0  0.26227514556E+03 -0.27319003880E+03 -0.25476406516E+03  0.45642718825E+03  0.00000000000E+00 0. -1.
         -3    1    6    6    0  502  0.19539744327E+03 -0.13043392156E+03 -0.20357000390E+03  0.31085996078E+03  0.00000000000E+00 0.  1.
<mgrwt>
<rscale>  0 0.64059214E+03</rscale>
<asrwt>0</asrwt>
<pdfrwt beam="1">  1        1 0.57053033E-01 0.64059214E+03</pdfrwt>
<pdfrwt beam="2">  1       -2 0.17547063E+00 0.64059214E+03</pdfrwt>
<totfact> 0.11667570E+01</totfact>
</mgrwt>
</event>
<event>
12    3  0.1176505E-007  0.6944594E+03  0.7818608E-02  0.9726755E-01
          1   -1    0    0  501    0  0.00000000000E+00  0.00000000000E+00  0.81395666264E+03  0.81395666264E+03  0.00000000000E+00 0. -1.
         -2   -1    0    0    0  501 -0.00000000000E+00 -0.00000000000E+00 -0.75310020845E+03  0.75310020845E+03  0.00000000000E+00 0.  1.
        -24    2    1    2    0    0  0.32853824555E+03  0.53600290973E+03 -0.19151707721E+03  0.66210609222E+03  0.80431265477E+02 0.  0.
    5000000    2    1    2    0    0 -0.32853824555E+03 -0.53600290973E+03  0.25237353139E+03  0.90495077887E+03  0.60000584565E+03 0.  0.
        -24    2    4    4    0    0  0.29911416987E+02 -0.32975802705E+03  0.33346761303E+03  0.47671496013E+03  0.80133981583E+02 0.  0.
         24    2    4    4    0    0 -0.35844966253E+03 -0.20624488268E+03 -0.81094081637E+02  0.42823581874E+03  0.76069403654E+02 0.  0.
         11    1    5    5    0    0  0.19629425287E+02 -0.35804272990E+02  0.15789648827E+02  0.43778685584E+02  0.00000000000E+00 0. -1.
        -12    1    5    5    0    0  0.10281991700E+02 -0.29395375406E+03  0.31767796421E+03  0.43293627455E+03  0.00000000000E+00 0.  1.
         15    1    3    3    0    0  0.11418496455E+03  0.26266299328E+03 -0.83698347542E+02  0.29839340689E+03  0.17770000000E+01 0. -1.
        -16    1    3    3    0    0  0.21435328100E+03  0.27333991645E+03 -0.10781872967E+03  0.36371268532E+03  0.00000000000E+00 0.  1.
          4    1    6    6  502    0 -0.13106481453E+03 -0.35405829967E+02 -0.33952006607E+02  0.13994390718E+03  0.00000000000E+00 0. -1.
         -3    1    6    6    0  502 -0.22738484800E+03 -0.17083905271E+03 -0.47142075030E+02  0.28829191156E+03  0.00000000000E+00 0.  1.
<mgrwt>
<rscale>  0 0.69445937E+03</rscale>
<asrwt>0</asrwt>
<pdfrwt beam="1">  1        1 0.12522410E+00 0.69445937E+03</pdfrwt>
<pdfrwt beam="2">  1       -2 0.11586157E+00 0.69445937E+03</pdfrwt>
<totfact> 0.11215606E+01</totfact>
</mgrwt>
</event>
<event>
12    3  0.1176505E-007  0.4205151E+03  0.7818608E-02  0.1036899E+00
          1   -1    0    0  501    0  0.00000000000E+00  0.00000000000E+00  0.13574249658E+04  0.13574249658E+04  0.00000000000E+00 0. -1.
         -2   -1    0    0    0  501 -0.00000000000E+00 -0.00000000000E+00 -0.13349643873E+03  0.13349643873E+03  0.00000000000E+00 0.  1.
        -24    2    1    2    0    0  0.98326442611E+02  0.17547739383E+03  0.26671507628E+03  0.34339949451E+03  0.79535374872E+02 0.  0.
    5000000    2    1    2    0    0 -0.98326442611E+02 -0.17547739383E+03  0.95721345081E+03  0.11475219100E+04  0.60007377758E+03 0.  0.
        -24    2    4    4    0    0  0.23641739084E+03 -0.13973119723E+02  0.43304570318E+03  0.50002538992E+03  0.80052350066E+02 0.  0.
         24    2    4    4    0    0 -0.33474383346E+03 -0.16150427410E+03  0.52416774763E+03  0.64749652012E+03  0.79767482838E+02 0.  0.
         11    1    5    5    0    0  0.15885028925E+03  0.21588735233E+02  0.32464464679E+03  0.36206854955E+03  0.00000000000E+00 0. -1.
        -12    1    5    5    0    0  0.77567101593E+02 -0.35561854956E+02  0.10840105638E+03  0.13795684036E+03  0.00000000000E+00 0.  1.
         15    1    3    3    0    0 -0.31236939890E+01  0.68739116720E+02  0.78011808017E+02  0.10403760643E+03  0.17770000000E+01 0. -1.
        -16    1    3    3    0    0  0.10145013660E+03  0.10673827711E+03  0.18870326826E+03  0.23936188809E+03  0.00000000000E+00 0.  1.
          4    1    6    6  502    0 -0.30449045709E+03 -0.11854204120E+03  0.46556982813E+03  0.56878987232E+03  0.00000000000E+00 0. -1.
         -3    1    6    6    0  502 -0.30253376368E+02 -0.42962232904E+02  0.58597919502E+02  0.78706647799E+02  0.00000000000E+00 0.  1.
<mgrwt>
<rscale>  0 0.42051507E+03</rscale>
<asrwt>0</asrwt>
<pdfrwt beam="1">  1        1 0.20883460E+00 0.42051507E+03</pdfrwt>
<pdfrwt beam="2">  1       -2 0.20537915E-01 0.42051507E+03</pdfrwt>
<totfact> 0.15482987E+02</totfact>
</mgrwt>
</event>
<event>
12    3  0.1176505E-007  0.4735947E+03  0.7818608E-02  0.1020911E+00
         -2   -1    0    0    0  501 -0.00000000000E+00  0.00000000000E+00  0.34047125269E+03  0.34047125269E+03  0.00000000000E+00 0.  1.
          1   -1    0    0  501    0  0.00000000000E+00 -0.00000000000E+00 -0.81389389423E+03  0.81389389423E+03  0.00000000000E+00 0. -1.
        -24    2    1    2    0    0  0.29714664692E+03 -0.65259573061E+01 -0.36250130677E+03  0.47564723684E+03  0.80587707585E+02 0.  0.
    5000000    2    1    2    0    0 -0.29714664692E+03  0.65259573061E+01 -0.11092133477E+03  0.67871791007E+03  0.60001311740E+03 0.  0.
        -24    2    4    4    0    0  0.22322669873E+02  0.23918161233E+03  0.24995165338E+02  0.25394940712E+03  0.78481831127E+02 0.  0.
         24    2    4    4    0    0 -0.31946931679E+03 -0.23265565502E+03 -0.13591650011E+03  0.42476850296E+03  0.75932127029E+02 0.  0.
         13    1    5    5    0    0 -0.24560102334E+02  0.14848290708E+03  0.11102997447E+02  0.15090940618E+03  0.00000000000E+00 0. -1.
        -14    1    5    5    0    0  0.46882772207E+02  0.90698705249E+02  0.13892167891E+02  0.10304000093E+03  0.00000000000E+00 0.  1.
         15    1    3    3    0    0  0.69590449962E+02 -0.15816506024E+01 -0.38134825347E+02  0.79389892164E+02  0.17770000000E+01 0. -1.
        -16    1    3    3    0    0  0.22755619696E+03 -0.49443067038E+01 -0.32436648142E+03  0.39625734468E+03  0.00000000000E+00 0.  1.
          4    1    6    6  502    0 -0.24881631245E+03 -0.15897509503E+03 -0.70636800548E+02  0.30359874138E+03  0.00000000000E+00 0. -1.
         -3    1    6    6    0  502 -0.70653004345E+02 -0.73680559995E+02 -0.65279699562E+02  0.12116976157E+03  0.00000000000E+00 0.  1.
<mgrwt>
<rscale>  0 0.47359469E+03</rscale>
<asrwt>0</asrwt>
<pdfrwt beam="1">  1        1 0.12521444E+00 0.47359469E+03</pdfrwt>
<pdfrwt beam="2">  1       -2 0.52380194E-01 0.47359469E+03</pdfrwt>
<totfact> 0.67762898E+01</totfact>
</mgrwt>
</event>
<event>
12    3  0.1176505E-007  0.2459807E+03  0.7818608E-02  0.1115872E+00
          1   -1    0    0  501    0  0.00000000000E+00  0.00000000000E+00  0.67895620936E+03  0.67895620936E+03  0.00000000000E+00 0. -1.
         -2   -1    0    0    0  501 -0.00000000000E+00 -0.00000000000E+00 -0.33739412094E+03  0.33739412094E+03  0.00000000000E+00 0.  1.
        -24    2    1    2    0    0  0.13832377827E+03  0.83531553921E+02  0.34985163104E+03  0.39476121747E+03  0.85611137951E+02 0.  0.
    5000000    2    1    2    0    0 -0.13832377827E+03 -0.83531553921E+02 -0.82895426215E+01  0.62158911283E+03  0.60016107882E+03 0.  0.
        -24    2    4    4    0    0 -0.71282743708E+02  0.93628556321E+02 -0.26028470676E+03  0.29634295615E+03  0.78889054862E+02 0.  0.
         24    2    4    4    0    0 -0.67041034560E+02 -0.17716011024E+03  0.25199516414E+03  0.32524615668E+03  0.80020589279E+02 0.  0.
         11    1    5    5    0    0 -0.39754503859E+02  0.47595351354E+02 -0.52672802696E+02  0.81364379132E+02  0.00000000000E+00 0. -1.
        -12    1    5    5    0    0 -0.31528239849E+02  0.46033204966E+02 -0.20761190407E+03  0.21497857702E+03  0.00000000000E+00 0.  1.
         15    1    3    3    0    0  0.13268617921E+03  0.44247340656E+02  0.30026365762E+03  0.33124744697E+03  0.17770000000E+01 0. -1.
        -16    1    3    3    0    0  0.56375990579E+01  0.39284213266E+02  0.49587973426E+02  0.63513770503E+02  0.00000000000E+00 0.  1.
          4    1    6    6  502    0 -0.14447374550E+02 -0.10101097204E+03  0.18402514073E+03  0.21042147116E+03  0.00000000000E+00 0. -1.
         -3    1    6    6    0  502 -0.52593660010E+02 -0.76149138202E+02  0.67970023406E+02  0.11482468552E+03  0.00000000000E+00 0.  1.
<mgrwt>
<rscale>  0 0.24598073E+03</rscale>
<asrwt>0</asrwt>
<pdfrwt beam="1">  1        1 0.10445480E+00 0.24598073E+03</pdfrwt>
<pdfrwt beam="2">  1       -2 0.51906788E-01 0.24598073E+03</pdfrwt>
<totfact> 0.93830555E+01</totfact>
</mgrwt>
</event>
<event>
12    3  0.1176505E-007  0.9462696E+03  0.7818608E-02  0.9369521E-01
         -2   -1    0    0    0  501 -0.00000000000E+00  0.00000000000E+00  0.56346733548E+03  0.56346733548E+03  0.00000000000E+00 0.  1.
          1   -1    0    0  501    0  0.00000000000E+00 -0.00000000000E+00 -0.16644250094E+04  0.16644250094E+04  0.00000000000E+00 0. -1.
        -24    2    1    2    0    0  0.22611636222E+03 -0.82576239111E+03 -0.69532076702E+03  0.11065619009E+04  0.89421113774E+02 0.  0.
    5000000    2    1    2    0    0 -0.22611636222E+03  0.82576239111E+03 -0.40563690691E+03  0.11213304440E+04  0.59985709014E+03 0.  0.
        -24    2    4    4    0    0  0.56566261076E+02  0.72866135201E+03 -0.30400302472E+03  0.79549836465E+03  0.79074024375E+02 0.  0.
         24    2    4    4    0    0 -0.28268262330E+03  0.97101039102E+02 -0.10163388219E+03  0.32583207936E+03  0.80616503411E+02 0.  0.
         11    1    5    5    0    0  0.66587837604E+01  0.47940765397E+03 -0.22236752382E+03  0.52851050484E+03  0.00000000000E+00 0. -1.
        -12    1    5    5    0    0  0.49907477316E+02  0.24925369804E+03 -0.81635500901E+02  0.26698785981E+03  0.00000000000E+00 0.  1.
         15    1    3    3    0    0  0.16568292685E+03 -0.45396326309E+03 -0.41552744092E+03  0.63733797029E+03  0.17770000000E+01 0. -1.
        -16    1    3    3    0    0  0.60433435372E+02 -0.37179912802E+03 -0.27979332609E+03  0.46922393058E+03  0.00000000000E+00 0.  1.
          4    1    6    6  502    0 -0.16501804208E+03  0.59658195984E+02 -0.17341453899E+02  0.17632577969E+03  0.00000000000E+00 0. -1.
         -3    1    6    6    0  502 -0.11766458122E+03  0.37442843117E+02 -0.84292428291E+02  0.14950629967E+03  0.00000000000E+00 0.  1.
<mgrwt>
<rscale>  0 0.94626960E+03</rscale>
<asrwt>0</asrwt>
<pdfrwt beam="1">  1        1 0.25606538E+00 0.94626960E+03</pdfrwt>
<pdfrwt beam="2">  1       -2 0.86687283E-01 0.94626960E+03</pdfrwt>
<totfact> 0.51441716E+00</totfact>
</mgrwt>
</event>
<event>
12    3  0.1176505E-007  0.6796954E+03  0.7818608E-02  0.9752600E-01
         -2   -1    0    0    0  501 -0.00000000000E+00  0.00000000000E+00  0.65407379731E+03  0.65407379731E+03  0.00000000000E+00 0.  1.
          1   -1    0    0  501    0  0.00000000000E+00 -0.00000000000E+00 -0.22788768895E+04  0.22788768895E+04  0.00000000000E+00 0. -1.
        -24    2    1    2    0    0  0.12822612719E+03 -0.59115513988E+03 -0.19330367108E+04  0.20270247718E+04  0.79323142529E+02 0.  0.
    5000000    2    1    2    0    0 -0.12822612719E+03  0.59115513988E+03  0.30823361859E+03  0.90592591507E+03  0.59982285790E+03 0.  0.
        -24    2    4    4    0    0 -0.27519725990E+03  0.47335270597E+03  0.21997998987E+02  0.55362810333E+03  0.78891373013E+02 0.  0.
         24    2    4    4    0    0  0.14697113271E+03  0.11780243391E+03  0.28623561960E+03  0.35229781174E+03  0.81884009056E+02 0.  0.
         13    1    5    5    0    0 -0.17577578888E+03  0.36773314655E+03  0.27122059097E+02  0.40848549682E+03  0.00000000000E+00 0. -1.
        -14    1    5    5    0    0 -0.99421471020E+02  0.10561955942E+03 -0.51240601095E+01  0.14514260651E+03  0.00000000000E+00 0.  1.
         15    1    3    3    0    0  0.31537629266E+02 -0.10662812173E+03 -0.26601221303E+03  0.28832244729E+03  0.17770000000E+01 0. -1.
        -16    1    3    3    0    0  0.96688497925E+02 -0.48452701815E+03 -0.16670244978E+04  0.17387023245E+04  0.00000000000E+00 0.  1.
          2    1    6    6  502    0  0.52510678072E+02  0.87891425854E+02  0.17961470240E+03  0.20674553288E+03  0.00000000000E+00 0. -1.
         -1    1    6    6    0  502  0.94460454638E+02  0.29911008060E+02  0.10662091721E+03  0.14555227885E+03  0.00000000000E+00 0.  1.
<mgrwt>
<rscale>  0 0.67969540E+03</rscale>
<asrwt>0</asrwt>
<pdfrwt beam="1">  1        1 0.35059645E+00 0.67969540E+03</pdfrwt>
<pdfrwt beam="2">  1       -2 0.10062674E+00 0.67969540E+03</pdfrwt>
<totfact> 0.14662976E+00</totfact>
</mgrwt>
</event>
<event>
12    3  0.1176505E-007  0.1162342E+04  0.7818608E-02  0.9146472E-01
         -2   -1    0    0    0  501 -0.00000000000E+00  0.00000000000E+00  0.11222215203E+04  0.11222215203E+04  0.00000000000E+00 0.  1.
          1   -1    0    0  501    0  0.00000000000E+00 -0.00000000000E+00 -0.17455896436E+04  0.17455896436E+04  0.00000000000E+00 0. -1.
        -24    2    1    2    0    0  0.97178705901E+03  0.52446185364E+03 -0.10645521147E+04  0.15358598796E+04  0.78511406396E+02 0.  0.
    5000000    2    1    2    0    0 -0.97178705901E+03 -0.52446185364E+03  0.44118399148E+03  0.13319512843E+04  0.60001715425E+03 0.  0.
        -24    2    4    4    0    0 -0.37697358112E+03  0.58677421279E+02  0.80105637431E+01  0.38980159332E+03  0.79554964596E+02 0.  0.
         24    2    4    4    0    0 -0.59481347789E+03 -0.58313927492E+03  0.43317342774E+03  0.94214969097E+03  0.78436816980E+02 0.  0.
         11    1    5    5    0    0 -0.34591107776E+03  0.65696221419E+02  0.26304174018E+02  0.35307559643E+03  0.00000000000E+00 0. -1.
        -12    1    5    5    0    0 -0.31062503369E+02 -0.70188001404E+01 -0.18293610275E+02  0.36725996894E+02  0.00000000000E+00 0.  1.
         15    1    3    3    0    0  0.28323497930E+03  0.13980882604E+03 -0.25890051077E+03  0.40841301833E+03  0.17770000000E+01 0. -1.
        -16    1    3    3    0    0  0.68855207972E+03  0.38465302760E+03 -0.80565160393E+03  0.11274468613E+04  0.00000000000E+00 0.  1.
          2    1    6    6  502    0 -0.25494307212E+03 -0.20016516238E+03  0.15218300068E+03  0.35808061655E+03  0.00000000000E+00 0. -1.
         -1    1    6    6    0  502 -0.33987040577E+03 -0.38297411254E+03  0.28099042706E+03  0.58406907442E+03  0.00000000000E+00 0.  1.
<mgrwt>
<rscale>  0 0.11623423E+04</rscale>
<asrwt>0</asrwt>
<pdfrwt beam="1">  1        1 0.26855225E+00 0.11623423E+04</pdfrwt>
<pdfrwt beam="2">  1       -2 0.17264947E+00 0.11623423E+04</pdfrwt>
<totfact> 0.77799369E-01</totfact>
</mgrwt>
</event>
<event>
12    3  0.1176505E-007  0.4386618E+03  0.7818608E-02  0.1031158E+00
          1   -1    0    0  501    0  0.00000000000E+00  0.00000000000E+00  0.35469056145E+04  0.35469056145E+04  0.00000000000E+00 0. -1.
         -2   -1    0    0    0  501 -0.00000000000E+00 -0.00000000000E+00 -0.13548723370E+03  0.13548723370E+03  0.00000000000E+00 0.  1.
        -24    2    1    2    0    0 -0.21043645761E+03  0.12140540378E+03  0.27313774178E+04  0.27432975403E+04  0.78968480361E+02 0.  0.
    5000000    2    1    2    0    0  0.21043645761E+03 -0.12140540378E+03  0.68004096297E+03  0.93909530796E+03  0.60035115671E+03 0.  0.
        -24    2    4    4    0    0 -0.19275437005E+03  0.20655354378E+02  0.26195298063E+03  0.33562926846E+03  0.80291661745E+02 0.  0.
         24    2    4    4    0    0  0.40319082766E+03 -0.14206075816E+03  0.41808798234E+03  0.60346603951E+03  0.81422339334E+02 0.  0.
         13    1    5    5    0    0 -0.11989196217E+03 -0.13569575906E+02  0.20186579658E+03  0.23517656306E+03  0.00000000000E+00 0. -1.
        -14    1    5    5    0    0 -0.72862407876E+02  0.34224930284E+02  0.60087184055E+02  0.10045270540E+03  0.00000000000E+00 0.  1.
         15    1    3    3    0    0 -0.12296571504E+03  0.71143778864E+02  0.11568476082E+04  0.11655391674E+04  0.17770000000E+01 0. -1.
        -16    1    3    3    0    0 -0.87470742573E+02  0.50261624919E+02  0.15745298096E+04  0.15777583729E+04  0.00000000000E+00 0.  1.
          4    1    6    6  502    0  0.30041302492E+03 -0.13735063756E+03  0.34220804701E+03  0.47562540997E+03  0.00000000000E+00 0. -1.
         -3    1    6    6    0  502  0.10277780274E+03 -0.47101206006E+01  0.75879935332E+02  0.12784062953E+03  0.00000000000E+00 0.  1.
<mgrwt>
<rscale>  0 0.43866176E+03</rscale>
<asrwt>0</asrwt>
<pdfrwt beam="1">  1        1 0.54567772E+00 0.43866176E+03</pdfrwt>
<pdfrwt beam="2">  1       -2 0.20844192E-01 0.43866176E+03</pdfrwt>
<totfact> 0.46641249E+00</totfact>
</mgrwt>
</event>
<event>
12    3  0.1176505E-007  0.1209212E+04  0.7818608E-02  0.9104831E-01
         -2   -1    0    0    0  501 -0.00000000000E+00  0.00000000000E+00  0.26939083481E+04  0.26939083481E+04  0.00000000000E+00 0.  1.
          1   -1    0    0  501    0  0.00000000000E+00 -0.00000000000E+00 -0.11127868855E+04  0.11127868855E+04  0.00000000000E+00 0. -1.
        -24    2    1    2    0    0  0.24188550634E+03 -0.11577636678E+04 -0.54191817217E+03  0.13034857051E+04  0.80463466588E+02 0.  0.
    5000000    2    1    2    0    0 -0.24188550634E+03  0.11577636678E+04  0.21230396348E+04  0.25032095285E+04  0.59986277084E+03 0.  0.
        -24    2    4    4    0    0 -0.50620913492E+02  0.21698665493E+02  0.14504670412E+02  0.99153058562E+02  0.81164244539E+02 0.  0.
         24    2    4    4    0    0 -0.19126459285E+03  0.11360650023E+04  0.21085349644E+04  0.24040564699E+04  0.79636552663E+02 0.  0.
         11    1    5    5    0    0 -0.46282565572E+02 -0.11626159886E+02  0.35545120686E+02  0.59503773614E+02  0.00000000000E+00 0. -1.
        -12    1    5    5    0    0 -0.43383479193E+01  0.33324825379E+02 -0.21040450274E+02  0.39649284949E+02  0.00000000000E+00 0.  1.
         15    1    3    3    0    0  0.11600461653E+03 -0.64862255197E+03 -0.26304519250E+03  0.70948165375E+03  0.17770000000E+01 0. -1.
        -16    1    3    3    0    0  0.12588088980E+03 -0.50914111580E+03 -0.27887297967E+03  0.59400405134E+03  0.00000000000E+00 0.  1.
          4    1    6    6  502    0 -0.41286638230E+01  0.14925214005E+03  0.30949506158E+03  0.34362834621E+03  0.00000000000E+00 0. -1.
         -3    1    6    6    0  502 -0.18713592902E+03  0.98681286223E+03  0.17990399028E+04  0.20604281237E+04  0.00000000000E+00 0.  1.
<mgrwt>
<rscale>  0 0.12092122E+04</rscale>
<asrwt>0</asrwt>
<pdfrwt beam="1">  1        1 0.17119798E+00 0.12092122E+04</pdfrwt>
<pdfrwt beam="2">  1       -2 0.41444744E+00 0.12092122E+04</pdfrwt>
<totfact> 0.64026661E-02</totfact>
</mgrwt>
</event>
<event>
12    3  0.1176505E-007  0.5184348E+03  0.7818608E-02  0.1009076E+00
         -4   -1    0    0    0  501 -0.00000000000E+00  0.00000000000E+00  0.68971090079E+03  0.68971090079E+03  0.00000000000E+00 0.  1.
          1   -1    0    0  501    0  0.00000000000E+00 -0.00000000000E+00 -0.48499780838E+03  0.48499780838E+03  0.00000000000E+00 0. -1.
        -24    2    1    2    0    0 -0.35625627456E+02 -0.35307959502E+03  0.29970002588E+03  0.47112987339E+03  0.78796359921E+02 0.  0.
    5000000    2    1    2    0    0  0.35625627456E+02  0.35307959502E+03 -0.94986933478E+02  0.70357883577E+03  0.60005522651E+03 0.  0.
        -24    2    4    4    0    0  0.17922133821E+03  0.45854336514E+03 -0.36858713179E+02  0.49993898803E+03  0.78728147644E+02 0.  0.
         24    2    4    4    0    0 -0.14359571076E+03 -0.10546377012E+03 -0.58128220300E+02  0.20363984774E+03  0.79674102674E+02 0.  0.
         13    1    5    5    0    0  0.39142695363E+02  0.16657375408E+03  0.15850967542E+02  0.17184358969E+03  0.00000000000E+00 0. -1.
        -14    1    5    5    0    0  0.14007864285E+03  0.29196961107E+03 -0.52709680721E+02  0.32809539834E+03  0.00000000000E+00 0.  1.
         15    1    3    3    0    0 -0.20579448012E+02 -0.25933129381E+03  0.26126127864E+03  0.36869614464E+03  0.17770000000E+01 0. -1.
        -16    1    3    3    0    0 -0.15046179444E+02 -0.93748301215E+02  0.38438747247E+02  0.10243372875E+03  0.00000000000E+00 0.  1.
          4    1    6    6  502    0 -0.87982628004E+02 -0.29741004424E+02  0.54121216781E+00  0.92874986327E+02  0.00000000000E+00 0. -1.
         -3    1    6    6    0  502 -0.55613082753E+02 -0.75722765695E+02 -0.58669432467E+02  0.11076486141E+03  0.00000000000E+00 0.  1.
<mgrwt>
<rscale>  0 0.51843479E+03</rscale>
<asrwt>0</asrwt>
<pdfrwt beam="1">  1        1 0.74615047E-01 0.51843479E+03</pdfrwt>
<pdfrwt beam="2">  1       -4 0.10610937E+00 0.51843479E+03</pdfrwt>
<totfact> 0.16062591E+01</totfact>
</mgrwt>
</event>
<event>
12    3  0.1176505E-007  0.5108009E+03  0.7818608E-02  0.1010998E+00
          1   -1    0    0  501    0  0.00000000000E+00  0.00000000000E+00  0.88925919980E+03  0.88925919980E+03  0.00000000000E+00 0. -1.
         -2   -1    0    0    0  501 -0.00000000000E+00 -0.00000000000E+00 -0.66553737293E+03  0.66553737293E+03  0.00000000000E+00 0.  1.
        -24    2    1    2    0    0 -0.21496593499E+03 -0.36075084938E+03 -0.40573420180E+03  0.58925474831E+03  0.79053066762E+02 0.  0.
    5000000    2    1    2    0    0  0.21496593499E+03  0.36075084938E+03  0.62945602867E+03  0.96554182442E+03  0.59975377793E+03 0.  0.
        -24    2    4    4    0    0 -0.33160694085E+02  0.34021032142E+03  0.60990973612E+03  0.70333174093E+03  0.76439238352E+02 0.  0.
         24    2    4    4    0    0  0.24812662908E+03  0.20540527962E+02  0.19546292549E+02  0.26221008349E+03  0.79895763244E+02 0.  0.
         11    1    5    5    0    0 -0.52174865427E+02  0.26426205804E+03  0.43416021463E+03  0.51093223021E+03  0.00000000000E+00 0. -1.
        -12    1    5    5    0    0  0.19014171342E+02  0.75948263375E+02  0.17574952149E+03  0.19239951072E+03  0.00000000000E+00 0.  1.
         15    1    3    3    0    0 -0.66190797443E+02 -0.11648377393E+03 -0.81177773867E+02  0.15666103521E+03  0.17770000000E+01 0. -1.
        -16    1    3    3    0    0 -0.14877513755E+03 -0.24426707545E+03 -0.32455642794E+03  0.43259371310E+03  0.00000000000E+00 0.  1.
          2    1    6    6  502    0  0.14699255790E+03  0.36770906767E+02 -0.19126595158E+02  0.15272438674E+03  0.00000000000E+00 0. -1.
         -1    1    6    6    0  502  0.10113407117E+03 -0.16230378805E+02  0.38672887707E+02  0.10948569675E+03  0.00000000000E+00 0.  1.
<mgrwt>
<rscale>  0 0.51080091E+03</rscale>
<asrwt>0</asrwt>
<pdfrwt beam="1">  1        1 0.13680911E+00 0.51080091E+03</pdfrwt>
<pdfrwt beam="2">  1       -2 0.10239036E+00 0.51080091E+03</pdfrwt>
<totfact> 0.13412371E+01</totfact>
</mgrwt>
</event>
<event>
12    3  0.1176505E-007  0.6140848E+03  0.7818608E-02  0.9876608E-01
         -2   -1    0    0    0  501 -0.00000000000E+00  0.00000000000E+00  0.91878670311E+03  0.91878670311E+03  0.00000000000E+00 0.  1.
          1   -1    0    0  501    0  0.00000000000E+00 -0.00000000000E+00 -0.57884370324E+03  0.57884370324E+03  0.00000000000E+00 0. -1.
        -24    2    1    2    0    0 -0.40744271669E+03  0.39925390399E+03 -0.58436552230E+02  0.57880258684E+03  0.78640680753E+02 0.  0.
    5000000    2    1    2    0    0  0.40744271669E+03 -0.39925390399E+03  0.39837955210E+03  0.91882781951E+03  0.60010419690E+03 0.  0.
        -24    2    4    4    0    0 -0.12415486645E+02 -0.18016660627E+01 -0.11587092988E+03  0.14105306986E+03  0.79451279509E+02 0.  0.
         24    2    4    4    0    0  0.41985820333E+03 -0.39745223793E+03  0.51425048199E+03  0.77777474965E+03  0.78935483933E+02 0.  0.
         13    1    5    5    0    0 -0.26542701214E+02  0.28324572309E+02 -0.92719563206E+02  0.10051723129E+03  0.00000000000E+00 0. -1.
        -14    1    5    5    0    0  0.14127214569E+02 -0.30126238371E+02 -0.23151366678E+02  0.40535838575E+02  0.00000000000E+00 0.  1.
         15    1    3    3    0    0 -0.14260753636E+03  0.17336202799E+03  0.71005079903E+01  0.22459937025E+03  0.17770000000E+01 0. -1.
        -16    1    3    3    0    0 -0.26483518033E+03  0.22589187600E+03 -0.65537060221E+02  0.35420321659E+03  0.00000000000E+00 0.  1.
          4    1    6    6  502    0  0.31071800556E+03 -0.33839601185E+03  0.40385328819E+03  0.61168212185E+03  0.00000000000E+00 0. -1.
         -3    1    6    6    0  502  0.10914019777E+03 -0.59056226078E+02  0.11039719380E+03  0.16609262779E+03  0.00000000000E+00 0.  1.
<mgrwt>
<rscale>  0 0.61408484E+03</rscale>
<asrwt>0</asrwt>
<pdfrwt beam="1">  1        1 0.89052877E-01 0.61408484E+03</pdfrwt>
<pdfrwt beam="2">  1       -2 0.14135180E+00 0.61408484E+03</pdfrwt>
<totfact> 0.11452491E+01</totfact>
</mgrwt>
</event>
<event>
12    3  0.1176505E-007  0.6020825E+03  0.7818608E-02  0.9901095E-01
         -4   -1    0    0    0  501 -0.00000000000E+00  0.00000000000E+00  0.93914985586E+03  0.93914985586E+03  0.00000000000E+00 0.  1.
          1   -1    0    0  501    0  0.00000000000E+00 -0.00000000000E+00 -0.10464975490E+04  0.10464975490E+04  0.00000000000E+00 0. -1.
        -24    2    1    2    0    0 -0.48732480084E+03  0.32937285254E+03 -0.72916065164E+03  0.94023980020E+03  0.80023049689E+02 0.  0.
    5000000    2    1    2    0    0  0.48732480084E+03 -0.32937285254E+03  0.62181295851E+03  0.10454076046E+04  0.60021143523E+03 0.  0.
        -24    2    4    4    0    0  0.28484069234E+03 -0.21595969486E+03 -0.11668416583E+02  0.36620317067E+03  0.78713407043E+02 0.  0.
         24    2    4    4    0    0  0.20248410849E+03 -0.11341315769E+03  0.63348137509E+03  0.67920443397E+03  0.78470708021E+02 0.  0.
         13    1    5    5    0    0  0.21376391904E+03 -0.20067332832E+03 -0.56418745475E+01  0.29325181760E+03  0.00000000000E+00 0. -1.
        -14    1    5    5    0    0  0.71076773307E+02 -0.15286366539E+02 -0.60265420352E+01  0.72951353069E+02  0.00000000000E+00 0.  1.
         15    1    3    3    0    0 -0.69581428076E+02  0.83929630690E+02 -0.13934622270E+03  0.17693582325E+03  0.17770000000E+01 0. -1.
        -16    1    3    3    0    0 -0.41774337276E+03  0.24544322185E+03 -0.58981442894E+03  0.76330397695E+03  0.00000000000E+00 0.  1.
          4    1    6    6  502    0  0.86748553226E+02 -0.93030130454E+02  0.34525467893E+03  0.36794117734E+03  0.00000000000E+00 0. -1.
         -3    1    6    6    0  502  0.11573555527E+03 -0.20383027234E+02  0.28822669615E+03  0.31126325663E+03  0.00000000000E+00 0.  1.
<mgrwt>
<rscale>  0 0.60208246E+03</rscale>
<asrwt>0</asrwt>
<pdfrwt beam="1">  1        1 0.16099962E+00 0.60208246E+03</pdfrwt>
<pdfrwt beam="2">  1       -4 0.14448459E+00 0.60208246E+03</pdfrwt>
<totfact> 0.22591120E+00</totfact>
</mgrwt>
</event>
<event>
12    3  0.1176505E-007  0.9675098E+03  0.7818608E-02  0.9344915E-01
         -2   -1    0    0    0  501 -0.00000000000E+00  0.00000000000E+00  0.76064835173E+03  0.76064835173E+03  0.00000000000E+00 0.  1.
          1   -1    0    0  501    0  0.00000000000E+00 -0.00000000000E+00 -0.13878140711E+04  0.13878140711E+04  0.00000000000E+00 0. -1.
        -24    2    1    2    0    0 -0.24754089615E+03  0.90093014110E+03 -0.37769981277E+03  0.10102323046E+04  0.70431145516E+02 0.  0.
    5000000    2    1    2    0    0  0.24754089615E+03 -0.90093014110E+03 -0.24946590658E+03  0.11382301182E+04  0.60031903939E+03 0.  0.
        -24    2    4    4    0    0 -0.26559319595E+02 -0.53863177706E+03  0.10675378724E+03  0.55553188002E+03  0.79935661038E+02 0.  0.
         24    2    4    4    0    0  0.27410021575E+03 -0.36229836404E+03 -0.35621969383E+03  0.58269823820E+03  0.79080551806E+02 0.  0.
         13    1    5    5    0    0 -0.51363390312E+02 -0.25229089799E+03  0.41266222448E+02  0.26075236565E+03  0.00000000000E+00 0. -1.
        -14    1    5    5    0    0  0.24804070717E+02 -0.28634087907E+03  0.65487564794E+02  0.29477951437E+03  0.00000000000E+00 0.  1.
         15    1    3    3    0    0 -0.24271157043E+03  0.83267968399E+03 -0.33622952046E+03  0.93022460229E+03  0.17770000000E+01 0. -1.
        -16    1    3    3    0    0 -0.48293257214E+01  0.68250457116E+02 -0.41470292312E+02  0.80007702304E+02  0.00000000000E+00 0.  1.
          2    1    6    6  502    0  0.12902643479E+03 -0.16338723204E+03 -0.21313959622E+03  0.29794579364E+03  0.00000000000E+00 0. -1.
         -1    1    6    6    0  502  0.14507378096E+03 -0.19891113200E+03 -0.14308009760E+03  0.28475244456E+03  0.00000000000E+00 0.  1.
<mgrwt>
<rscale>  0 0.96750980E+03</rscale>
<asrwt>0</asrwt>
<pdfrwt beam="1">  1        1 0.21350986E+00 0.96750980E+03</pdfrwt>
<pdfrwt beam="2">  1       -2 0.11702282E+00 0.96750980E+03</pdfrwt>
<totfact> 0.38936172E+00</totfact>
</mgrwt>
</event>
<event>
12    3  0.1176505E-007  0.1123523E+04  0.7818608E-02  0.9182563E-01
          1   -1    0    0  501    0  0.00000000000E+00  0.00000000000E+00  0.14136630844E+04  0.14136630844E+04  0.00000000000E+00 0. -1.
         -2   -1    0    0    0  501 -0.00000000000E+00 -0.00000000000E+00 -0.10226653184E+04  0.10226653184E+04  0.00000000000E+00 0.  1.
        -24    2    1    2    0    0  0.10704187151E+04  0.23856415137E+03  0.44365505076E+03  0.11850034983E+04  0.68515741585E+02 0.  0.
    5000000    2    1    2    0    0 -0.10704187151E+04 -0.23856415137E+03 -0.52657284780E+02  0.12513249046E+04  0.60027672547E+03 0.  0.
        -24    2    4    4    0    0 -0.59882149429E+03  0.31877781099E+02  0.21261118538E+03  0.64105648451E+03  0.78399778286E+02 0.  0.
         24    2    4    4    0    0 -0.47159722082E+03 -0.27044193247E+03 -0.26526847016E+03  0.61026842005E+03  0.80730451027E+02 0.  0.
         13    1    5    5    0    0 -0.23562925827E+03 -0.18505856981E+02  0.59688610103E+02  0.24377519207E+03  0.00000000000E+00 0. -1.
        -14    1    5    5    0    0 -0.36319223603E+03  0.50383638080E+02  0.15292257527E+03  0.39728129244E+03  0.00000000000E+00 0.  1.
         15    1    3    3    0    0  0.28419202481E+03  0.53027161088E+02  0.14795129607E+03  0.32476103602E+03  0.17770000000E+01 0. -1.
        -16    1    3    3    0    0  0.78622669030E+03  0.18553699029E+03  0.29570375469E+03  0.86024246224E+03  0.00000000000E+00 0.  1.
          4    1    6    6  502    0 -0.23569734425E+03 -0.99837247773E+02 -0.15321879113E+03  0.29832316719E+03  0.00000000000E+00 0. -1.
         -3    1    6    6    0  502 -0.23589987657E+03 -0.17060468470E+03 -0.11204967902E+03  0.31194525285E+03  0.00000000000E+00 0.  1.
<mgrwt>
<rscale>  0 0.11235231E+04</rscale>
<asrwt>0</asrwt>
<pdfrwt beam="1">  1        1 0.21748663E+00 0.11235231E+04</pdfrwt>
<pdfrwt beam="2">  1       -2 0.15733313E+00 0.11235231E+04</pdfrwt>
<totfact> 0.17087727E+00</totfact>
</mgrwt>
</event>
<event>
12    3  0.1176505E-007  0.4789612E+03  0.7818608E-02  0.1019421E+00
         -2   -1    0    0    0  501 -0.00000000000E+00  0.00000000000E+00  0.50487193803E+03  0.50487193803E+03  0.00000000000E+00 0.  1.
          1   -1    0    0  501    0  0.00000000000E+00 -0.00000000000E+00 -0.60113116902E+03  0.60113116902E+03  0.00000000000E+00 0. -1.
        -24    2    1    2    0    0  0.32160851672E+03  0.17496467245E+03 -0.14464873133E+03  0.40145379884E+03  0.78722439617E+02 0.  0.
    5000000    2    1    2    0    0 -0.32160851672E+03 -0.17496467245E+03  0.48389500340E+02  0.70454930820E+03  0.60000292442E+03 0.  0.
        -24    2    4    4    0    0 -0.13868351601E+03 -0.30886389939E+03  0.21816502766E+03  0.41045587385E+03  0.79044412319E+02 0.  0.
         24    2    4    4    0    0 -0.18292500070E+03  0.13389922694E+03 -0.16977552732E+03  0.29409343436E+03  0.79225372175E+02 0.  0.
         13    1    5    5    0    0  0.72393666203E+01 -0.41345388941E+01  0.12146716238E+02  0.14732466063E+02  0.00000000000E+00 0. -1.
        -14    1    5    5    0    0 -0.14592288263E+03 -0.30472936050E+03  0.20601831142E+03  0.39572340778E+03  0.00000000000E+00 0.  1.
         15    1    3    3    0    0  0.23792142904E+03  0.16023814035E+03 -0.13115301872E+03  0.31541582089E+03  0.17770000000E+01 0. -1.
        -16    1    3    3    0    0  0.83687087674E+02  0.14726532103E+02 -0.13495712608E+02  0.86037977951E+02  0.00000000000E+00 0.  1.
          2    1    6    6  502    0 -0.26861979460E+02  0.62981389381E+02 -0.54579855516E+02  0.87562446157E+02  0.00000000000E+00 0. -1.
         -1    1    6    6    0  502 -0.15606302124E+03  0.70917837561E+02 -0.11519567181E+03  0.20653098820E+03  0.00000000000E+00 0.  1.
<mgrwt>
<rscale>  0 0.47896119E+03</rscale>
<asrwt>0</asrwt>
<pdfrwt beam="1">  1        1 0.92481718E-01 0.47896119E+03</pdfrwt>
<pdfrwt beam="2">  1       -2 0.77672606E-01 0.47896119E+03</pdfrwt>
<totfact> 0.46092707E+01</totfact>
</mgrwt>
</event>
<event>
12    3  0.1176505E-007  0.9823498E+03  0.7818608E-02  0.9328118E-01
         -2   -1    0    0    0  501 -0.00000000000E+00  0.00000000000E+00  0.45125771845E+03  0.45125771845E+03  0.00000000000E+00 0.  1.
          1   -1    0    0  501    0  0.00000000000E+00 -0.00000000000E+00 -0.28934871660E+04  0.28934871660E+04  0.00000000000E+00 0. -1.
        -24    2    1    2    0    0 -0.92216770579E+03 -0.26432570859E+03 -0.46999050699E+03  0.10709882863E+04  0.76573330094E+02 0.  0.
    5000000    2    1    2    0    0  0.92216770579E+03  0.26432570859E+03 -0.19722389406E+04  0.22737565982E+04  0.59998439245E+03 0.  0.
        -24    2    4    4    0    0  0.20973530954E+03 -0.35813363287E+02 -0.10186519005E+04  0.10437726787E+04  0.80859219631E+02 0.  0.
         24    2    4    4    0    0  0.71243239625E+03  0.30013907188E+03 -0.95358704015E+03  0.12299839195E+04  0.76738630644E+02 0.  0.
         13    1    5    5    0    0  0.83870449080E+02 -0.53705306525E+02 -0.40203764881E+03  0.41418930845E+03  0.00000000000E+00 0. -1.
        -14    1    5    5    0    0  0.12586486046E+03  0.17891943238E+02 -0.61661425164E+03  0.62958337022E+03  0.00000000000E+00 0.  1.
         15    1    3    3    0    0 -0.96382259835E+02 -0.90832133322E+01 -0.31712219378E+02  0.10188654161E+03  0.17770000000E+01 0. -1.
        -16    1    3    3    0    0 -0.82578544596E+03 -0.25524249526E+03 -0.43827828761E+03  0.96910174467E+03  0.00000000000E+00 0.  1.
          2    1    6    6  502    0  0.29736753697E+03  0.84813780737E+02 -0.37253739529E+03  0.48415383953E+03  0.00000000000E+00 0. -1.
         -1    1    6    6    0  502  0.41506485928E+03  0.21532529114E+03 -0.58104964486E+03  0.74583007998E+03  0.00000000000E+00 0.  1.
<mgrwt>
<rscale>  0 0.98234984E+03</rscale>
<asrwt>0</asrwt>
<pdfrwt beam="1">  1        1 0.44515187E+00 0.98234984E+03</pdfrwt>
<pdfrwt beam="2">  1       -2 0.69424264E-01 0.98234984E+03</pdfrwt>
<totfact> 0.12171257E+00</totfact>
</mgrwt>
</event>
<event>
12    3  0.1176505E-007  0.1058583E+04  0.7818608E-02  0.9246527E-01
         -2   -1    0    0    0  501 -0.00000000000E+00  0.00000000000E+00  0.78357997379E+03  0.78357997379E+03  0.00000000000E+00 0.  1.
          1   -1    0    0  501    0  0.00000000000E+00 -0.00000000000E+00 -0.23537305191E+04  0.23537305191E+04  0.00000000000E+00 0. -1.
        -24    2    1    2    0    0  0.51101120794E+03  0.86568647331E+03  0.18768754681E+03  0.10253382405E+04  0.74473938672E+02 0.  0.
    5000000    2    1    2    0    0 -0.51101120794E+03 -0.86568647331E+03 -0.17578380921E+04  0.21119722523E+04  0.59990541912E+03 0.  0.
        -24    2    4    4    0    0 -0.58592436143E+03 -0.64989959138E+03 -0.16061914615E+04  0.18309292669E+04  0.82305123511E+02 0.  0.
         24    2    4    4    0    0  0.74913153492E+02 -0.21578688194E+03 -0.15164663063E+03  0.28104298542E+03  0.61745445913E+02 0.  0.
         11    1    5    5    0    0 -0.26645973317E+03 -0.30187532131E+03 -0.65462144330E+03  0.76854325385E+03  0.00000000000E+00 0. -1.
        -12    1    5    5    0    0 -0.31946462826E+03 -0.34802427006E+03 -0.95157001817E+03  0.10623860131E+04  0.00000000000E+00 0.  1.
         15    1    3    3    0    0  0.41070230183E+03  0.73869657469E+03  0.17411876528E+03  0.86294235748E+03  0.17770000000E+01 0. -1.
        -16    1    3    3    0    0  0.10030890611E+03  0.12698989863E+03  0.13568781534E+02  0.16239588305E+03  0.00000000000E+00 0.  1.
          4    1    6    6  502    0 -0.40656118118E+01 -0.62539384411E+02 -0.55096195816E+02  0.83446357592E+02  0.00000000000E+00 0. -1.
         -3    1    6    6    0  502  0.78978765304E+02 -0.15324749752E+03 -0.96550434811E+02  0.19759662783E+03  0.00000000000E+00 0.  1.
<mgrwt>
<rscale>  0 0.10585829E+04</rscale>
<asrwt>0</asrwt>
<pdfrwt beam="1">  1        1 0.36211238E+00 0.10585829E+04</pdfrwt>
<pdfrwt beam="2">  1       -2 0.12055077E+00 0.10585829E+04</pdfrwt>
<totfact> 0.78847296E-01</totfact>
</mgrwt>
</event>
<event>
12    3  0.1176505E-007  0.5836482E+03  0.7818608E-02  0.9939924E-01
         -2   -1    0    0    0  501 -0.00000000000E+00  0.00000000000E+00  0.11747764365E+03  0.11747764365E+03  0.00000000000E+00 0.  1.
          1   -1    0    0  501    0  0.00000000000E+00 -0.00000000000E+00 -0.31284426680E+04  0.31284426680E+04  0.00000000000E+00 0. -1.
        -24    2    1    2    0    0 -0.43668497997E+03  0.71821189662E+02 -0.91698011025E+03  0.10231507143E+04  0.10066184235E+03 0.  0.
    5000000    2    1    2    0    0  0.43668497997E+03 -0.71821189662E+02 -0.20939849141E+04  0.22227695974E+04  0.60006650256E+03 0.  0.
        -24    2    4    4    0    0  0.53661476693E+03  0.69370953455E+02 -0.16887475523E+04  0.17750564047E+04  0.78671513644E+02 0.  0.
         24    2    4    4    0    0 -0.99929786957E+02 -0.14119214312E+03 -0.40523736179E+03  0.44771319269E+03  0.79426695301E+02 0.  0.
         11    1    5    5    0    0  0.36770222120E+03  0.24130823646E+02 -0.12340857740E+04  0.12879265964E+04  0.00000000000E+00 0. -1.
        -12    1    5    5    0    0  0.16891254573E+03  0.45240129809E+02 -0.45466177831E+03  0.48712980827E+03  0.00000000000E+00 0.  1.
         15    1    3    3    0    0 -0.15752646128E+03  0.68483953236E+02 -0.40677331158E+03  0.44155670372E+03  0.17770000000E+01 0. -1.
        -16    1    3    3    0    0 -0.27915851869E+03  0.33372364255E+01 -0.51020679867E+03  0.58159401055E+03  0.00000000000E+00 0.  1.
          4    1    6    6  502    0 -0.22419188664E+02 -0.30941225029E+02 -0.18969729109E+03  0.19350721349E+03  0.00000000000E+00 0. -1.
         -3    1    6    6    0  502 -0.77510598293E+02 -0.11025091809E+03 -0.21554007070E+03  0.25420597921E+03  0.00000000000E+00 0.  1.
<mgrwt>
<rscale>  0 0.58364820E+03</rscale>
<asrwt>0</asrwt>
<pdfrwt beam="1">  1        1 0.48129885E+00 0.58364820E+03</pdfrwt>
<pdfrwt beam="2">  1       -2 0.18073485E-01 0.58364820E+03</pdfrwt>
<totfact> 0.11799793E+01</totfact>
</mgrwt>
</event>
<event>
12    3  0.1176505E-007  0.1386284E+04  0.7818608E-02  0.8963807E-01
          1   -1    0    0  501    0  0.00000000000E+00  0.00000000000E+00  0.17178027133E+04  0.17178027133E+04  0.00000000000E+00 0. -1.
         -2   -1    0    0    0  501 -0.00000000000E+00 -0.00000000000E+00 -0.15857001601E+04  0.15857001601E+04  0.00000000000E+00 0.  1.
        -24    2    1    2    0    0  0.52107609339E+03 -0.12430181734E+04 -0.78957262377E+03  0.15639221729E+04  0.76244081829E+02 0.  0.
    5000000    2    1    2    0    0 -0.52107609339E+03  0.12430181734E+04  0.92167517692E+03  0.17395807005E+04  0.60003450512E+03 0.  0.
        -24    2    4    4    0    0 -0.56369683639E+03  0.82893285250E+03  0.43885425280E+03  0.10971626027E+04  0.79302737676E+02 0.  0.
         24    2    4    4    0    0  0.42620743002E+02  0.41408532094E+03  0.48282092412E+03  0.64241809786E+03  0.79383795201E+02 0.  0.
         11    1    5    5    0    0 -0.22764715096E+03  0.29278380197E+03  0.12951029832E+03  0.39283393107E+03  0.00000000000E+00 0. -1.
        -12    1    5    5    0    0 -0.33604968543E+03  0.53614905054E+03  0.30934395448E+03  0.70432867160E+03  0.00000000000E+00 0.  1.
         15    1    3    3    0    0  0.51331216369E+01 -0.18771393816E+02 -0.23667026439E+01  0.19684338291E+02  0.17770000000E+01 0. -1.
        -16    1    3    3    0    0  0.51594297175E+03 -0.12242467796E+04 -0.78720592113E+03  0.15442378346E+04  0.00000000000E+00 0.  1.
          2    1    6    6  502    0  0.45225223207E+01  0.30997700447E+03  0.38721979041E+03  0.49602959851E+03  0.00000000000E+00 0. -1.
         -1    1    6    6    0  502  0.38098220681E+02  0.10410831647E+03  0.95601133713E+02  0.14638849936E+03  0.00000000000E+00 0.  1.
<mgrwt>
<rscale>  0 0.13862839E+04</rscale>
<asrwt>0</asrwt>
<pdfrwt beam="1">  1        1 0.26427734E+00 0.13862839E+04</pdfrwt>
<pdfrwt beam="2">  1       -2 0.24395387E+00 0.13862839E+04</pdfrwt>
<totfact> 0.27123313E-01</totfact>
</mgrwt>
</event>
<event>
12    3  0.1176505E-007  0.5309924E+03  0.7818608E-02  0.1005992E+00
         -2   -1    0    0    0  501 -0.00000000000E+00  0.00000000000E+00  0.27914935437E+03  0.27914935437E+03  0.00000000000E+00 0.  1.
          1   -1    0    0  501    0  0.00000000000E+00 -0.00000000000E+00 -0.12764786381E+04  0.12764786381E+04  0.00000000000E+00 0. -1.
        -24    2    1    2    0    0  0.13981642066E+03  0.34107771311E+03 -0.69186808708E+03  0.78800722862E+03  0.79945635070E+02 0.  0.
    5000000    2    1    2    0    0 -0.13981642066E+03 -0.34107771311E+03 -0.30546119661E+03  0.76762076381E+03  0.60004371219E+03 0.  0.
        -24    2    4    4    0    0 -0.36255525225E+03 -0.16811327175E+03 -0.13517990828E+03  0.42892294550E+03  0.77413839237E+02 0.  0.
         24    2    4    4    0    0  0.22273883159E+03 -0.17296444137E+03 -0.17028128833E+03  0.33869781831E+03  0.78684241729E+02 0.  0.
         11    1    5    5    0    0 -0.10232720006E+03 -0.19806890442E+02 -0.11458787983E+02  0.10485453067E+03  0.00000000000E+00 0. -1.
        -12    1    5    5    0    0 -0.26022805219E+03 -0.14830638131E+03 -0.12372112029E+03  0.32406841483E+03  0.00000000000E+00 0.  1.
         15    1    3    3    0    0  0.83844066707E+02  0.12466500518E+03 -0.33118722687E+03  0.36367475580E+03  0.17770000000E+01 0. -1.
        -16    1    3    3    0    0  0.55972353948E+02  0.21641270794E+03 -0.36068086021E+03  0.42433247281E+03  0.00000000000E+00 0.  1.
          4    1    6    6  502    0  0.18897460633E+03 -0.12808124072E+03 -0.16620823752E+03  0.28238517008E+03  0.00000000000E+00 0. -1.
         -1    1    6    6    0  502  0.33764225261E+02 -0.44883200645E+02 -0.40730508113E+01  0.56312648228E+02  0.00000000000E+00 0.  1.
<mgrwt>
<rscale>  0 0.53099242E+03</rscale>
<asrwt>0</asrwt>
<pdfrwt beam="1">  1        1 0.19638133E+00 0.53099242E+03</pdfrwt>
<pdfrwt beam="2">  1       -2 0.42946054E-01 0.53099242E+03</pdfrwt>
<totfact> 0.44577106E+01</totfact>
</mgrwt>
</event>
<event>
12    3  0.1176505E-007  0.4599557E+03  0.7818608E-02  0.1024794E+00
         -2   -1    0    0    0  501 -0.00000000000E+00  0.00000000000E+00  0.41445282213E+03  0.41445282213E+03  0.00000000000E+00 0.  1.
          1   -1    0    0  501    0  0.00000000000E+00 -0.00000000000E+00 -0.92635764805E+03  0.92635764805E+03  0.00000000000E+00 0. -1.
        -24    2    1    2    0    0 -0.18061469149E+03 -0.29027112836E+03  0.15298771422E+03  0.38241015845E+03  0.77157590974E+02 0.  0.
    5000000    2    1    2    0    0  0.18061469149E+03  0.29027112836E+03 -0.66489254014E+03  0.95840031174E+03  0.59964162036E+03 0.  0.
        -24    2    4    4    0    0  0.11357403855E+03 -0.10300428366E+03 -0.48204800668E+03  0.51255022573E+03  0.82634789674E+02 0.  0.
         24    2    4    4    0    0  0.67040652939E+02  0.39327541202E+03 -0.18284453345E+03  0.44585008600E+03  0.78677677467E+02 0.  0.
         11    1    5    5    0    0 -0.11111131812E+01 -0.45215325073E+02 -0.10877472065E+03  0.11780322596E+03  0.00000000000E+00 0. -1.
        -12    1    5    5    0    0  0.11468515173E+03 -0.57788958584E+02 -0.37327328603E+03  0.39474699977E+03  0.00000000000E+00 0.  1.
         15    1    3    3    0    0 -0.15326384637E+03 -0.25307905130E+03  0.15893816526E+03  0.33586204149E+03  0.17770000000E+01 0. -1.
        -16    1    3    3    0    0 -0.27350845121E+02 -0.37192077061E+02 -0.59504510425E+01  0.46548116960E+02  0.00000000000E+00 0.  1.
          4    1    6    6  502    0 -0.13188409229E+02  0.56875711751E+02 -0.44333147347E+02  0.73308994529E+02  0.00000000000E+00 0. -1.
         -3    1    6    6    0  502  0.80229062168E+02  0.33639970027E+03 -0.13851138611E+03  0.37254109147E+03  0.00000000000E+00 0.  1.
<mgrwt>
<rscale>  0 0.45995573E+03</rscale>
<asrwt>0</asrwt>
<pdfrwt beam="1">  1        1 0.14251656E+00 0.45995573E+03</pdfrwt>
<pdfrwt beam="2">  1       -2 0.63761973E-01 0.45995573E+03</pdfrwt>
<totfact> 0.36490929E+01</totfact>
</mgrwt>
</event>
<event>
12    3  0.1176505E-007  0.9398175E+03  0.7818608E-02  0.9377132E-01
          1   -1    0    0  501    0  0.00000000000E+00  0.00000000000E+00  0.69755526988E+03  0.69755526988E+03  0.00000000000E+00 0. -1.
         -2   -1    0    0    0  501 -0.00000000000E+00 -0.00000000000E+00 -0.18243323988E+04  0.18243323988E+04  0.00000000000E+00 0.  1.
        -24    2    1    2    0    0 -0.89315354300E+03  0.68444674929E+02 -0.11295103940E+04  0.14438166234E+04  0.80029912804E+02 0.  0.
    5000000    2    1    2    0    0  0.89315354300E+03 -0.68444674929E+02  0.27332651007E+01  0.10780710453E+04  0.59985146744E+03 0.  0.
        -24    2    4    4    0    0  0.45366458040E+03 -0.22392561166E+03  0.21981390899E+03  0.55744759101E+03  0.80470063203E+02 0.  0.
         24    2    4    4    0    0  0.43948896260E+03  0.15548093673E+03 -0.21708064389E+03  0.52062345424E+03  0.81239800723E+02 0.  0.
         13    1    5    5    0    0  0.35436497727E+03 -0.13641715782E+03  0.16989097572E+03  0.41598932882E+03  0.00000000000E+00 0. -1.
        -14    1    5    5    0    0  0.99299603127E+02 -0.87508453838E+02  0.49922933273E+02  0.14145826219E+03  0.00000000000E+00 0.  1.
         15    1    3    3    0    0 -0.43127274345E+03  0.66786110419E+02 -0.58346621456E+03  0.72862373352E+03  0.17770000000E+01 0. -1.
        -16    1    3    3    0    0 -0.46188079954E+03  0.16585645095E+01 -0.54604417943E+03  0.71519288987E+03  0.00000000000E+00 0.  1.
          4    1    6    6  502    0  0.16019494212E+03  0.84384384760E+02 -0.51499961596E+02  0.18824290137E+03  0.00000000000E+00 0. -1.
         -3    1    6    6    0  502  0.27929402048E+03  0.71096551975E+02 -0.16558068230E+03  0.33238055287E+03  0.00000000000E+00 0.  1.
<mgrwt>
<rscale>  0 0.93981749E+03</rscale>
<asrwt>0</asrwt>
<pdfrwt beam="1">  1        1 0.10731620E+00 0.93981749E+03</pdfrwt>
<pdfrwt beam="2">  1       -2 0.28066652E+00 0.93981749E+03</pdfrwt>
<totfact> 0.10154450E+00</totfact>
</mgrwt>
</event>
<event>
12    3  0.1176505E-007  0.5021228E+03  0.7818608E-02  0.1013226E+00
         -2   -1    0    0    0  501 -0.00000000000E+00  0.00000000000E+00  0.16229454609E+03  0.16229454609E+03  0.00000000000E+00 0.  1.
          1   -1    0    0  501    0  0.00000000000E+00 -0.00000000000E+00 -0.25473794809E+04  0.25473794809E+04  0.00000000000E+00 0. -1.
        -24    2    1    2    0    0 -0.43572036560E+03  0.22811071178E+03 -0.11145222360E+04  0.12209964375E+04  0.82375676502E+02 0.  0.
    5000000    2    1    2    0    0  0.43572036560E+03 -0.22811071178E+03 -0.12705626988E+04  0.14886775895E+04  0.59995388151E+03 0.  0.
        -24    2    4    4    0    0  0.26430414497E+03 -0.14931134897E+03 -0.12433725288E+04  0.12821908006E+04  0.76729678697E+02 0.  0.
         24    2    4    4    0    0  0.17141622063E+03 -0.78799362809E+02 -0.27190169965E+02  0.20648678890E+03  0.79401689992E+02 0.  0.
         13    1    5    5    0    0  0.32927420246E+02 -0.21274038763E+02 -0.79310451959E+02  0.88470037410E+02  0.00000000000E+00 0. -1.
        -14    1    5    5    0    0  0.23137672473E+03 -0.12803731020E+03 -0.11640620769E+04  0.11937207631E+04  0.00000000000E+00 0.  1.
         15    1    3    3    0    0 -0.11332880044E+03  0.93394401767E+02 -0.38668008828E+03  0.41363097042E+03  0.17770000000E+01 0. -1.
        -16    1    3    3    0    0 -0.32239156517E+03  0.13471631001E+03 -0.72784214774E+03  0.80736546712E+03  0.00000000000E+00 0.  1.
          4    1    6    6  502    0  0.42310986738E+00 -0.25103020980E+02 -0.73832232021E+01  0.26169689894E+02  0.00000000000E+00 0. -1.
         -3    1    6    6    0  502  0.17099311076E+03 -0.53696341828E+02 -0.19806946763E+02  0.18031709901E+03  0.00000000000E+00 0.  1.
<mgrwt>
<rscale>  0 0.50212278E+03</rscale>
<asrwt>0</asrwt>
<pdfrwt beam="1">  1        1 0.39190455E+00 0.50212278E+03</pdfrwt>
<pdfrwt beam="2">  1       -2 0.24968391E-01 0.50212278E+03</pdfrwt>
<totfact> 0.17371724E+01</totfact>
</mgrwt>
</event>
<event>
12    3  0.1176505E-007  0.1063257E+04  0.7818608E-02  0.9241763E-01
         -2   -1    0    0    0  501 -0.00000000000E+00  0.00000000000E+00  0.54198673274E+03  0.54198673274E+03  0.00000000000E+00 0.  1.
          1   -1    0    0  501    0  0.00000000000E+00 -0.00000000000E+00 -0.22992874201E+04  0.22992874201E+04  0.00000000000E+00 0. -1.
        -24    2    1    2    0    0 -0.68498665283E+03 -0.75509342824E+03 -0.10365749861E+04  0.14560814905E+04  0.79453163492E+02 0.  0.
    5000000    2    1    2    0    0  0.68498665283E+03  0.75509342824E+03 -0.72072570124E+03  0.13851926623E+04  0.59995031083E+03 0.  0.
        -24    2    4    4    0    0  0.38124555430E+03  0.13115826868E+03 -0.51109601593E+03  0.65588635763E+03  0.80106881742E+02 0.  0.
         24    2    4    4    0    0  0.30374109853E+03  0.62393515956E+03 -0.20962968531E+03  0.72930630472E+03  0.79933365218E+02 0.  0.
         11    1    5    5    0    0  0.39826138361E+02 -0.67038021239E+01 -0.31324854272E+02  0.51110749894E+02  0.00000000000E+00 0. -1.
        -12    1    5    5    0    0  0.34141941594E+03  0.13786207081E+03 -0.47977116166E+03  0.60477560773E+03  0.00000000000E+00 0.  1.
         15    1    3    3    0    0 -0.31829068256E+03 -0.32758152935E+03 -0.51608207530E+03  0.68917521948E+03  0.17770000000E+01 0. -1.
        -16    1    3    3    0    0 -0.36669597027E+03 -0.42751189889E+03 -0.52049291085E+03  0.76690627103E+03  0.00000000000E+00 0.  1.
          4    1    6    6  502    0  0.27651905537E+03  0.50317232411E+03 -0.18377752668E+03  0.60284272828E+03  0.00000000000E+00 0. -1.
         -1    1    6    6    0  502  0.27222043156E+02  0.12076283545E+03 -0.25852158632E+02  0.12646357644E+03  0.00000000000E+00 0.  1.
<mgrwt>
<rscale>  0 0.10632573E+04</rscale>
<asrwt>0</asrwt>
<pdfrwt beam="1">  1        1 0.35373653E+00 0.10632573E+04</pdfrwt>
<pdfrwt beam="2">  1       -2 0.83382574E-01 0.10632573E+04</pdfrwt>
<totfact> 0.20651291E+00</totfact>
</mgrwt>
</event>
<event>
12    3  0.1176505E-007  0.6764775E+03  0.7818608E-02  0.9758326E-01
         -2   -1    0    0    0  501 -0.00000000000E+00  0.00000000000E+00  0.32515232283E+03  0.32515232283E+03  0.00000000000E+00 0.  1.
          1   -1    0    0  501    0  0.00000000000E+00 -0.00000000000E+00 -0.23584349034E+04  0.23584349034E+04  0.00000000000E+00 0. -1.
        -24    2    1    2    0    0  0.41619934939E+03  0.51538985486E+03 -0.15029742830E+04  0.16445639133E+04  0.82523744316E+02 0.  0.
    5000000    2    1    2    0    0 -0.41619934939E+03 -0.51538985486E+03 -0.53030829750E+03  0.10390233129E+04  0.59957814631E+03 0.  0.
        -24    2    4    4    0    0 -0.23105686827E+03 -0.15691507780E+03 -0.55427039313E+03  0.62604725461E+03  0.81913846716E+02 0.  0.
         24    2    4    4    0    0 -0.18514248113E+03 -0.35847477706E+03  0.23962095636E+02  0.41297605834E+03  0.84812373096E+02 0.  0.
         13    1    5    5    0    0 -0.12569253606E+03 -0.68212303218E+02 -0.19935731829E+03  0.24534643321E+03  0.00000000000E+00 0. -1.
        -14    1    5    5    0    0 -0.10536433220E+03 -0.88702774581E+02 -0.35491307484E+03  0.38070082140E+03  0.00000000000E+00 0.  1.
         15    1    3    3    0    0  0.26545406828E+03  0.34778876624E+03 -0.89688578664E+03  0.99791290215E+03  0.17770000000E+01 0. -1.
        -16    1    3    3    0    0  0.15074528112E+03  0.16760108862E+03 -0.60608849641E+03  0.64665101111E+03  0.00000000000E+00 0.  1.
          2    1    6    6  502    0 -0.16065844967E+03 -0.24353738407E+03 -0.55572217816E+01  0.29180897451E+03  0.00000000000E+00 0. -1.
         -1    1    6    6    0  502 -0.24484031457E+02 -0.11493739299E+03  0.29519317417E+02  0.12116708383E+03  0.00000000000E+00 0.  1.
<mgrwt>
<rscale>  0 0.67647749E+03</rscale>
<asrwt>0</asrwt>
<pdfrwt beam="1">  1        1 0.36283615E+00 0.67647749E+03</pdfrwt>
<pdfrwt beam="2">  1       -2 0.50023433E-01 0.67647749E+03</pdfrwt>
<totfact> 0.59948390E+00</totfact>
</mgrwt>
</event>
<event>
12    3  0.1176505E-007  0.1950748E+04  0.7818608E-02  0.8630000E-01
          1   -1    0    0  501    0  0.00000000000E+00  0.00000000000E+00  0.32314231786E+04  0.32314231786E+04  0.00000000000E+00 0. -1.
         -2   -1    0    0    0  501 -0.00000000000E+00 -0.00000000000E+00 -0.13861969864E+04  0.13861969864E+04  0.00000000000E+00 0.  1.
        -24    2    1    2    0    0  0.36750705312E+03  0.19052901467E+04  0.17002559085E+04  0.25811966201E+04  0.80708487376E+02 0.  0.
    5000000    2    1    2    0    0 -0.36750705312E+03 -0.19052901467E+04  0.14497028364E+03  0.20364235449E+04  0.60067669664E+03 0.  0.
        -24    2    4    4    0    0 -0.54806173882E+02 -0.90935152855E+03 -0.19593515430E+03  0.93527712758E+03  0.80179807291E+02 0.  0.
         24    2    4    4    0    0 -0.31270087924E+03 -0.99593861815E+03  0.34090543794E+03  0.11011464173E+04  0.81433063180E+02 0.  0.
         13    1    5    5    0    0 -0.62962091614E+02 -0.54678916205E+03 -0.14395986689E+03  0.56891744216E+03  0.00000000000E+00 0. -1.
        -14    1    5    5    0    0  0.81559177326E+01 -0.36256236650E+03 -0.51975287414E+02  0.36635968542E+03  0.00000000000E+00 0.  1.
         15    1    3    3    0    0  0.11286703437E+03  0.43461310436E+03  0.36885601391E+03  0.58110707675E+03  0.17770000000E+01 0. -1.
        -16    1    3    3    0    0  0.25464001875E+03  0.14706770423E+04  0.13313998946E+04  0.20000895433E+04  0.00000000000E+00 0.  1.
          2    1    6    6  502    0 -0.15261649233E+02 -0.13518142069E+02  0.96755506100E+01  0.22567108408E+02  0.00000000000E+00 0. -1.
         -1    1    6    6    0  502 -0.29743923001E+03 -0.98242047608E+03  0.33122988733E+03  0.10785793089E+04  0.00000000000E+00 0.  1.
<mgrwt>
<rscale>  0 0.19507480E+04</rscale>
<asrwt>0</asrwt>
<pdfrwt beam="1">  1        1 0.49714203E+00 0.19507480E+04</pdfrwt>
<pdfrwt beam="2">  1       -2 0.21326108E+00 0.19507480E+04</pdfrwt>
<totfact> 0.34511336E-02</totfact>
</mgrwt>
</event>
<event>
12    3  0.1176505E-007  0.7995644E+03  0.7818608E-02  0.9560648E-01
         -2   -1    0    0    0  501 -0.00000000000E+00  0.00000000000E+00  0.13415528446E+04  0.13415528446E+04  0.00000000000E+00 0.  1.
          1   -1    0    0  501    0  0.00000000000E+00 -0.00000000000E+00 -0.75170217862E+03  0.75170217862E+03  0.00000000000E+00 0. -1.
        -24    2    1    2    0    0  0.24759380292E+03  0.71372898364E+03 -0.26605531580E+03  0.80341197980E+03  0.63036694812E+02 0.  0.
    5000000    2    1    2    0    0 -0.24759380292E+03 -0.71372898364E+03  0.85590598175E+03  0.12898430434E+04  0.60034013165E+03 0.  0.
        -24    2    4    4    0    0 -0.53984532914E+02 -0.60614335174E+03  0.29335274937E+03  0.67986422349E+03  0.76390013520E+02 0.  0.
         24    2    4    4    0    0 -0.19360927001E+03 -0.10758563190E+03  0.56255323237E+03  0.60997881990E+03  0.80924680096E+02 0.  0.
         11    1    5    5    0    0  0.88865611961E+01 -0.18482813607E+02  0.10957807425E+01  0.20537431781E+02  0.00000000000E+00 0. -1.
        -12    1    5    5    0    0 -0.62871094110E+02 -0.58766053813E+03  0.29225696863E+03  0.65932679171E+03  0.00000000000E+00 0.  1.
         15    1    3    3    0    0  0.22238852658E+03  0.63612613775E+03 -0.25737278124E+03  0.72135776570E+03  0.17770000000E+01 0. -1.
        -16    1    3    3    0    0  0.25205276338E+02  0.77602845888E+02 -0.86825345581E+01  0.82054214100E+02  0.00000000000E+00 0.  1.
          4    1    6    6  502    0  0.55992097017E+01 -0.70156702319E+01  0.73314884841E+01  0.11589715332E+02  0.00000000000E+00 0. -1.
         -3    1    6    6    0  502 -0.19920847971E+03 -0.10056996166E+03  0.55522174389E+03  0.59838910457E+03  0.00000000000E+00 0.  1.
<mgrwt>
<rscale>  0 0.79956444E+03</rscale>
<asrwt>0</asrwt>
<pdfrwt beam="1">  1        1 0.11564649E+00 0.79956444E+03</pdfrwt>
<pdfrwt beam="2">  1       -2 0.20639275E+00 0.79956444E+03</pdfrwt>
<totfact> 0.26405277E+00</totfact>
</mgrwt>
</event>
<event>
12    3  0.1176505E-007  0.1003350E+04  0.7818608E-02  0.9304878E-01
         -2   -1    0    0    0  501 -0.00000000000E+00  0.00000000000E+00  0.78588281359E+03  0.78588281359E+03  0.00000000000E+00 0.  1.
          1   -1    0    0  501    0  0.00000000000E+00 -0.00000000000E+00 -0.20033086111E+04  0.20033086111E+04  0.00000000000E+00 0. -1.
        -24    2    1    2    0    0 -0.51022556016E+03  0.78949066335E+03 -0.13706502021E+04  0.16635170486E+04  0.70578783541E+02 0.  0.
    5000000    2    1    2    0    0  0.51022556016E+03 -0.78949066335E+03  0.15322440454E+03  0.11256743762E+04  0.60003287678E+03 0.  0.
        -24    2    4    4    0    0  0.44096471282E+03 -0.22909739222E+03  0.22419761280E+03  0.55096677540E+03  0.79776719207E+02 0.  0.
         24    2    4    4    0    0  0.69260847338E+02 -0.56039327112E+03 -0.70973208257E+02  0.57470760075E+03  0.80087119932E+02 0.  0.
         11    1    5    5    0    0  0.25903463064E+03 -0.10681365617E+03  0.15950468315E+03  0.32241253227E+03  0.00000000000E+00 0. -1.
        -12    1    5    5    0    0  0.18193008218E+03 -0.12228373606E+03  0.64692929650E+02  0.22855424313E+03  0.00000000000E+00 0.  1.
         15    1    3    3    0    0 -0.22631346044E+03  0.39678100189E+03 -0.62181019872E+03  0.77155947716E+03  0.17770000000E+01 0. -1.
        -16    1    3    3    0    0 -0.28391209972E+03  0.39270966146E+03 -0.74884000337E+03  0.89195757142E+03  0.00000000000E+00 0.  1.
          2    1    6    6  502    0  0.60693316276E+02 -0.34090666976E+03 -0.86175204474E+01  0.34637450510E+03  0.00000000000E+00 0. -1.
         -1    1    6    6    0  502  0.85675310617E+01 -0.21948660137E+03 -0.62355687810E+02  0.22833309565E+03  0.00000000000E+00 0.  1.
<mgrwt>
<rscale>  0 0.10033499E+04</rscale>
<asrwt>0</asrwt>
<pdfrwt beam="1">  1        1 0.30820132E+00 0.10033499E+04</pdfrwt>
<pdfrwt beam="2">  1       -2 0.12090505E+00 0.10033499E+04</pdfrwt>
<totfact> 0.13615322E+00</totfact>
</mgrwt>
</event>
<event>
12    3  0.1176505E-007  0.8700842E+03  0.7818608E-02  0.9463770E-01
          1   -1    0    0  501    0  0.00000000000E+00  0.00000000000E+00  0.79558733062E+03  0.79558733062E+03  0.00000000000E+00 0. -1.
         -2   -1    0    0    0  501 -0.00000000000E+00 -0.00000000000E+00 -0.11403559100E+04  0.11403559100E+04  0.00000000000E+00 0.  1.
        -24    2    1    2    0    0 -0.49003657241E+03  0.62965696019E+03  0.15926599671E+03  0.81761013081E+03  0.80727557125E+02 0.  0.
    5000000    2    1    2    0    0  0.49003657241E+03 -0.62965696019E+03 -0.50403457613E+03  0.11183331099E+04  0.60001196725E+03 0.  0.
        -24    2    4    4    0    0 -0.86937565634E+02 -0.12041911528E+02  0.17996551601E+02  0.12023614233E+03  0.80185448182E+02 0.  0.
         24    2    4    4    0    0  0.57697413804E+03 -0.61761504866E+03 -0.52203112773E+03  0.99809696753E+03  0.96610320154E+02 0.  0.
         11    1    5    5    0    0 -0.39208780355E+02 -0.23382023923E+02 -0.27528852500E+02  0.53309335201E+02  0.00000000000E+00 0. -1.
        -12    1    5    5    0    0 -0.47728785280E+02  0.11340112395E+02  0.45525404100E+02  0.66926807125E+02  0.00000000000E+00 0.  1.
         15    1    3    3    0    0 -0.31864993843E+03  0.45132728291E+03  0.13738747970E+03  0.56930885894E+03  0.17770000000E+01 0. -1.
        -16    1    3    3    0    0 -0.17138663398E+03  0.17832967728E+03  0.21878517011E+02  0.24830127187E+03  0.00000000000E+00 0.  1.
          4    1    6    6  502    0  0.33004093575E+02 -0.26532152874E+02 -0.53205131669E+02  0.68000083565E+02  0.00000000000E+00 0. -1.
         -1    1    6    6    0  502  0.54397004447E+03 -0.59108289579E+03 -0.46882599606E+03  0.93009688396E+03  0.00000000000E+00 0.  1.
<mgrwt>
<rscale>  0 0.87008418E+03</rscale>
<asrwt>0</asrwt>
<pdfrwt beam="1">  1        1 0.12239805E+00 0.87008418E+03</pdfrwt>
<pdfrwt beam="2">  1       -2 0.17543937E+00 0.87008418E+03</pdfrwt>
<totfact> 0.38518322E+00</totfact>
</mgrwt>
</event>
<event>
12    3  0.1176505E-007  0.4539690E+03  0.7818608E-02  0.1026545E+00
         -2   -1    0    0    0  501 -0.00000000000E+00  0.00000000000E+00  0.65036606608E+03  0.65036606608E+03  0.00000000000E+00 0.  1.
          1   -1    0    0  501    0  0.00000000000E+00 -0.00000000000E+00 -0.44848170293E+03  0.44848170293E+03  0.00000000000E+00 0. -1.
        -24    2    1    2    0    0 -0.41722937278E+02  0.31898471397E+03  0.25503512771E+03  0.41608047629E+03  0.67734740997E+02 0.  0.
    5000000    2    1    2    0    0  0.41722937278E+02 -0.31898471397E+03 -0.53150764558E+02  0.68276729273E+03  0.59987842185E+03 0.  0.
        -24    2    4    4    0    0  0.19568045557E+03 -0.35205439519E+03  0.12709191940E+03  0.42993086715E+03  0.80343367427E+02 0.  0.
         24    2    4    4    0    0 -0.15395751830E+03  0.33069681214E+02 -0.18024268396E+03  0.25283642557E+03  0.81500378641E+02 0.  0.
         11    1    5    5    0    0  0.19772264923E+03 -0.32505493505E+03  0.10420920750E+03  0.39448005748E+03  0.00000000000E+00 0. -1.
        -12    1    5    5    0    0 -0.20421936591E+01 -0.26999460139E+02  0.22882711902E+02  0.35450809677E+02  0.00000000000E+00 0.  1.
         15    1    3    3    0    0 -0.27310942771E+02  0.84797358811E+02  0.10440939698E+03  0.13726237490E+03  0.17770000000E+01 0. -1.
        -16    1    3    3    0    0 -0.14411994507E+02  0.23418735516E+03  0.15062573073E+03  0.27881810139E+03  0.00000000000E+00 0.  1.
          4    1    6    6  502    0 -0.10872151925E+03 -0.16031460920E+02 -0.10147131598E+03  0.14957875669E+03  0.00000000000E+00 0. -1.
         -3    1    6    6    0  502 -0.45235999047E+02  0.49101142134E+02 -0.78771367978E+02  0.10325766888E+03  0.00000000000E+00 0.  1.
<mgrwt>
<rscale>  0 0.45396895E+03</rscale>
<asrwt>0</asrwt>
<pdfrwt beam="1">  1        1 0.68997185E-01 0.45396895E+03</pdfrwt>
<pdfrwt beam="2">  1       -2 0.10005632E+00 0.45396895E+03</pdfrwt>
<totfact> 0.38750565E+01</totfact>
</mgrwt>
</event>
<event>
12    3  0.1176505E-007  0.1910547E+04  0.7818608E-02  0.8649624E-01
         -2   -1    0    0    0  501 -0.00000000000E+00  0.00000000000E+00  0.19037339934E+04  0.19037339934E+04  0.00000000000E+00 0.  1.
          1   -1    0    0  501    0  0.00000000000E+00 -0.00000000000E+00 -0.24309380558E+04  0.24309380558E+04  0.00000000000E+00 0. -1.
        -24    2    1    2    0    0 -0.73991244683E+03 -0.17407103855E+04 -0.11977614285E+04  0.22402076445E+04  0.79716847206E+02 0.  0.
    5000000    2    1    2    0    0  0.73991244683E+03  0.17407103855E+04  0.67055736616E+03  0.20944644046E+04  0.59965897455E+03 0.  0.
        -24    2    4    4    0    0  0.44996491652E+02  0.54309531534E+02 -0.66803064048E+02  0.12547305987E+03  0.79414292868E+02 0.  0.
         24    2    4    4    0    0  0.69491595518E+03  0.16864008540E+04  0.73736043021E+03  0.19689913448E+04  0.79815328319E+02 0.  0.
         11    1    5    5    0    0 -0.73949024416E+01 -0.15166544797E+02 -0.21621879221E+02  0.27426525924E+02  0.00000000000E+00 0. -1.
        -12    1    5    5    0    0  0.52391394093E+02  0.69476076331E+02 -0.45181184827E+02  0.98046533951E+02  0.00000000000E+00 0.  1.
         15    1    3    3    0    0 -0.46016437734E+03 -0.11016406833E+04 -0.80037479086E+03  0.14373470050E+04  0.17770000000E+01 0. -1.
        -16    1    3    3    0    0 -0.27974806950E+03 -0.63906970222E+03 -0.39738663766E+03  0.80286063951E+03  0.00000000000E+00 0.  1.
          4    1    6    6  502    0  0.28872912694E+03  0.80488792493E+03  0.34196032265E+03  0.92094839307E+03  0.00000000000E+00 0. -1.
         -3    1    6    6    0  502  0.40618682824E+03  0.88151292906E+03  0.39540010757E+03  0.10480429517E+04  0.00000000000E+00 0.  1.
<mgrwt>
<rscale>  0 0.19105474E+04</rscale>
<asrwt>0</asrwt>
<pdfrwt beam="1">  1        1 0.37399047E+00 0.19105474E+04</pdfrwt>
<pdfrwt beam="2">  1       -2 0.29288215E+00 0.19105474E+04</pdfrwt>
<totfact> 0.41739225E-02</totfact>
</mgrwt>
</event>
<event>
12    3  0.1176505E-007  0.5976388E+03  0.7818608E-02  0.9910317E-01
         -2   -1    0    0    0  501 -0.00000000000E+00  0.00000000000E+00  0.72021077009E+03  0.72021077009E+03  0.00000000000E+00 0.  1.
          1   -1    0    0  501    0  0.00000000000E+00 -0.00000000000E+00 -0.14657778388E+04  0.14657778388E+04  0.00000000000E+00 0. -1.
        -24    2    1    2    0    0  0.17345485123E+02 -0.58201954179E+03 -0.11241490232E+04  0.12681526374E+04  0.73840859038E+02 0.  0.
    5000000    2    1    2    0    0 -0.17345485123E+02  0.58201954179E+03  0.37858195445E+03  0.91783597155E+03  0.60004246647E+03 0.  0.
        -24    2    4    4    0    0 -0.89522788177E+01  0.49336298053E+03 -0.21319431587E+02  0.49994467932E+03  0.77478967244E+02 0.  0.
         24    2    4    4    0    0 -0.83932063053E+01  0.88656561265E+02  0.39990138603E+03  0.41789129224E+03  0.82350360088E+02 0.  0.
         11    1    5    5    0    0 -0.10189153639E+02  0.42067704844E+03  0.96870800869E+01  0.42091191175E+03  0.00000000000E+00 0. -1.
        -12    1    5    5    0    0  0.12368748210E+01  0.72685932086E+02 -0.31006511674E+02  0.79032767563E+02  0.00000000000E+00 0.  1.
         15    1    3    3    0    0  0.41282395668E+02 -0.34163825569E+03 -0.70069127310E+03  0.78063586381E+03  0.17770000000E+01 0. -1.
        -16    1    3    3    0    0 -0.23936910545E+02 -0.24038128610E+03 -0.42345775008E+03  0.48751677356E+03  0.00000000000E+00 0.  1.
          4    1    6    6  502    0 -0.23250491824E+02  0.96514333892E+02  0.37448438905E+03  0.38741987515E+03  0.00000000000E+00 0. -1.
         -3    1    6    6    0  502  0.14857285519E+02 -0.78577726273E+01  0.25416996982E+02  0.30471417086E+02  0.00000000000E+00 0.  1.
<mgrwt>
<rscale>  0 0.59763884E+03</rscale>
<asrwt>0</asrwt>
<pdfrwt beam="1">  1        1 0.22550428E+00 0.59763884E+03</pdfrwt>
<pdfrwt beam="2">  1       -2 0.11080166E+00 0.59763884E+03</pdfrwt>
<totfact> 0.41476767E+00</totfact>
</mgrwt>
</event>
<event>
12    3  0.1176505E-007  0.6317452E+03  0.7818608E-02  0.9841649E-01
         -2   -1    0    0    0  501 -0.00000000000E+00  0.00000000000E+00  0.45164650341E+03  0.45164650341E+03  0.00000000000E+00 0.  1.
          1   -1    0    0  501    0  0.00000000000E+00 -0.00000000000E+00 -0.14713257463E+04  0.14713257463E+04  0.00000000000E+00 0. -1.
        -24    2    1    2    0    0 -0.62253518204E+03 -0.81712229863E+02 -0.81292013078E+03  0.10302245589E+04  0.79350874255E+02 0.  0.
    5000000    2    1    2    0    0  0.62253518204E+03  0.81712229863E+02 -0.20675911215E+03  0.89274769090E+03  0.60001847285E+03 0.  0.
        -24    2    4    4    0    0  0.15344115239E+03  0.10682259247E+02 -0.35165733901E+03  0.39062001848E+03  0.72545274449E+02 0.  0.
         24    2    4    4    0    0  0.46909402965E+03  0.71029970616E+02  0.14489822687E+03  0.50212767242E+03  0.77731833119E+02 0.  0.
         11    1    5    5    0    0  0.80869855152E+02 -0.88820106170E+01 -0.25805231753E+03  0.27057313645E+03  0.00000000000E+00 0. -1.
        -12    1    5    5    0    0  0.72571297239E+02  0.19564269864E+02 -0.93605021480E+02  0.12004688203E+03  0.00000000000E+00 0.  1.
         15    1    3    3    0    0 -0.53291749138E+03 -0.55204144245E+02 -0.72836659233E+03  0.90419555446E+03  0.17770000000E+01 0. -1.
        -16    1    3    3    0    0 -0.89617690664E+02 -0.26508085618E+02 -0.84553538453E+02  0.12602900439E+03  0.00000000000E+00 0.  1.
          4    1    6    6  502    0  0.15342259189E+03 -0.32265048500E+01  0.73141882293E+02  0.16999599108E+03  0.00000000000E+00 0. -1.
         -3    1    6    6    0  502  0.31567143776E+03  0.74256475466E+02  0.71756344573E+02  0.33213168134E+03  0.00000000000E+00 0.  1.
<mgrwt>
<rscale>  0 0.63174525E+03</rscale>
<asrwt>0</asrwt>
<pdfrwt beam="1">  1        1 0.22635781E+00 0.63174525E+03</pdfrwt>
<pdfrwt beam="2">  1       -2 0.69484078E-01 0.63174525E+03</pdfrwt>
<totfact> 0.11910279E+01</totfact>
</mgrwt>
</event>
<event>
12    3  0.1176505E-007  0.4068078E+03  0.7818608E-02  0.1041448E+00
         -2   -1    0    0    0  501 -0.00000000000E+00  0.00000000000E+00  0.25784093996E+03  0.25784093996E+03  0.00000000000E+00 0.  1.
          1   -1    0    0  501    0  0.00000000000E+00 -0.00000000000E+00 -0.10888213916E+04  0.10888213916E+04  0.00000000000E+00 0. -1.
        -24    2    1    2    0    0 -0.15709603229E+02  0.21865777352E+03 -0.63802964717E+03  0.67941281048E+03  0.80386085963E+02 0.  0.
    5000000    2    1    2    0    0  0.15709603229E+02 -0.21865777352E+03 -0.19295080442E+03  0.66724952103E+03  0.59994491149E+03 0.  0.
        -24    2    4    4    0    0  0.67883220891E+01  0.17414081612E+03  0.50189149080E+02  0.19829600680E+03  0.80195077585E+02 0.  0.
         24    2    4    4    0    0  0.89212811396E+01 -0.39279858965E+03 -0.24313995350E+03  0.46895351423E+03  0.80187531674E+02 0.  0.
         13    1    5    5    0    0 -0.16208709129E+02  0.16598178263E+03  0.38118307094E+02  0.17107214780E+03  0.00000000000E+00 0. -1.
        -14    1    5    5    0    0  0.22997031219E+02  0.81590334921E+01  0.12070841985E+02  0.27223858996E+02  0.00000000000E+00 0.  1.
         15    1    3    3    0    0 -0.35695115050E+02  0.92754973200E+02 -0.36143823351E+03  0.37485781393E+03  0.17770000000E+01 0. -1.
        -16    1    3    3    0    0  0.19985511821E+02  0.12590280032E+03 -0.27659141367E+03  0.30455499656E+03  0.00000000000E+00 0.  1.
          2    1    6    6  502    0 -0.18095173972E+02 -0.20987389660E+03 -0.90864774548E+02  0.22941424334E+03  0.00000000000E+00 0. -1.
         -1    1    6    6    0  502  0.27016455111E+02 -0.18292469305E+03 -0.15227517895E+03  0.23953927089E+03  0.00000000000E+00 0.  1.
<mgrwt>
<rscale>  0 0.40680781E+03</rscale>
<asrwt>0</asrwt>
<pdfrwt beam="1">  1        1 0.16751098E+00 0.40680781E+03</pdfrwt>
<pdfrwt beam="2">  1       -2 0.39667837E-01 0.40680781E+03</pdfrwt>
<totfact> 0.72260251E+01</totfact>
</mgrwt>
</event>
<event>
12    3  0.1176505E-007  0.2029553E+04  0.7818608E-02  0.8592927E-01
         -2   -1    0    0    0  501 -0.00000000000E+00  0.00000000000E+00  0.16350142045E+04  0.16350142045E+04  0.00000000000E+00 0.  1.
          1   -1    0    0  501    0  0.00000000000E+00 -0.00000000000E+00 -0.25716101094E+04  0.25716101094E+04  0.00000000000E+00 0. -1.
        -24    2    1    2    0    0  0.19251009083E+04 -0.55836018495E+03 -0.53423451056E+03  0.20760086843E+04  0.81399889497E+02 0.  0.
    5000000    2    1    2    0    0 -0.19251009083E+04  0.55836018495E+03 -0.40236139434E+03  0.21306156296E+04  0.59987387529E+03 0.  0.
        -24    2    4    4    0    0 -0.74813486947E+03  0.22070185385E+01 -0.33773641855E+03  0.82488301380E+03  0.81580905855E+02 0.  0.
         24    2    4    4    0    0 -0.11769660388E+04  0.55615316641E+03 -0.64624975790E+02  0.13057326158E+04  0.78777379013E+02 0.  0.
         13    1    5    5    0    0 -0.13790868489E+03  0.23108854903E+02 -0.87888680508E+02  0.16515824140E+03  0.00000000000E+00 0. -1.
        -14    1    5    5    0    0 -0.61022618458E+03 -0.20901836365E+02 -0.24984773804E+03  0.65972477240E+03  0.00000000000E+00 0.  1.
         15    1    3    3    0    0  0.65177285264E+03 -0.17388563160E+03 -0.14307720948E+03  0.68957835662E+03  0.17770000000E+01 0. -1.
        -16    1    3    3    0    0  0.12733280556E+04 -0.38447455335E+03 -0.39115730108E+03  0.13864303277E+04  0.00000000000E+00 0.  1.
          4    1    6    6  502    0 -0.63904165152E+02  0.50634011434E+02 -0.83411073325E+01  0.81958035050E+02  0.00000000000E+00 0. -1.
         -3    1    6    6    0  502 -0.11130618736E+04  0.50551915498E+03 -0.56283868458E+02  0.12237745807E+04  0.00000000000E+00 0.  1.
<mgrwt>
<rscale>  0 0.20295533E+04</rscale>
<asrwt>0</asrwt>
<pdfrwt beam="1">  1        1 0.39563232E+00 0.20295533E+04</pdfrwt>
<pdfrwt beam="2">  1       -2 0.25154065E+00 0.20295533E+04</pdfrwt>
<totfact> 0.59083428E-02</totfact>
</mgrwt>
</event>
<event>
12    3  0.1176505E-007  0.1049892E+04  0.7818608E-02  0.9255456E-01
         -2   -1    0    0    0  501 -0.00000000000E+00  0.00000000000E+00  0.54917104975E+03  0.54917104975E+03  0.00000000000E+00 0.  1.
          1   -1    0    0  501    0  0.00000000000E+00 -0.00000000000E+00 -0.31442183792E+04  0.31442183792E+04  0.00000000000E+00 0. -1.
        -24    2    1    2    0    0  0.95610271243E+03 -0.38075811618E+03 -0.24847519756E+03  0.10616894253E+04  0.79595052166E+02 0.  0.
    5000000    2    1    2    0    0 -0.95610271243E+03  0.38075811618E+03 -0.23465721319E+04  0.26317000036E+04  0.60027910094E+03 0.  0.
        -24    2    4    4    0    0 -0.58841999340E+03  0.37219580183E+03 -0.20046612758E+04  0.21236156115E+04  0.79426892568E+02 0.  0.
         24    2    4    4    0    0 -0.36768271903E+03  0.85623143489E+01 -0.34191085618E+03  0.50808439216E+03  0.77348696709E+02 0.  0.
         13    1    5    5    0    0 -0.24343851617E+03  0.12049752547E+03 -0.70063161462E+03  0.75144302791E+03  0.00000000000E+00 0. -1.
        -14    1    5    5    0    0 -0.34498147723E+03  0.25169827637E+03 -0.13040296611E+04  0.13721725836E+04  0.00000000000E+00 0.  1.
         15    1    3    3    0    0  0.76240228818E+02 -0.81658257591E+01 -0.19364410996E+02  0.79103674648E+02  0.17770000000E+01 0. -1.
        -16    1    3    3    0    0  0.87986248362E+03 -0.37259229042E+03 -0.22911078656E+03  0.98258575070E+03  0.00000000000E+00 0.  1.
          2    1    6    6  502    0 -0.77794051560E+02 -0.99957901348E+01 -0.36231472920E+02  0.86397626752E+02  0.00000000000E+00 0. -1.
         -1    1    6    6    0  502 -0.28988866747E+03  0.18558104484E+02 -0.30567938326E+03  0.42168676541E+03  0.00000000000E+00 0.  1.
<mgrwt>
<rscale>  0 0.10498918E+04</rscale>
<asrwt>0</asrwt>
<pdfrwt beam="1">  1        1 0.48372590E+00 0.10498918E+04</pdfrwt>
<pdfrwt beam="2">  1       -2 0.84487854E-01 0.10498918E+04</pdfrwt>
<totfact> 0.51114550E-01</totfact>
</mgrwt>
</event>
<event>
12    3  0.1176505E-007  0.3987482E+03  0.7818608E-02  0.1044214E+00
          3   -1    0    0  501    0  0.00000000000E+00  0.00000000000E+00  0.28638354344E+03  0.28638354344E+03  0.00000000000E+00 0. -1.
         -4   -1    0    0    0  501 -0.00000000000E+00 -0.00000000000E+00 -0.12786209820E+04  0.12786209820E+04  0.00000000000E+00 0.  1.
        -24    2    1    2    0    0  0.19736492351E+03 -0.20931587056E+03  0.74314941448E+02  0.30790587732E+03  0.80729623207E+02 0.  0.
    5000000    2    1    2    0    0 -0.19736492351E+03  0.20931587056E+03 -0.10665523800E+04  0.12570986481E+04  0.59999748759E+03 0.  0.
        -24    2    4    4    0    0 -0.30861167030E+03  0.19021599082E+03 -0.10560220611E+04  0.11193354984E+04  0.79410818812E+02 0.  0.
         24    2    4    4    0    0  0.11124674679E+03  0.19099879741E+02 -0.10530318844E+02  0.13776314971E+03  0.78276137647E+02 0.  0.
         13    1    5    5    0    0 -0.23328059496E+02  0.45477307937E+02 -0.15499238511E+03  0.16320239992E+03  0.00000000000E+00 0. -1.
        -14    1    5    5    0    0 -0.28528361081E+03  0.14473868288E+03 -0.90102967602E+03  0.95613309847E+03  0.00000000000E+00 0.  1.
         15    1    3    3    0    0  0.11148234563E+03 -0.94129648683E+02  0.75348213074E+02  0.16422306504E+03  0.17770000000E+01 0. -1.
        -16    1    3    3    0    0  0.85882577880E+02 -0.11518622188E+03 -0.10332716263E+01  0.14368281228E+03  0.00000000000E+00 0.  1.
          4    1    6    6  502    0  0.41040148728E+02  0.46052712148E+02 -0.10424723986E+02  0.62560538473E+02  0.00000000000E+00 0. -1.
         -3    1    6    6    0  502  0.70206598064E+02 -0.26952832407E+02 -0.10559485780E+00  0.75202611236E+02  0.00000000000E+00 0.  1.
<mgrwt>
<rscale>  0 0.39874816E+03</rscale>
<asrwt>0</asrwt>
<pdfrwt beam="1">  1        3 0.44059007E-01 0.39874816E+03</pdfrwt>
<pdfrwt beam="2">  1       -4 0.19671092E+00 0.39874816E+03</pdfrwt>
<totfact> 0.16302692E+00</totfact>
</mgrwt>
</event>
<event>
12    3  0.1176505E-007  0.1264491E+04  0.7818608E-02  0.9058208E-01
          1   -1    0    0  501    0  0.00000000000E+00  0.00000000000E+00  0.14215347449E+04  0.14215347449E+04  0.00000000000E+00 0. -1.
         -2   -1    0    0    0  501 -0.00000000000E+00 -0.00000000000E+00 -0.19114136167E+04  0.19114136167E+04  0.00000000000E+00 0.  1.
        -24    2    1    2    0    0 -0.11699717144E+04  0.45791156490E+03  0.75272658945E+03  0.14667515125E+04  0.79030798376E+02 0.  0.
    5000000    2    1    2    0    0  0.11699717144E+04 -0.45791156490E+03 -0.12426054613E+04  0.18661968491E+04  0.60008793822E+03 0.  0.
        -24    2    4    4    0    0  0.51025664841E+03 -0.26800365595E+03 -0.95420697350E+03  0.11173600300E+04  0.76122805756E+02 0.  0.
         24    2    4    4    0    0  0.65971506599E+03 -0.18990790895E+03 -0.28839848777E+03  0.74883681912E+03  0.79334177646E+02 0.  0.
         13    1    5    5    0    0  0.20648398726E+03 -0.68255310077E+02 -0.37544132381E+03  0.43387856824E+03  0.00000000000E+00 0. -1.
        -14    1    5    5    0    0  0.30377266114E+03 -0.19974834587E+03 -0.57876564969E+03  0.68348146178E+03  0.00000000000E+00 0.  1.
         15    1    3    3    0    0 -0.81845946972E+03  0.28165773830E+03  0.50996193913E+03  0.10046249659E+04  0.17770000000E+01 0. -1.
        -16    1    3    3    0    0 -0.35151224468E+03  0.17625382659E+03  0.24276465032E+03  0.46212654652E+03  0.00000000000E+00 0.  1.
          4    1    6    6  502    0  0.24292008370E+03 -0.39841670572E+02 -0.76505055541E+02  0.25778004054E+03  0.00000000000E+00 0. -1.
         -3    1    6    6    0  502  0.41679498229E+03 -0.15006623838E+03 -0.21189343223E+03  0.49105677858E+03  0.00000000000E+00 0.  1.
<mgrwt>
<rscale>  0 0.12644913E+04</rscale>
<asrwt>0</asrwt>
<pdfrwt beam="1">  1        1 0.21869765E+00 0.12644913E+04</pdfrwt>
<pdfrwt beam="2">  1       -2 0.29406363E+00 0.12644913E+04</pdfrwt>
<totfact> 0.21819363E-01</totfact>
</mgrwt>
</event>
<event>
12    3  0.1176505E-007  0.7880231E+03  0.7818608E-02  0.9577517E-01
         -2   -1    0    0    0  501 -0.00000000000E+00  0.00000000000E+00  0.72865054817E+03  0.72865054817E+03  0.00000000000E+00 0.  1.
          1   -1    0    0  501    0  0.00000000000E+00 -0.00000000000E+00 -0.12847512348E+04  0.12847512348E+04  0.00000000000E+00 0. -1.
        -24    2    1    2    0    0  0.72604551314E+03 -0.17796314634E+03  0.21637788683E+03  0.78233135418E+03  0.80062408318E+02 0.  0.
    5000000    2    1    2    0    0 -0.72604551314E+03  0.17796314634E+03 -0.77247857343E+03  0.12310704287E+04  0.59999857127E+03 0.  0.
        -24    2    4    4    0    0 -0.68451029824E+03  0.51231823697E+02 -0.81663106449E+03  0.10697872261E+04  0.79870930322E+02 0.  0.
         24    2    4    4    0    0 -0.41535214904E+02  0.12673132264E+03  0.44152491055E+02  0.16128320264E+03  0.79226427231E+02 0.  0.
         11    1    5    5    0    0 -0.14162445175E+03 -0.23579089447E+01 -0.12504909230E+03  0.18894528455E+03  0.00000000000E+00 0. -1.
        -12    1    5    5    0    0 -0.54288584649E+03  0.53589732642E+02 -0.69158197219E+03  0.88084194156E+03  0.00000000000E+00 0.  1.
         15    1    3    3    0    0  0.33266863110E+03 -0.47988179817E+02  0.12071839307E+03  0.35713774888E+03  0.17770000000E+01 0. -1.
        -16    1    3    3    0    0  0.39337688204E+03 -0.12997496652E+03  0.95659493759E+02  0.42519360531E+03  0.00000000000E+00 0.  1.
          4    1    6    6  502    0 -0.43514535168E+02  0.75079689167E+02 -0.88750916820E+01  0.87230967831E+02  0.00000000000E+00 0. -1.
         -3    1    6    6    0  502  0.19793202639E+01  0.51651633474E+02  0.53027582737E+02  0.74052234809E+02  0.00000000000E+00 0.  1.
<mgrwt>
<rscale>  0 0.78802314E+03</rscale>
<asrwt>0</asrwt>
<pdfrwt beam="1">  1        1 0.19765404E+00 0.78802314E+03</pdfrwt>
<pdfrwt beam="2">  1       -2 0.11210008E+00 0.78802314E+03</pdfrwt>
<totfact> 0.52277682E+00</totfact>
</mgrwt>
</event>
<event>
12    3  0.1176505E-007  0.5806017E+03  0.7818608E-02  0.9946489E-01
          1   -1    0    0  501    0  0.00000000000E+00  0.00000000000E+00  0.23259899665E+04  0.23259899665E+04  0.00000000000E+00 0. -1.
         -2   -1    0    0    0  501 -0.00000000000E+00 -0.00000000000E+00 -0.33770968482E+03  0.33770968482E+03  0.00000000000E+00 0.  1.
        -24    2    1    2    0    0  0.26425160603E+03  0.43561724599E+03  0.17745992682E+04  0.18480671297E+04  0.80983064809E+02 0.  0.
    5000000    2    1    2    0    0 -0.26425160603E+03 -0.43561724599E+03  0.21368101347E+03  0.81563252164E+03  0.60000461543E+03 0.  0.
        -24    2    4    4    0    0 -0.23662275309E+03 -0.53556417289E+02 -0.13720487940E+03  0.29022811725E+03  0.80923198145E+02 0.  0.
         24    2    4    4    0    0 -0.27628852937E+02 -0.38206082870E+03  0.35088589287E+03  0.52540440439E+03  0.78708627196E+02 0.  0.
         13    1    5    5    0    0 -0.23544696503E+03 -0.63882119694E+02 -0.13708174522E+03  0.27983495749E+03  0.00000000000E+00 0. -1.
        -14    1    5    5    0    0 -0.11757880569E+01  0.10325702405E+02 -0.12313417269E+00  0.10393159757E+02  0.00000000000E+00 0.  1.
         15    1    3    3    0    0  0.85826732476E+02  0.21920866950E+03  0.81031722202E+03  0.84382215355E+03  0.17770000000E+01 0. -1.
        -16    1    3    3    0    0  0.17842487355E+03  0.21640857649E+03  0.96428204619E+03  0.10042449761E+04  0.00000000000E+00 0.  1.
          2    1    6    6  502    0 -0.54086105722E+01 -0.35860245781E+03  0.31842871905E+03  0.47960590586E+03  0.00000000000E+00 0. -1.
         -1    1    6    6    0  502 -0.22220242365E+02 -0.23458370890E+02  0.32457173820E+02  0.45798498533E+02  0.00000000000E+00 0.  1.
<mgrwt>
<rscale>  0 0.58060169E+03</rscale>
<asrwt>0</asrwt>
<pdfrwt beam="1">  1        1 0.35784460E+00 0.58060169E+03</pdfrwt>
<pdfrwt beam="2">  1       -2 0.51955337E-01 0.58060169E+03</pdfrwt>
<totfact> 0.59476175E+00</totfact>
</mgrwt>
</event>
<event>
12    3  0.1176505E-007  0.6251181E+03  0.7818608E-02  0.9854622E-01
         -2   -1    0    0    0  501 -0.00000000000E+00  0.00000000000E+00  0.23222533881E+03  0.23222533881E+03  0.00000000000E+00 0.  1.
          1   -1    0    0  501    0  0.00000000000E+00 -0.00000000000E+00 -0.23796177810E+04  0.23796177810E+04  0.00000000000E+00 0. -1.
        -24    2    1    2    0    0  0.54220098605E+03  0.27713688064E+03 -0.70334113874E+03  0.93373319422E+03  0.79888426298E+02 0.  0.
    5000000    2    1    2    0    0 -0.54220098605E+03 -0.27713688064E+03 -0.14440513034E+04  0.16781099255E+04  0.59998499600E+03 0.  0.
        -24    2    4    4    0    0 -0.19016884829E+03 -0.17824569749E+03 -0.12026418901E+04  0.12330486526E+04  0.78267134875E+02 0.  0.
         24    2    4    4    0    0 -0.35203213776E+03 -0.98891183153E+02 -0.24140941333E+03  0.44506127292E+03  0.78070094717E+02 0.  0.
         11    1    5    5    0    0 -0.11395397370E+03 -0.55732380016E+02 -0.51013170024E+03  0.52566715505E+03  0.00000000000E+00 0. -1.
        -12    1    5    5    0    0 -0.76214874586E+02 -0.12251331747E+03 -0.69251018984E+03  0.70738149757E+03  0.00000000000E+00 0.  1.
         15    1    3    3    0    0  0.40872612427E+03  0.20583851153E+03 -0.47313645457E+03  0.65824600254E+03  0.17770000000E+01 0. -1.
        -16    1    3    3    0    0  0.13347486178E+03  0.71298369113E+02 -0.23020468416E+03  0.27548719167E+03  0.00000000000E+00 0.  1.
          4    1    6    6  502    0 -0.43667214119E+02 -0.33199884297E+02 -0.60065658461E+02  0.81344583302E+02  0.00000000000E+00 0. -1.
         -3    1    6    6    0  502 -0.30836492364E+03 -0.65691298856E+02 -0.18134375487E+03  0.36371668962E+03  0.00000000000E+00 0.  1.
<mgrwt>
<rscale>  0 0.62511812E+03</rscale>
<asrwt>0</asrwt>
<pdfrwt beam="1">  1        1 0.36609504E+00 0.62511812E+03</pdfrwt>
<pdfrwt beam="2">  1       -2 0.35726976E-01 0.62511812E+03</pdfrwt>
<totfact> 0.11353638E+01</totfact>
</mgrwt>
</event>
<event>
12    3  0.1176505E-007  0.7102010E+03  0.7818608E-02  0.9699944E-01
          1   -1    0    0  501    0  0.00000000000E+00  0.00000000000E+00  0.27781747240E+03  0.27781747240E+03  0.00000000000E+00 0. -1.
         -2   -1    0    0    0  501 -0.00000000000E+00 -0.00000000000E+00 -0.41861011003E+04  0.41861011003E+04  0.00000000000E+00 0.  1.
        -24    2    1    2    0    0  0.95586191152E+02 -0.63589562199E+03 -0.23898545744E+03  0.69066220546E+03  0.80001694866E+02 0.  0.
    5000000    2    1    2    0    0 -0.95586191152E+02  0.63589562199E+03 -0.36692981704E+04  0.37732563672E+04  0.60017879596E+03 0.  0.
        -24    2    4    4    0    0 -0.25467577756E+03  0.31484135628E+03 -0.27905062947E+04  0.28208007150E+04  0.77501367146E+02 0.  0.
         24    2    4    4    0    0  0.15908958641E+03  0.32105426571E+03 -0.87879187572E+03  0.95245565216E+03  0.80692443601E+02 0.  0.
         13    1    5    5    0    0 -0.14464117271E+03  0.22686645809E+03 -0.16830729649E+04  0.17044424495E+04  0.00000000000E+00 0. -1.
        -14    1    5    5    0    0 -0.11003460485E+03  0.87974898187E+02 -0.11074333299E+04  0.11163582655E+04  0.00000000000E+00 0.  1.
         15    1    3    3    0    0  0.47376643304E+02 -0.12733190374E+03 -0.68189185171E+02  0.15202263892E+03  0.17770000000E+01 0. -1.
        -16    1    3    3    0    0  0.48209547847E+02 -0.50856371825E+03 -0.17079627227E+03  0.53863956655E+03  0.00000000000E+00 0.  1.
          2    1    6    6  502    0  0.14794340739E+03  0.23998724461E+03 -0.73170417069E+03  0.78413782129E+03  0.00000000000E+00 0. -1.
         -1    1    6    6    0  502  0.11146179014E+02  0.81067021106E+02 -0.14708770503E+03  0.16831783087E+03  0.00000000000E+00 0.  1.
<mgrwt>
<rscale>  0 0.71020099E+03</rscale>
<asrwt>0</asrwt>
<pdfrwt beam="1">  1        1 0.42741148E-01 0.71020099E+03</pdfrwt>
<pdfrwt beam="2">  1       -2 0.64401558E+00 0.71020099E+03</pdfrwt>
<totfact> 0.30968033E-02</totfact>
</mgrwt>
</event>
<event>
12    3  0.1176505E-007  0.5587219E+03  0.7818608E-02  0.9994951E-01
          1   -1    0    0  501    0  0.00000000000E+00  0.00000000000E+00  0.35298912278E+04  0.35298912278E+04  0.00000000000E+00 0. -1.
         -2   -1    0    0    0  501 -0.00000000000E+00 -0.00000000000E+00 -0.15178292248E+03  0.15178292248E+03  0.00000000000E+00 0.  1.
        -24    2    1    2    0    0 -0.21959453157E+03 -0.47734625806E+03  0.65142426890E+03  0.84080716056E+03  0.80758248889E+02 0.  0.
    5000000    2    1    2    0    0  0.21959453157E+03  0.47734625806E+03  0.27266840364E+04  0.28408669897E+04  0.59969843289E+03 0.  0.
        -24    2    4    4    0    0  0.54906909601E+02  0.38516081688E+03  0.70826352620E+03  0.81203461327E+03  0.79996043826E+02 0.  0.
         24    2    4    4    0    0  0.16468762197E+03  0.92185441181E+02  0.20184205102E+04  0.20288323764E+04  0.80742103281E+02 0.  0.
         11    1    5    5    0    0  0.14114678087E+01  0.73097969867E+02  0.20301680301E+03  0.21578027654E+03  0.00000000000E+00 0. -1.
        -12    1    5    5    0    0  0.53495441792E+02  0.31206284701E+03  0.50524672320E+03  0.59625433674E+03  0.00000000000E+00 0.  1.
         15    1    3    3    0    0 -0.46935642351E+02 -0.11806627850E+03  0.21499596234E+03  0.24973790700E+03  0.17770000000E+01 0. -1.
        -16    1    3    3    0    0 -0.17265888922E+03 -0.35927997956E+03  0.43642830656E+03  0.59106925356E+03  0.00000000000E+00 0.  1.
          2    1    6    6  502    0  0.62521546258E+02 -0.27356743004E+01  0.80374324855E+03  0.80617593443E+03  0.00000000000E+00 0. -1.
         -1    1    6    6    0  502  0.10216607571E+03  0.94921115481E+02  0.12146772616E+04  0.12226564420E+04  0.00000000000E+00 0.  1.
<mgrwt>
<rscale>  0 0.55872186E+03</rscale>
<asrwt>0</asrwt>
<pdfrwt beam="1">  1        1 0.54306013E+00 0.55872186E+03</pdfrwt>
<pdfrwt beam="2">  1       -2 0.23351221E-01 0.55872186E+03</pdfrwt>
<totfact> 0.37998467E+00</totfact>
</mgrwt>
</event>
<event>
12    3  0.1176505E-007  0.1067032E+04  0.7818608E-02  0.9237935E-01
          1   -1    0    0  501    0  0.00000000000E+00  0.00000000000E+00  0.16742771975E+04  0.16742771975E+04  0.00000000000E+00 0. -1.
         -2   -1    0    0    0  501 -0.00000000000E+00 -0.00000000000E+00 -0.11798125337E+04  0.11798125337E+04  0.00000000000E+00 0.  1.
        -24    2    1    2    0    0  0.35422434249E+03 -0.95930906095E+03  0.11155721947E+04  0.15155973645E+04  0.82372874944E+02 0.  0.
    5000000    2    1    2    0    0 -0.35422434249E+03  0.95930906095E+03 -0.62110753091E+03  0.13384923667E+04  0.60003207549E+03 0.  0.
        -24    2    4    4    0    0 -0.13161938928E+02  0.63785202576E+03 -0.57287553455E+03  0.86144617219E+03  0.82913726787E+02 0.  0.
         24    2    4    4    0    0 -0.34106240356E+03  0.32145703519E+03 -0.48231996367E+02  0.47704619455E+03  0.74756656320E+02 0.  0.
         11    1    5    5    0    0  0.56435452224E+00  0.27140016069E+03 -0.19007599815E+03  0.33134159230E+03  0.00000000000E+00 0. -1.
        -12    1    5    5    0    0 -0.13726293450E+02  0.36645186507E+03 -0.38279953640E+03  0.53010457989E+03  0.00000000000E+00 0.  1.
         15    1    3    3    0    0  0.18258059682E+03 -0.55216741225E+03  0.58104897855E+03  0.82209829016E+03  0.17770000000E+01 0. -1.
        -16    1    3    3    0    0  0.17164374567E+03 -0.40714164870E+03  0.53452321616E+03  0.69349907436E+03  0.00000000000E+00 0.  1.
          4    1    6    6  502    0 -0.80660734984E+02  0.11373310210E+03 -0.34611096155E+02  0.14366384604E+03  0.00000000000E+00 0. -1.
         -3    1    6    6    0  502 -0.26040166858E+03  0.20772393309E+03 -0.13620900212E+02  0.33338234851E+03  0.00000000000E+00 0.  1.
<mgrwt>
<rscale>  0 0.10670316E+04</rscale>
<asrwt>0</asrwt>
<pdfrwt beam="1">  1        1 0.25758111E+00 0.10670316E+04</pdfrwt>
<pdfrwt beam="2">  1       -2 0.18150962E+00 0.10670316E+04</pdfrwt>
<totfact> 0.76356043E-01</totfact>
</mgrwt>
</event>
<event>
12    3  0.1176505E-007  0.9479638E+03  0.7818608E-02  0.9367534E-01
         -2   -1    0    0    0  501 -0.00000000000E+00  0.00000000000E+00  0.57513509050E+03  0.57513509050E+03  0.00000000000E+00 0.  1.
          1   -1    0    0  501    0  0.00000000000E+00 -0.00000000000E+00 -0.19459841006E+04  0.19459841006E+04  0.00000000000E+00 0. -1.
        -24    2    1    2    0    0 -0.61793239711E+03 -0.67009582645E+03 -0.10303528498E+04  0.13780011858E+04  0.79946288255E+02 0.  0.
    5000000    2    1    2    0    0  0.61793239711E+03  0.67009582645E+03 -0.34049616028E+03  0.11431180053E+04  0.59992689118E+03 0.  0.
        -24    2    4    4    0    0  0.27024681415E+02  0.22781803775E+03 -0.31832779255E+03  0.40040112573E+03  0.79731337906E+02 0.  0.
         24    2    4    4    0    0  0.59090771569E+03  0.44227778870E+03 -0.22168367734E+02  0.74271687954E+03  0.79720485291E+02 0.  0.
         13    1    5    5    0    0 -0.25242500190E+02  0.72729075146E+02 -0.12817461156E+03  0.14951733423E+03  0.00000000000E+00 0. -1.
        -14    1    5    5    0    0  0.52267181605E+02  0.15508896260E+03 -0.19015318099E+03  0.25088379149E+03  0.00000000000E+00 0.  1.
         15    1    3    3    0    0 -0.39579990387E+03 -0.46449626775E+03 -0.64421901602E+03  0.88737570678E+03  0.17770000000E+01 0. -1.
        -16    1    3    3    0    0 -0.22213249324E+03 -0.20559955870E+03 -0.38613383378E+03  0.49062547904E+03  0.00000000000E+00 0.  1.
          4    1    6    6  502    0  0.38216990485E+03  0.23764006129E+03 -0.17268863512E+02  0.45036079819E+03  0.00000000000E+00 0. -1.
         -3    1    6    6    0  502  0.20873781085E+03  0.20463772742E+03 -0.48995042220E+01  0.29235608135E+03  0.00000000000E+00 0.  1.
<mgrwt>
<rscale>  0 0.94796376E+03</rscale>
<asrwt>0</asrwt>
<pdfrwt beam="1">  1        1 0.29938217E+00 0.94796376E+03</pdfrwt>
<pdfrwt beam="2">  1       -2 0.88482323E-01 0.94796376E+03</pdfrwt>
<totfact> 0.31682802E+00</totfact>
</mgrwt>
</event>
<event>
12    3  0.1176505E-007  0.8806692E+03  0.7818608E-02  0.9450074E-01
         -2   -1    0    0    0  501 -0.00000000000E+00  0.00000000000E+00  0.11155628878E+04  0.11155628878E+04  0.00000000000E+00 0.  1.
          1   -1    0    0  501    0  0.00000000000E+00 -0.00000000000E+00 -0.11644497949E+04  0.11644497949E+04  0.00000000000E+00 0. -1.
        -24    2    1    2    0    0 -0.67172543171E+03 -0.56315507912E+03 -0.61739008190E+03  0.10752292699E+04  0.81171244325E+02 0.  0.
    5000000    2    1    2    0    0  0.67172543171E+03  0.56315507912E+03  0.56850317483E+03  0.12047834128E+04  0.59995709277E+03 0.  0.
        -24    2    4    4    0    0  0.55865443130E+03  0.44018646036E+03  0.12387426501E+03  0.72422340543E+03  0.57409179962E+02 0.  0.
         24    2    4    4    0    0  0.11307100041E+03  0.12296861876E+03  0.44462890983E+03  0.48056000735E+03  0.73052863574E+02 0.  0.
         11    1    5    5    0    0  0.24230702992E+03  0.17437509679E+03  0.26459539204E+02  0.29969897955E+03  0.00000000000E+00 0. -1.
        -12    1    5    5    0    0  0.31634740137E+03  0.26581136357E+03  0.97414725802E+02  0.42452442588E+03  0.00000000000E+00 0.  1.
         15    1    3    3    0    0 -0.25563278673E+03 -0.16755706586E+03 -0.19703644072E+03  0.36366194284E+03  0.17770000000E+01 0. -1.
        -16    1    3    3    0    0 -0.41609264498E+03 -0.39559801326E+03 -0.42035364119E+03  0.71156732707E+03  0.00000000000E+00 0.  1.
          2    1    6    6  502    0  0.60033336562E+02  0.42928277413E+02  0.28388952626E+03  0.29332593070E+03  0.00000000000E+00 0. -1.
         -1    1    6    6    0  502  0.53037663850E+02  0.80040341349E+02  0.16073938357E+03  0.18723407665E+03  0.00000000000E+00 0.  1.
<mgrwt>
<rscale>  0 0.88066924E+03</rscale>
<asrwt>0</asrwt>
<pdfrwt beam="1">  1        1 0.17914612E+00 0.88066924E+03</pdfrwt>
<pdfrwt beam="2">  1       -2 0.17162506E+00 0.88066924E+03</pdfrwt>
<totfact> 0.20887456E+00</totfact>
</mgrwt>
</event>
<event>
12    3  0.1176505E-007  0.4063456E+03  0.7818608E-02  0.1041604E+00
          1   -1    0    0  501    0  0.00000000000E+00  0.00000000000E+00  0.22074010236E+04  0.22074010236E+04  0.00000000000E+00 0. -1.
         -2   -1    0    0    0  501 -0.00000000000E+00 -0.00000000000E+00 -0.10490038756E+03  0.10490038756E+03  0.00000000000E+00 0.  1.
        -24    2    1    2    0    0  0.73167968841E+02  0.23690582050E+03  0.99457424882E+03  0.10281940837E+04  0.80791199758E+02 0.  0.
    5000000    2    1    2    0    0 -0.73167968841E+02 -0.23690582050E+03  0.11079263872E+04  0.12841073274E+04  0.59996068987E+03 0.  0.
        -24    2    4    4    0    0  0.43601158078E+02 -0.36864355400E+03  0.40695145996E+03  0.55665230529E+03  0.80331608539E+02 0.  0.
         24    2    4    4    0    0 -0.11676912692E+03  0.13173773350E+03  0.70097492727E+03  0.72745502214E+03  0.82674670509E+02 0.  0.
         11    1    5    5    0    0  0.57899320011E+02 -0.18176036294E+03  0.23090523585E+03  0.29951024813E+03  0.00000000000E+00 0. -1.
        -12    1    5    5    0    0 -0.14298161933E+02 -0.18688319107E+03  0.17604622411E+03  0.25714205716E+03  0.00000000000E+00 0.  1.
         15    1    3    3    0    0  0.60465594498E+02  0.76628302983E+02  0.44505250220E+03  0.45563458207E+03  0.17770000000E+01 0. -1.
        -16    1    3    3    0    0  0.12702374343E+02  0.16027751752E+03  0.54952174663E+03  0.57255950167E+03  0.00000000000E+00 0.  1.
          4    1    6    6  502    0 -0.58301682399E+01  0.52087038198E+01  0.17591332407E+03  0.17608696443E+03  0.00000000000E+00 0. -1.
         -3    1    6    6    0  502 -0.11093895868E+03  0.12652902968E+03  0.52506160320E+03  0.55136805770E+03  0.00000000000E+00 0.  1.
<mgrwt>
<rscale>  0 0.40634558E+03</rscale>
<asrwt>0</asrwt>
<pdfrwt beam="1">  1        1 0.33960012E+00 0.40634558E+03</pdfrwt>
<pdfrwt beam="2">  1       -2 0.16138523E-01 0.40634558E+03</pdfrwt>
<totfact> 0.63895427E+01</totfact>
</mgrwt>
</event>
<event>
12    3  0.1176505E-007  0.6343718E+03  0.7818608E-02  0.9836554E-01
          1   -1    0    0  501    0  0.00000000000E+00  0.00000000000E+00  0.12598834267E+04  0.12598834267E+04  0.00000000000E+00 0. -1.
         -2   -1    0    0    0  501 -0.00000000000E+00 -0.00000000000E+00 -0.36014215328E+03  0.36014215328E+03  0.00000000000E+00 0.  1.
        -24    2    1    2    0    0  0.45005772926E+03  0.22806077104E+03  0.58127445695E+03  0.77390167928E+03  0.80499316389E+02 0.  0.
    5000000    2    1    2    0    0 -0.45005772926E+03 -0.22806077104E+03  0.31846681646E+03  0.84612390068E+03  0.59995072062E+03 0.  0.
        -24    2    4    4    0    0  0.11564721267E+03 -0.12353477762E+03  0.15726860123E+03  0.24340342672E+03  0.76659612116E+02 0.  0.
         24    2    4    4    0    0 -0.56570494192E+03 -0.10452599342E+03  0.16119821523E+03  0.60272047396E+03  0.79619975603E+02 0.  0.
         13    1    5    5    0    0  0.55901354914E+02 -0.91031397126E+01  0.50470733005E+02  0.75862530434E+02  0.00000000000E+00 0. -1.
        -14    1    5    5    0    0  0.59745857755E+02 -0.11443163791E+03  0.10679786822E+03  0.16754089629E+03  0.00000000000E+00 0.  1.
         15    1    3    3    0    0  0.18725075428E+03  0.91613550749E+02  0.30126117900E+03  0.36635685248E+03  0.17770000000E+01 0. -1.
        -16    1    3    3    0    0  0.26280697498E+03  0.13644722029E+03  0.28001327796E+03  0.40754482681E+03  0.00000000000E+00 0.  1.
          4    1    6    6  502    0 -0.36776369693E+03 -0.97025842975E+02  0.13141689894E+03  0.40241092469E+03  0.00000000000E+00 0. -1.
         -3    1    6    6    0  502 -0.19794124499E+03 -0.75001504477E+01  0.29781316289E+02  0.20030954926E+03  0.00000000000E+00 0.  1.
<mgrwt>
<rscale>  0 0.63437181E+03</rscale>
<asrwt>0</asrwt>
<pdfrwt beam="1">  1        1 0.19382822E+00 0.63437181E+03</pdfrwt>
<pdfrwt beam="2">  1       -2 0.55406486E-01 0.63437181E+03</pdfrwt>
<totfact> 0.27008817E+01</totfact>
</mgrwt>
</event>
<event>
12    3  0.1176505E-007  0.5714943E+03  0.7818608E-02  0.9966377E-01
         -2   -1    0    0    0  501 -0.00000000000E+00  0.00000000000E+00  0.78774073300E+03  0.78774073300E+03  0.00000000000E+00 0.  1.
          1   -1    0    0  501    0  0.00000000000E+00 -0.00000000000E+00 -0.45350744703E+03  0.45350744703E+03  0.00000000000E+00 0. -1.
        -24    2    1    2    0    0 -0.24968516140E+03  0.33558500222E+03 -0.24800568371E+02  0.42650951663E+03  0.79594761417E+02 0.  0.
    5000000    2    1    2    0    0  0.24968516140E+03 -0.33558500222E+03  0.35903385434E+03  0.81473866340E+03  0.59994483708E+03 0.  0.
        -24    2    4    4    0    0 -0.68990488369E+02 -0.38434890281E+03  0.20600041580E+03  0.44946169582E+03  0.84237035330E+02 0.  0.
         24    2    4    4    0    0  0.31867564977E+03  0.48763900598E+02  0.15303343854E+03  0.36527696758E+03  0.77948328873E+02 0.  0.
         13    1    5    5    0    0 -0.87907999183E+02 -0.28176187957E+03  0.15184485591E+03  0.33192534306E+03  0.00000000000E+00 0. -1.
        -14    1    5    5    0    0  0.18917510814E+02 -0.10258702325E+03  0.54155559889E+02  0.11753635276E+03  0.00000000000E+00 0.  1.
         15    1    3    3    0    0 -0.11265946310E+03  0.11836033320E+03 -0.43171507577E+02  0.16902147762E+03  0.17770000000E+01 0.  1.
        -16    1    3    3    0    0 -0.13702569830E+03  0.21722466902E+03  0.18370939206E+02  0.25748803901E+03  0.00000000000E+00 0.  1.
          2    1    6    6  502    0  0.15297314133E+03  0.11345489599E+02  0.32002251589E+02  0.15669603125E+03  0.00000000000E+00 0. -1.
         -1    1    6    6    0  502  0.16570250844E+03  0.37418410999E+02  0.12103118695E+03  0.20858093633E+03  0.00000000000E+00 0.  1.
<mgrwt>
<rscale>  0 0.57149429E+03</rscale>
<asrwt>0</asrwt>
<pdfrwt beam="1">  1        1 0.69770376E-01 0.57149429E+03</pdfrwt>
<pdfrwt beam="2">  1       -2 0.12119088E+00 0.57149429E+03</pdfrwt>
<totfact> 0.23749852E+01</totfact>
</mgrwt>
</event>
<event>
12    3  0.1176505E-007  0.6591550E+03  0.7818608E-02  0.9789751E-01
         -2   -1    0    0    0  501 -0.00000000000E+00  0.00000000000E+00  0.51140287958E+03  0.51140287958E+03  0.00000000000E+00 0.  1.
          1   -1    0    0  501    0  0.00000000000E+00 -0.00000000000E+00 -0.12435841254E+04  0.12435841254E+04  0.00000000000E+00 0. -1.
        -24    2    1    2    0    0 -0.17599663945E+03  0.61894907308E+03 -0.67200385564E+02  0.65202035953E+03  0.80881921741E+02 0.  0.
    5000000    2    1    2    0    0  0.17599663945E+03 -0.61894907308E+03 -0.66498086025E+03  0.11029666454E+04  0.60021921354E+03 0.  0.
        -24    2    4    4    0    0  0.47047342009E+02 -0.10751705385E+03 -0.53721521714E+03  0.55572217159E+03  0.80334134765E+02 0.  0.
         24    2    4    4    0    0  0.12894929744E+03 -0.51143201923E+03 -0.12776564311E+03  0.54724447385E+03  0.70440208709E+02 0.  0.
         13    1    5    5    0    0  0.93559497528E+01 -0.10077554364E+03 -0.33663685502E+03  0.35152185728E+03  0.00000000000E+00 0. -1.
        -14    1    5    5    0    0  0.37691392256E+02 -0.67415102089E+01 -0.20057836212E+03  0.20420031430E+03  0.00000000000E+00 0.  1.
         15    1    3    3    0    0 -0.61552360640E+02  0.35664012183E+03 -0.49487804141E+02  0.36528491632E+03  0.17770000000E+01 0. -1.
        -16    1    3    3    0    0 -0.11444427881E+03  0.26230895125E+03 -0.17712581423E+02  0.28673544322E+03  0.00000000000E+00 0.  1.
          4    1    6    6  502    0  0.10832758169E+03 -0.31319961185E+03 -0.99011404349E+02  0.34587876490E+03  0.00000000000E+00 0. -1.
         -3    1    6    6    0  502  0.20621715748E+02 -0.19823240738E+03 -0.28754238757E+02  0.20136570895E+03  0.00000000000E+00 0.  1.
<mgrwt>
<rscale>  0 0.65915498E+03</rscale>
<asrwt>0</asrwt>
<pdfrwt beam="1">  1        1 0.19132063E+00 0.65915498E+03</pdfrwt>
<pdfrwt beam="2">  1       -2 0.78677367E-01 0.65915498E+03</pdfrwt>
<totfact> 0.12999904E+01</totfact>
</mgrwt>
</event>
<event>
12    3  0.1699361E-007  0.9065518E+03  0.7818608E-02  0.9417428E-01
          1   -1    0    0  501    0  0.00000000000E+00  0.00000000000E+00  0.69565249342E+03  0.69565249342E+03  0.00000000000E+00 0. -1.
         -2   -1    0    0    0  501 -0.00000000000E+00 -0.00000000000E+00 -0.12236385301E+04  0.12236385301E+04  0.00000000000E+00 0.  1.
        -24    2    1    2    0    0 -0.63236073027E+03  0.52440217522E+03 -0.18909190222E+03  0.84708844133E+03  0.83218660057E+02 0.  0.
    5000000    2    1    2    0    0  0.63236073027E+03 -0.52440217522E+03 -0.33889413444E+03  0.10722025822E+04  0.59990950010E+03 0.  0.
        -24    2    4    4    0    0  0.62491306445E+02 -0.39671484242E+03 -0.23879075381E+03  0.47437368815E+03  0.81985012776E+02 0.  0.
         24    2    4    4    0    0  0.56986942382E+03 -0.12768733280E+03 -0.10010338063E+03  0.59782889404E+03  0.79520340568E+02 0.  0.
         13    1    5    5    0    0  0.48770897491E+02 -0.14429419771E+03 -0.12549353229E+03  0.19735258444E+03  0.00000000000E+00 0. -1.
        -14    1    5    5    0    0  0.13720408954E+02 -0.25242064471E+03 -0.11329722152E+03  0.27702110371E+03  0.00000000000E+00 0.  1.
         15    1    3    3    0    0 -0.24887670441E+03  0.16769997200E+03 -0.41571463544E+02  0.30297564080E+03  0.17770000000E+01 0. -1.
        -16    1    3    3    0    0 -0.38348402586E+03  0.35670220322E+03 -0.14752043867E+03  0.54411280053E+03  0.00000000000E+00 0.  1.
          2    1    6    6  502    0  0.28462923813E+03 -0.56900229412E+02 -0.89496609697E+02  0.30374509453E+03  0.00000000000E+00 0. -1.
         -1    1    6    6    0  502  0.28524018569E+03 -0.70787103384E+02 -0.10606770933E+02  0.29408379950E+03  0.00000000000E+00 0.  1.
<mgrwt>
<rscale>  0 0.90655175E+03</rscale>
<asrwt>0</asrwt>
<pdfrwt beam="1">  1        1 0.10702346E+00 0.90655175E+03</pdfrwt>
<pdfrwt beam="2">  1       -2 0.18825208E+00 0.90655175E+03</pdfrwt>
<totfact> 0.38622217E+00</totfact>
</mgrwt>
</event>
<event>
12    3  0.1176505E-007  0.9608427E+03  0.7818608E-02  0.9352566E-01
         -2   -1    0    0    0  501 -0.00000000000E+00  0.00000000000E+00  0.11669966461E+04  0.11669966461E+04  0.00000000000E+00 0.  1.
          1   -1    0    0  501    0  0.00000000000E+00 -0.00000000000E+00 -0.91474780177E+03  0.91474780177E+03  0.00000000000E+00 0. -1.
        -24    2    1    2    0    0 -0.50909729518E+03  0.71484651657E+03 -0.23580138947E+03  0.91202480932E+03  0.77468440840E+02 0.  0.
    5000000    2    1    2    0    0  0.50909729518E+03 -0.71484651657E+03  0.48805023376E+03  0.11697196385E+04  0.59988782603E+03 0.  0.
        -24    2    4    4    0    0  0.48851674656E+03 -0.79804416299E+03  0.47392377780E+03  0.10517534815E+04  0.77836630364E+02 0.  0.
         24    2    4    4    0    0  0.20580548619E+02  0.83197646419E+02  0.14126455959E+02  0.11796615696E+03  0.79818857914E+02 0.  0.
         11    1    5    5    0    0  0.32007972183E+03 -0.56132566720E+03  0.29301076711E+03  0.70950182708E+03  0.00000000000E+00 0. -1.
        -12    1    5    5    0    0  0.16843702472E+03 -0.23671849579E+03  0.18091301069E+03  0.34225165447E+03  0.00000000000E+00 0.  1.
         15    1    3    3    0    0 -0.75244173914E+02  0.14287070389E+03 -0.65061471562E+02  0.17409731919E+03  0.17770000000E+01 0. -1.
        -16    1    3    3    0    0 -0.43385312126E+03  0.57197581268E+03 -0.17073991791E+03  0.73792749013E+03  0.00000000000E+00 0.  1.
          4    1    6    6  502    0  0.40423039764E+02  0.34973963092E+02 -0.18371933950E+02  0.56521926676E+02  0.00000000000E+00 0. -1.
         -3    1    6    6    0  502 -0.19842491145E+02  0.48223683327E+02  0.32498389909E+02  0.61444230284E+02  0.00000000000E+00 0.  1.
<mgrwt>
<rscale>  0 0.96084269E+03</rscale>
<asrwt>0</asrwt>
<pdfrwt beam="1">  1        1 0.14073043E+00 0.96084269E+03</pdfrwt>
<pdfrwt beam="2">  1       -2 0.17953794E+00 0.96084269E+03</pdfrwt>
<totfact> 0.28345345E+00</totfact>
</mgrwt>
</event>
<event>
12    3  0.1511673E-007  0.9814092E+03  0.7818608E-02  0.9329173E-01
          1   -1    0    0  501    0  0.00000000000E+00  0.00000000000E+00  0.23727051966E+04  0.23727051966E+04  0.00000000000E+00 0. -1.
         -2   -1    0    0    0  501 -0.00000000000E+00 -0.00000000000E+00 -0.42839803003E+03  0.42839803003E+03  0.00000000000E+00 0.  1.
        -24    2    1    2    0    0  0.58327925186E+03  0.70703934462E+03  0.84139919187E+03  0.12465827336E+04  0.76789264902E+02 0.  0.
    5000000    2    1    2    0    0 -0.58327925186E+03 -0.70703934462E+03  0.11029079747E+04  0.15545204930E+04  0.60000720161E+03 0.  0.
        -24    2    4    4    0    0  0.36220957867E+02 -0.28765931660E+03  0.13691290277E+03  0.33007515746E+03  0.78387667453E+02 0.  0.
         24    2    4    4    0    0 -0.61950020973E+03 -0.41938002802E+03  0.96599507191E+03  0.12244453355E+04  0.80372775069E+02 0.  0.
         11    1    5    5    0    0 -0.13570274480E+02 -0.56164198488E+02  0.25856326469E+01  0.57838179756E+02  0.00000000000E+00 0. -1.
        -12    1    5    5    0    0  0.49791232347E+02 -0.23149511811E+03  0.13432727013E+03  0.27223697770E+03  0.00000000000E+00 0.  1.
         15    1    3    3    0    0  0.44684286506E+03  0.56022957765E+03  0.69604051213E+03  0.99900013913E+03  0.17770000000E+01 0. -1.
        -16    1    3    3    0    0  0.13643638680E+03  0.14680976697E+03  0.14535867974E+03  0.24758259450E+03  0.00000000000E+00 0.  1.
          2    1    6    6  502    0 -0.13979760596E+03 -0.61497184426E+02  0.16957347696E+03  0.22821138976E+03  0.00000000000E+00 0. -1.
         -1    1    6    6    0  502 -0.47970260377E+03 -0.35788284360E+03  0.79642159495E+03  0.99623394577E+03  0.00000000000E+00 0.  1.
<mgrwt>
<rscale>  0 0.98140916E+03</rscale>
<asrwt>0</asrwt>
<pdfrwt beam="1">  1        1 0.36503156E+00 0.98140916E+03</pdfrwt>
<pdfrwt beam="2">  1       -2 0.65907391E-01 0.98140916E+03</pdfrwt>
<totfact> 0.31365726E+00</totfact>
</mgrwt>
</event>
<event>
12    3  0.1176505E-007  0.6340322E+03  0.7818608E-02  0.9837212E-01
          1   -1    0    0  501    0  0.00000000000E+00  0.00000000000E+00  0.50310285383E+03  0.50310285383E+03  0.00000000000E+00 0. -1.
         -2   -1    0    0    0  501 -0.00000000000E+00 -0.00000000000E+00 -0.10009804981E+04  0.10009804981E+04  0.00000000000E+00 0.  1.
        -24    2    1    2    0    0  0.49533781159E+03 -0.93088736453E+02 -0.50860301397E+03  0.72040817078E+03  0.79283329069E+02 0.  0.
    5000000    2    1    2    0    0 -0.49533781159E+03  0.93088736453E+02  0.10725369706E+02  0.78367518115E+03  0.60000557959E+03 0.  0.
        -24    2    4    4    0    0 -0.38259165515E+03  0.31732180241E+03  0.86320734096E+02  0.51017619324E+03  0.75887931464E+02 0.  0.
         24    2    4    4    0    0 -0.11274615644E+03 -0.22423306596E+03 -0.75595364390E+02  0.27349898790E+03  0.78069671473E+02 0.  0.
         13    1    5    5    0    0 -0.59313072181E+02  0.38025086306E+02 -0.12802646993E+02  0.71609046147E+02  0.00000000000E+00 0. -1.
        -14    1    5    5    0    0 -0.32327858297E+03  0.27929671611E+03  0.99123381089E+02  0.43856714710E+03  0.00000000000E+00 0.  1.
         15    1    3    3    0    0  0.26571601945E+03 -0.10898401886E+02 -0.25152486956E+03  0.36604876163E+03  0.17770000000E+01 0. -1.
        -16    1    3    3    0    0  0.22962179215E+03 -0.82190334567E+02 -0.25707814441E+03  0.35435940915E+03  0.00000000000E+00 0.  1.
          4    1    6    6  502    0 -0.12128132392E+03 -0.19105648479E+03 -0.77464023409E+02  0.23919116797E+03  0.00000000000E+00 0. -1.
         -3    1    6    6    0  502  0.85351674766E+01 -0.33176581172E+02  0.18686590188E+01  0.34307819935E+02  0.00000000000E+00 0.  1.
<mgrwt>
<rscale>  0 0.63403217E+03</rscale>
<asrwt>0</asrwt>
<pdfrwt beam="1">  1        1 0.77400439E-01 0.63403217E+03</pdfrwt>
<pdfrwt beam="2">  1       -2 0.15399700E+00 0.63403217E+03</pdfrwt>
<totfact> 0.11093216E+01</totfact>
</mgrwt>
</event>
<event>
12    3  0.1176505E-007  0.4269766E+03  0.7818608E-02  0.1034819E+00
          1   -1    0    0  501    0  0.00000000000E+00  0.00000000000E+00  0.13305510315E+04  0.13305510315E+04  0.00000000000E+00 0. -1.
         -2   -1    0    0    0  501 -0.00000000000E+00 -0.00000000000E+00 -0.20907673890E+03  0.20907673890E+03  0.00000000000E+00 0.  1.
        -24    2    1    2    0    0  0.20745345059E+03 -0.28011243521E+03  0.32113005931E+03  0.48050863800E+03  0.79146229754E+02 0.  0.
    5000000    2    1    2    0    0 -0.20745345059E+03  0.28011243521E+03  0.80034423326E+03  0.10591191324E+04  0.59973538692E+03 0.  0.
        -24    2    4    4    0    0 -0.50652667377E+02 -0.80102148029E+02  0.59689972227E+03  0.60963442958E+03  0.79892505644E+02 0.  0.
         24    2    4    4    0    0 -0.15680078321E+03  0.36021458324E+03  0.20344451099E+03  0.44948470279E+03  0.79409051097E+02 0.  0.
         13    1    5    5    0    0 -0.27307353928E+02 -0.15403723221E+02  0.39692982327E+03  0.39816610965E+03  0.00000000000E+00 0. -1.
        -14    1    5    5    0    0 -0.23345313448E+02 -0.64698424808E+02  0.19996989899E+03  0.21146831994E+03  0.00000000000E+00 0.  1.
         15    1    3    3    0    0  0.24335902599E+02 -0.74192542803E+02  0.10183292994E+03  0.12833500267E+03  0.17770000000E+01 0. -1.
        -16    1    3    3    0    0  0.18311754799E+03 -0.20591989240E+03  0.21929712937E+03  0.35217363533E+03  0.00000000000E+00 0.  1.
          4    1    6    6  502    0 -0.28431586025E+02  0.15650287064E+02  0.97470795501E+01  0.33886459373E+02  0.00000000000E+00 0. -1.
         -3    1    6    6    0  502 -0.12836919719E+03  0.34456429617E+03  0.19369743144E+03  0.41559824341E+03  0.00000000000E+00 0.  1.
<mgrwt>
<rscale>  0 0.42697659E+03</rscale>
<asrwt>0</asrwt>
<pdfrwt beam="1">  1        1 0.20470015E+00 0.42697659E+03</pdfrwt>
<pdfrwt beam="2">  1       -2 0.32165653E-01 0.42697659E+03</pdfrwt>
<totfact> 0.72125876E+01</totfact>
</mgrwt>
</event>
<event>
12    3  0.1176505E-007  0.7871795E+03  0.7818608E-02  0.9578762E-01
         -2   -1    0    0    0  501 -0.00000000000E+00  0.00000000000E+00  0.74388881948E+03  0.74388881948E+03  0.00000000000E+00 0.  1.
          1   -1    0    0  501    0  0.00000000000E+00 -0.00000000000E+00 -0.13109177222E+04  0.13109177222E+04  0.00000000000E+00 0. -1.
        -24    2    1    2    0    0 -0.48679031575E+03  0.47269917163E+03  0.34885930171E+03  0.76672835756E+03  0.75896268229E+02 0.  0.
    5000000    2    1    2    0    0  0.48679031575E+03 -0.47269917163E+03 -0.91588820440E+03  0.12880781841E+04  0.59990406484E+03 0.  0.
        -24    2    4    4    0    0 -0.10466323771E+03 -0.22151421284E+03 -0.23662308081E+03  0.34964816039E+03  0.78996290291E+02 0.  0.
         24    2    4    4    0    0  0.59145355346E+03 -0.25118495880E+03 -0.67926512360E+03  0.93843002370E+03  0.79615399423E+02 0.  0.
         11    1    5    5    0    0 -0.48525908378E+02 -0.12903755204E+03 -0.80298016452E+02  0.15954066900E+03  0.00000000000E+00 0. -1.
        -12    1    5    5    0    0 -0.56137329332E+02 -0.92476660797E+02 -0.15632506436E+03  0.19010749139E+03  0.00000000000E+00 0.  1.
         15    1    3    3    0    0 -0.18725317699E+03  0.13856730504E+03  0.13976884887E+03  0.27166733179E+03  0.17770000000E+01 0. -1.
        -16    1    3    3    0    0 -0.29953713876E+03  0.33413186659E+03  0.20909045284E+03  0.49506102577E+03  0.00000000000E+00 0.  1.
          2    1    6    6  502    0  0.41776957617E+03 -0.21239342218E+03 -0.47016037549E+03  0.66384724391E+03  0.00000000000E+00 0. -1.
         -3    1    6    6    0  502  0.17368397729E+03 -0.38791536612E+02 -0.20910474811E+03  0.27458277980E+03  0.00000000000E+00 0.  1.
<mgrwt>
<rscale>  0 0.78717953E+03</rscale>
<asrwt>0</asrwt>
<pdfrwt beam="1">  1        1 0.20167965E+00 0.78717953E+03</pdfrwt>
<pdfrwt beam="2">  1       -2 0.11444443E+00 0.78717953E+03</pdfrwt>
<totfact> 0.47635170E+00</totfact>
</mgrwt>
</event>
<event>
12    3  0.1176505E-007  0.5626666E+03  0.7818608E-02  0.9986039E-01
         -2   -1    0    0    0  501 -0.00000000000E+00  0.00000000000E+00  0.62752546714E+03  0.62752546714E+03  0.00000000000E+00 0.  1.
          1   -1    0    0  501    0  0.00000000000E+00 -0.00000000000E+00 -0.55042729642E+03  0.55042729642E+03  0.00000000000E+00 0. -1.
        -24    2    1    2    0    0 -0.16602740231E+03  0.39197800870E+03 -0.29051545987E+02  0.43463295825E+03  0.82764475785E+02 0.  0.
    5000000    2    1    2    0    0  0.16602740231E+03 -0.39197800870E+03  0.10614971671E+03  0.74331980530E+03  0.60003725966E+03 0.  0.
        -24    2    4    4    0    0  0.36312751836E+03 -0.20667597116E+03 -0.34883495788E+02  0.42761683947E+03  0.84040177766E+02 0.  0.
         24    2    4    4    0    0 -0.19710011605E+03 -0.18530203754E+03  0.14103321250E+03  0.31570296583E+03  0.81195410847E+02 0.  0.
         13    1    5    5    0    0  0.65430525959E+01  0.88943575711E+00 -0.12832187732E+02  0.14431482087E+02  0.00000000000E+00 0. -1.
        -14    1    5    5    0    0  0.35658446576E+03 -0.20756540691E+03 -0.22051308056E+02  0.41318535738E+03  0.00000000000E+00 0.  1.
         15    1    3    3    0    0 -0.29692845598E+02  0.14463731029E+03  0.16402032639E+02  0.14857254461E+03  0.17770000000E+01 0. -1.
        -16    1    3    3    0    0 -0.13633455671E+03  0.24734069841E+03 -0.45453578626E+02  0.28606041364E+03  0.00000000000E+00 0.  1.
          4    1    6    6  502    0 -0.21324495741E+02 -0.49567221815E+02  0.56358086457E+02  0.78024851850E+02  0.00000000000E+00 0. -1.
         -1    1    6    6    0  502 -0.17577562031E+03 -0.13573481573E+03  0.84675126039E+02  0.23767811398E+03  0.00000000000E+00 0.  1.
<mgrwt>
<rscale>  0 0.56266664E+03</rscale>
<asrwt>0</asrwt>
<pdfrwt beam="1">  1        1 0.84681123E-01 0.56266664E+03</pdfrwt>
<pdfrwt beam="2">  1       -2 0.96542379E-01 0.56266664E+03</pdfrwt>
<totfact> 0.31517588E+01</totfact>
</mgrwt>
</event>
<event>
12    3  0.1299327E-007  0.1521538E+04  0.7818608E-02  0.8870256E-01
          1   -1    0    0  501    0  0.00000000000E+00  0.00000000000E+00  0.15122972925E+04  0.15122972925E+04  0.00000000000E+00 0. -1.
         -2   -1    0    0    0  501 -0.00000000000E+00 -0.00000000000E+00 -0.17077038168E+04  0.17077038168E+04  0.00000000000E+00 0.  1.
        -24    2    1    2    0    0  0.26899418946E+03  0.14855485322E+04  0.25687057470E+03  0.15334751971E+04  0.79695497342E+02 0.  0.
    5000000    2    1    2    0    0 -0.26899418946E+03 -0.14855485322E+04 -0.45227709898E+03  0.16865259123E+04  0.60050209233E+03 0.  0.
        -24    2    4    4    0    0 -0.19818800305E+03 -0.13247629411E+04 -0.57264612841E+03  0.14590410860E+04  0.81252493103E+02 0.  0.
         24    2    4    4    0    0 -0.70806186416E+02 -0.16078559118E+03  0.12036902943E+03  0.22748482629E+03  0.79969497818E+02 0.  0.
         13    1    5    5    0    0 -0.12837521519E+03 -0.59233098290E+03 -0.24841967443E+03  0.65501795687E+03  0.00000000000E+00 0. -1.
        -14    1    5    5    0    0 -0.69812787858E+02 -0.73243195817E+03 -0.32422645398E+03  0.80402312912E+03  0.00000000000E+00 0.  1.
         15    1    3    3    0    0  0.14478376740E+03  0.94944646127E+03  0.13534997089E+03  0.96991427171E+03  0.17770000000E+01 0. -1.
        -16    1    3    3    0    0  0.12421042207E+03  0.53610207098E+03  0.12152060381E+03  0.56356092538E+03  0.00000000000E+00 0.  1.
          4    1    6    6  502    0 -0.27750310814E+02 -0.41379216097E+01  0.31965079152E+02  0.42531969514E+02  0.00000000000E+00 0. -1.
         -3    1    6    6    0  502 -0.43055875602E+02 -0.15664766957E+03  0.88403950274E+02  0.18495285677E+03  0.00000000000E+00 0.  1.
<mgrwt>
<rscale>  0 0.15215378E+04</rscale>
<asrwt>0</asrwt>
<pdfrwt beam="1">  1        1 0.23266112E+00 0.15215378E+04</pdfrwt>
<pdfrwt beam="2">  1       -2 0.26272366E+00 0.15215378E+04</pdfrwt>
<totfact> 0.28389642E-01</totfact>
</mgrwt>
</event>
<event>
12    3  0.1176505E-007  0.1001386E+04  0.7818608E-02  0.9307026E-01
          1   -1    0    0  501    0  0.00000000000E+00  0.00000000000E+00  0.21049868110E+04  0.21049868110E+04  0.00000000000E+00 0. -1.
         -2   -1    0    0    0  501 -0.00000000000E+00 -0.00000000000E+00 -0.61422280785E+03  0.61422280785E+03  0.00000000000E+00 0.  1.
        -24    2    1    2    0    0 -0.11539273369E+03 -0.90715724859E+03  0.13266148434E+04  0.16132293490E+04  0.79700896732E+02 0.  0.
    5000000    2    1    2    0    0  0.11539273369E+03  0.90715724859E+03  0.16414915970E+03  0.11059802698E+04  0.59999804498E+03 0.  0.
        -24    2    4    4    0    0  0.34841272850E+03  0.60446944260E+03  0.12166910501E+03  0.71282394518E+03  0.80869458349E+02 0.  0.
         24    2    4    4    0    0 -0.23301999482E+03  0.30268780600E+03  0.42480054693E+02  0.39315632466E+03  0.82759378262E+02 0.  0.
         13    1    5    5    0    0  0.16239774415E+03  0.29344954340E+03  0.99085514536E+02  0.34971931748E+03  0.00000000000E+00 0. -1.
        -14    1    5    5    0    0  0.18601498435E+03  0.31101989920E+03  0.22583590470E+02  0.36310462770E+03  0.00000000000E+00 0.  1.
         15    1    3    3    0    0 -0.28566302661E+02 -0.28392425763E+03  0.47924090031E+03  0.55776699076E+03  0.17770000000E+01 0. -1.
        -16    1    3    3    0    0 -0.86826431026E+02 -0.62323299096E+03  0.84737394311E+03  0.10554623582E+04  0.00000000000E+00 0.  1.
          2    1    6    6  502    0 -0.59855376903E+02  0.14213187233E+03  0.71805160835E+01  0.15438813130E+03  0.00000000000E+00 0. -1.
         -1    1    6    6    0  502 -0.17316461791E+03  0.16055593367E+03  0.35299538609E+02  0.23876819336E+03  0.00000000000E+00 0.  1.
<mgrwt>
<rscale>  0 0.10013856E+04</rscale>
<asrwt>0</asrwt>
<pdfrwt beam="1">  1        1 0.32384412E+00 0.10013856E+04</pdfrwt>
<pdfrwt beam="2">  1       -2 0.94495817E-01 0.10013856E+04</pdfrwt>
<totfact> 0.21103845E+00</totfact>
</mgrwt>
</event>
<event>
12    3  0.1176505E-007  0.3568692E+03  0.7818608E-02  0.1059830E+00
         -2   -1    0    0    0  501 -0.00000000000E+00  0.00000000000E+00  0.49117650963E+03  0.49117650963E+03  0.00000000000E+00 0.  1.
          1   -1    0    0  501    0  0.00000000000E+00 -0.00000000000E+00 -0.48547280513E+03  0.48547280513E+03  0.00000000000E+00 0. -1.
        -24    2    1    2    0    0  0.18745613433E+02 -0.25057760817E+03  0.15984713412E+03  0.30839052563E+03  0.80081672528E+02 0.  0.
    5000000    2    1    2    0    0 -0.18745613433E+02  0.25057760817E+03 -0.15414342963E+03  0.66825878913E+03  0.59972416711E+03 0.  0.
        -24    2    4    4    0    0 -0.38223999016E+02  0.33675947600E+03 -0.31409241213E+03  0.46900559030E+03  0.80275660021E+02 0.  0.
         24    2    4    4    0    0  0.19478385583E+02 -0.86181867838E+02  0.15994898251E+03  0.19925319883E+03  0.79444561741E+02 0.  0.
         13    1    5    5    0    0  0.20817873653E+02  0.10653851912E+03 -0.75439971440E+02  0.13219315115E+03  0.00000000000E+00 0. -1.
        -14    1    5    5    0    0 -0.59041872669E+02  0.23022095688E+03 -0.23865244069E+03  0.33681243915E+03  0.00000000000E+00 0.  1.
         15    1    3    3    0    0 -0.27211828834E+02 -0.47009467386E+02  0.24217656405E+02  0.59498119829E+02  0.17770000000E+01 0. -1.
        -16    1    3    3    0    0  0.45957442267E+02 -0.20356814078E+03  0.13562947772E+03  0.24889240580E+03  0.00000000000E+00 0.  1.
          2    1    6    6  502    0 -0.19618540158E+02 -0.23653109680E+02  0.98751070310E+02  0.10342209920E+03  0.00000000000E+00 0. -1.
         -1    1    6    6    0  502  0.39096925740E+02 -0.62528758159E+02  0.61197912197E+02  0.95831099631E+02  0.00000000000E+00 0.  1.
<mgrwt>
<rscale>  0 0.35686920E+03</rscale>
<asrwt>0</asrwt>
<pdfrwt beam="1">  1        1 0.74688124E-01 0.35686920E+03</pdfrwt>
<pdfrwt beam="2">  1       -2 0.75565617E-01 0.35686920E+03</pdfrwt>
<totfact> 0.66696581E+01</totfact>
</mgrwt>
</event>
<event>
12    3  0.1176505E-007  0.7724594E+03  0.7818608E-02  0.9600759E-01
         -2   -1    0    0    0  501 -0.00000000000E+00  0.00000000000E+00  0.33067387101E+03  0.33067387101E+03  0.00000000000E+00 0.  1.
          1   -1    0    0  501    0  0.00000000000E+00 -0.00000000000E+00 -0.24820888196E+04  0.24820888196E+04  0.00000000000E+00 0. -1.
        -24    2    1    2    0    0 -0.29073174427E+03  0.68319524413E+03 -0.14403282496E+04  0.16224068764E+04  0.79861864480E+02 0.  0.
    5000000    2    1    2    0    0  0.29073174427E+03 -0.68319524413E+03 -0.71108669894E+03  0.11903558141E+04  0.60001831812E+03 0.  0.
        -24    2    4    4    0    0  0.22146947347E+03 -0.17657558838E+03  0.18452295742E+02  0.29592312511E+03  0.83680001576E+02 0.  0.
         24    2    4    4    0    0  0.69262270797E+02 -0.50661965575E+03 -0.72953899469E+03  0.89443268902E+03  0.79510707895E+02 0.  0.
         11    1    5    5    0    0  0.63052962297E+02 -0.19304144645E+02 -0.21067107543E+02  0.69225349946E+02  0.00000000000E+00 0. -1.
        -12    1    5    5    0    0  0.15841651118E+03 -0.15727144374E+03  0.39519403285E+02  0.22669777516E+03  0.00000000000E+00 0.  1.
         15    1    3    3    0    0 -0.94796816883E+02  0.16883164532E+03 -0.31663666461E+03  0.37115023381E+03  0.17770000000E+01 0. -1.
        -16    1    3    3    0    0 -0.19593492739E+03  0.51436359881E+03 -0.11236915850E+04  0.12512566426E+04  0.00000000000E+00 0.  1.
          4    1    6    6  502    0  0.53282943862E+02 -0.32092011672E+03 -0.52580370301E+03  0.61830277981E+03  0.00000000000E+00 0. -1.
         -3    1    6    6    0  502  0.15979326935E+02 -0.18569953903E+03 -0.20373529168E+03  0.27612990921E+03  0.00000000000E+00 0.  1.
<mgrwt>
<rscale>  0 0.77245945E+03</rscale>
<asrwt>0</asrwt>
<pdfrwt beam="1">  1        1 0.38185982E+00 0.77245945E+03</pdfrwt>
<pdfrwt beam="2">  1       -2 0.50872902E-01 0.77245945E+03</pdfrwt>
<totfact> 0.46957196E+00</totfact>
</mgrwt>
</event>
<event>
12    3  0.1176505E-007  0.5652412E+03  0.7818608E-02  0.9980265E-01
         -2   -1    0    0    0  501 -0.00000000000E+00  0.00000000000E+00  0.68936857078E+03  0.68936857078E+03  0.00000000000E+00 0.  1.
          1   -1    0    0  501    0  0.00000000000E+00 -0.00000000000E+00 -0.62260150442E+03  0.62260150442E+03  0.00000000000E+00 0. -1.
        -24    2    1    2    0    0  0.45865610303E+03 -0.36110716805E+02  0.25591780125E+03  0.53250474458E+03  0.79987357027E+02 0.  0.
    5000000    2    1    2    0    0 -0.45865610303E+03  0.36110716805E+02 -0.18915073489E+03  0.77946533063E+03  0.60009898886E+03 0.  0.
        -24    2    4    4    0    0 -0.42641417834E+03  0.21280280691E+03  0.31174820758E+02  0.48426639154E+03  0.80174699281E+02 0.  0.
         24    2    4    4    0    0 -0.32241924688E+02 -0.17669209010E+03 -0.22032555565E+03  0.29519893909E+03  0.79620517194E+02 0.  0.
         11    1    5    5    0    0 -0.24766480797E+03  0.11642830819E+03  0.57049719038E+02  0.27954977821E+03  0.00000000000E+00 0. -1.
        -12    1    5    5    0    0 -0.17874937037E+03  0.96374498716E+02 -0.25874898280E+02  0.20471661333E+03  0.00000000000E+00 0.  1.
         15    1    3    3    0    0  0.22852153312E+03  0.14371832141E+02  0.99249282548E+02  0.24956405685E+03  0.17770000000E+01 0. -1.
        -16    1    3    3    0    0  0.23013456991E+03 -0.50482548946E+02  0.15666851870E+03  0.28294068772E+03  0.00000000000E+00 0.  1.
          4    1    6    6  502    0 -0.92008718997E+01 -0.16103401709E+03 -0.15292058623E+03  0.22226406906E+03  0.00000000000E+00 0. -1.
         -3    1    6    6    0  502 -0.23041052789E+02 -0.15658073011E+02 -0.67404969416E+02  0.72934870028E+02  0.00000000000E+00 0.  1.
<mgrwt>
<rscale>  0 0.56524120E+03</rscale>
<asrwt>0</asrwt>
<pdfrwt beam="1">  1        1 0.95784847E-01 0.56524120E+03</pdfrwt>
<pdfrwt beam="2">  1       -2 0.10605670E+00 0.56524120E+03</pdfrwt>
<totfact> 0.21181001E+01</totfact>
</mgrwt>
</event>
<event>
12    3  0.1176505E-007  0.6067528E+03  0.7818608E-02  0.9891494E-01
          1   -1    0    0  501    0  0.00000000000E+00  0.00000000000E+00  0.68021387158E+03  0.68021387158E+03  0.00000000000E+00 0. -1.
         -2   -1    0    0    0  501 -0.00000000000E+00 -0.00000000000E+00 -0.73020618157E+03  0.73020618157E+03  0.00000000000E+00 0.  1.
        -24    2    1    2    0    0  0.22385374344E+02  0.56499594663E+03  0.76864771088E+02  0.57630139356E+03  0.80582743158E+02 0.  0.
    5000000    2    1    2    0    0 -0.22385374344E+02 -0.56499594663E+03 -0.12685708108E+03  0.83411865958E+03  0.59994974335E+03 0.  0.
        -24    2    4    4    0    0 -0.16482046491E+03 -0.23559957556E+03  0.18536995073E+03  0.35163374629E+03  0.81310068513E+02 0.  0.
         24    2    4    4    0    0  0.14243509057E+03 -0.32939637107E+03 -0.31222703181E+03  0.48248491329E+03  0.80723279515E+02 0.  0.
         13    1    5    5    0    0 -0.61491337994E+02 -0.96177522585E+02  0.12150375692E+03  0.16671671615E+03  0.00000000000E+00 0. -1.
        -14    1    5    5    0    0 -0.10332912692E+03 -0.13942205297E+03  0.63866193813E+02  0.18491703014E+03  0.00000000000E+00 0.  1.
         15    1    3    3    0    0 -0.33505330805E+01  0.35909272481E+03  0.13615942806E+02  0.35937078722E+03  0.17770000000E+01 0. -1.
        -16    1    3    3    0    0  0.25735907425E+02  0.20590322182E+03  0.63248828282E+02  0.21693060634E+03  0.00000000000E+00 0.  1.
          4    1    6    6  502    0  0.10429392581E+02 -0.35783101017E+02 -0.71076644150E+02  0.80256413398E+02  0.00000000000E+00 0. -1.
         -3    1    6    6    0  502  0.13200569799E+03 -0.29361327006E+03 -0.24115038766E+03  0.40222849989E+03  0.00000000000E+00 0.  1.
<mgrwt>
<rscale>  0 0.60675277E+03</rscale>
<asrwt>0</asrwt>
<pdfrwt beam="1">  1        1 0.10464829E+00 0.60675277E+03</pdfrwt>
<pdfrwt beam="2">  1       -2 0.11233941E+00 0.60675277E+03</pdfrwt>
<totfact> 0.16116668E+01</totfact>
</mgrwt>
</event>
<event>
12    3  0.1176505E-007  0.3407947E+03  0.7818608E-02  0.1066458E+00
         -2   -1    0    0    0  501 -0.00000000000E+00  0.00000000000E+00  0.10401516031E+04  0.10401516031E+04  0.00000000000E+00 0.  1.
          1   -1    0    0  501    0  0.00000000000E+00 -0.00000000000E+00 -0.41453624570E+03  0.41453624570E+03  0.00000000000E+00 0. -1.
        -24    2    1    2    0    0  0.26181991278E+03 -0.85608109638E+02  0.73279787783E+03  0.78563867025E+03  0.66007387933E+02 0.  0.
    5000000    2    1    2    0    0 -0.26181991278E+03  0.85608109638E+02 -0.10718252042E+03  0.66904917858E+03  0.60021687373E+03 0.  0.
        -24    2    4    4    0    0 -0.27840180554E+03 -0.86619478305E+01 -0.31431193775E+03  0.42671250384E+03  0.75557739870E+02 0.  0.
         24    2    4    4    0    0  0.16581892755E+02  0.94270057468E+02  0.20712941733E+03  0.24233667474E+03  0.81625152355E+02 0.  0.
         11    1    5    5    0    0 -0.12755651784E+03  0.30641214427E+02 -0.12187616628E+03  0.17906241697E+03  0.00000000000E+00 0. -1.
        -12    1    5    5    0    0 -0.15084528770E+03 -0.39303162258E+02 -0.19243577147E+03  0.24765008687E+03  0.00000000000E+00 0.  1.
         15    1    3    3    0    0  0.90485915924E+02 -0.24632676007E+02  0.16962652669E+03  0.19383184980E+03  0.17770000000E+01 0. -1.
        -16    1    3    3    0    0  0.17133399686E+03 -0.60975433631E+02  0.56317135114E+03  0.59180682045E+03  0.00000000000E+00 0.  1.
          4    1    6    6  502    0 -0.26077149570E+02  0.18706443058E+02  0.25310522416E+02  0.40872622702E+02  0.00000000000E+00 0. -1.
         -3    1    6    6    0  502  0.42659042325E+02  0.75563614410E+02  0.18181889492E+03  0.20146405204E+03  0.00000000000E+00 0.  1.
<mgrwt>
<rscale>  0 0.34079475E+03</rscale>
<asrwt>0</asrwt>
<pdfrwt beam="1">  1        1 0.63774807E-01 0.34079475E+03</pdfrwt>
<pdfrwt beam="2">  1       -2 0.16002332E+00 0.34079475E+03</pdfrwt>
<totfact> 0.13564932E+01</totfact>
</mgrwt>
</event>
<event>
12    3  0.1176505E-007  0.1154436E+04  0.7818608E-02  0.9153701E-01
          1   -1    0    0  501    0  0.00000000000E+00  0.00000000000E+00  0.10640128466E+04  0.10640128466E+04  0.00000000000E+00 0. -1.
         -2   -1    0    0    0  501 -0.00000000000E+00 -0.00000000000E+00 -0.12792489389E+04  0.12792489389E+04  0.00000000000E+00 0.  1.
        -24    2    1    2    0    0 -0.87031206517E+03 -0.64595993347E+03 -0.20093831686E+03  0.11043499620E+04  0.67121568986E+02 0.  0.
    5000000    2    1    2    0    0  0.87031206517E+03  0.64595993347E+03 -0.14297775351E+02  0.12389118235E+04  0.59999229452E+03 0.  0.
        -24    2    4    4    0    0  0.87739254097E+03  0.37983010606E+03 -0.43042041395E+02  0.95950673677E+03  0.68643864701E+02 0.  0.
         24    2    4    4    0    0 -0.70804757933E+01  0.26612982742E+03  0.28744266044E+02  0.27940508669E+03  0.79785659496E+02 0.  0.
         13    1    5    5    0    0  0.13162334066E+03  0.66388409051E+02 -0.30006280086E+02  0.15044102335E+03  0.00000000000E+00 0. -1.
        -14    1    5    5    0    0  0.74576920031E+03  0.31344169701E+03 -0.13035761309E+02  0.80906571342E+03  0.00000000000E+00 0.  1.
         15    1    3    3    0    0 -0.34725023145E+03 -0.23238165666E+03 -0.10340087628E+03  0.43044030543E+03  0.17770000000E+01 0. -1.
        -16    1    3    3    0    0 -0.52306183372E+03 -0.41357827681E+03 -0.97537440582E+02  0.67390965660E+03  0.00000000000E+00 0.  1.
          4    1    6    6  502    0 -0.18589560338E+02  0.15101999657E+03 -0.20768962884E+02  0.15357070338E+03  0.00000000000E+00 0. -1.
         -3    1    6    6    0  502  0.11509084545E+02  0.11510983084E+03  0.49513228928E+02  0.12583438331E+03  0.00000000000E+00 0.  1.
<mgrwt>
<rscale>  0 0.11544363E+04</rscale>
<asrwt>0</asrwt>
<pdfrwt beam="1">  1        1 0.16369428E+00 0.11544363E+04</pdfrwt>
<pdfrwt beam="2">  1       -2 0.19680753E+00 0.11544363E+04</pdfrwt>
<totfact> 0.16190068E+00</totfact>
</mgrwt>
</event>
<event>
12    3  0.1176505E-007  0.5039755E+03  0.7818608E-02  0.1012746E+00
          1   -1    0    0  501    0  0.00000000000E+00  0.00000000000E+00  0.29020182039E+04  0.29020182039E+04  0.00000000000E+00 0. -1.
         -2   -1    0    0    0  501 -0.00000000000E+00 -0.00000000000E+00 -0.10027923713E+03  0.10027923713E+03  0.00000000000E+00 0.  1.
        -24    2    1    2    0    0 -0.31175996729E+03 -0.17175015997E+03  0.72672320465E+03  0.81314246214E+03  0.79885248381E+02 0.  0.
    5000000    2    1    2    0    0  0.31175996729E+03  0.17175015997E+03  0.20750157621E+04  0.21891549788E+04  0.60001392807E+03 0.  0.
        -24    2    4    4    0    0  0.34151765230E+03 -0.10197587034E+03  0.75891857085E+03  0.84224416343E+03  0.79902745199E+02 0.  0.
         24    2    4    4    0    0 -0.29757685004E+02  0.27372603031E+03  0.13160971912E+04  0.13469108154E+04  0.79028276217E+02 0.  0.
         13    1    5    5    0    0  0.19837175846E+03 -0.19600065224E+02  0.38767903261E+03  0.43592493556E+03  0.00000000000E+00 0. -1.
        -14    1    5    5    0    0  0.14314589384E+03 -0.82375805114E+02  0.37123953824E+03  0.40631922787E+03  0.00000000000E+00 0.  1.
         15    1    3    3    0    0 -0.29826710288E+02  0.72667981078E+01  0.66024684258E+02  0.72834440079E+02  0.17770000000E+01 0. -1.
        -16    1    3    3    0    0 -0.28193325701E+03 -0.17901695808E+03  0.66069852039E+03  0.74030802206E+03  0.00000000000E+00 0.  1.
          2    1    6    6  502    0  0.37486522556E+00  0.18568998408E+03  0.71822438062E+03  0.74184039499E+03  0.00000000000E+00 0. -1.
         -1    1    6    6    0  502 -0.30132550230E+02  0.88036046227E+02  0.59787281060E+03  0.60507042042E+03  0.00000000000E+00 0.  1.
<mgrwt>
<rscale>  0 0.50397548E+03</rscale>
<asrwt>0</asrwt>
<pdfrwt beam="1">  1        1 0.44646428E+00 0.50397548E+03</pdfrwt>
<pdfrwt beam="2">  1       -2 0.15427577E-01 0.50397548E+03</pdfrwt>
<totfact> 0.22795552E+01</totfact>
</mgrwt>
</event>
<event>
12    3  0.1176505E-007  0.5254957E+03  0.7818608E-02  0.1007330E+00
          3   -1    0    0  501    0  0.00000000000E+00  0.00000000000E+00  0.20568906208E+03  0.20568906208E+03  0.00000000000E+00 0. -1.
         -4   -1    0    0    0  501 -0.00000000000E+00 -0.00000000000E+00 -0.13811079791E+04  0.13811079791E+04  0.00000000000E+00 0.  1.
        -24    2    1    2    0    0  0.35667823717E+03 -0.20769283869E+02 -0.38488502914E+03  0.53195826676E+03  0.84807923521E+02 0.  0.
    5000000    2    1    2    0    0 -0.35667823717E+03  0.20769283869E+02 -0.79053388792E+03  0.10548387745E+04  0.60007523206E+03 0.  0.
        -24    2    4    4    0    0 -0.22545607924E+03  0.29739264202E+03 -0.40123147902E+03  0.55333275827E+03  0.76926032169E+02 0.  0.
         24    2    4    4    0    0 -0.13122215793E+03 -0.27662335816E+03 -0.38930240890E+03  0.50150601619E+03  0.78817394580E+02 0.  0.
         11    1    5    5    0    0 -0.93716905857E+02  0.15871894064E+03 -0.24359672344E+03  0.30547327908E+03  0.00000000000E+00 0. -1.
        -12    1    5    5    0    0 -0.13173917338E+03  0.13867370138E+03 -0.15763475558E+03  0.24785947919E+03  0.00000000000E+00 0.  1.
         15    1    3    3    0    0  0.17625053549E+03 -0.30599947920E+02 -0.13762093306E+03  0.22570619623E+03  0.17770000000E+01 0. -1.
        -16    1    3    3    0    0  0.18042770168E+03  0.98306640501E+01 -0.24726409608E+03  0.30625207052E+03  0.00000000000E+00 0.  1.
          2    1    6    6  502    0 -0.89782543887E+01 -0.10340937910E+03 -0.13913881855E+03  0.17359066670E+03  0.00000000000E+00 0. -1.
         -1    1    6    6    0  502 -0.12224390354E+03 -0.17321397905E+03 -0.25016359034E+03  0.32791534948E+03  0.00000000000E+00 0.  1.
<mgrwt>
<rscale>  0 0.52549574E+03</rscale>
<asrwt>0</asrwt>
<pdfrwt beam="1">  1        3 0.31644471E-01 0.52549574E+03</pdfrwt>
<pdfrwt beam="2">  1       -4 0.21247815E+00 0.52549574E+03</pdfrwt>
<totfact> 0.24605420E+00</totfact>
</mgrwt>
</event>
<event>
12    3  0.1176505E-007  0.5437355E+03  0.7818608E-02  0.1002954E+00
          1   -1    0    0  501    0  0.00000000000E+00  0.00000000000E+00  0.23205322207E+04  0.23205322207E+04  0.00000000000E+00 0. -1.
         -2   -1    0    0    0  501 -0.00000000000E+00 -0.00000000000E+00 -0.20716571402E+03  0.20716571402E+03  0.00000000000E+00 0.  1.
        -24    2    1    2    0    0  0.30413268245E+03  0.39949431836E+03  0.41038859043E+03  0.65344255826E+03  0.80473491623E+02 0.  0.
    5000000    2    1    2    0    0 -0.30413268245E+03 -0.39949431836E+03  0.17029779162E+04  0.18742553765E+04  0.60050564865E+03 0.  0.
        -24    2    4    4    0    0 -0.32481500611E+03 -0.25376116603E+03  0.47016162559E+03  0.63020398740E+03  0.78775592591E+02 0.  0.
         24    2    4    4    0    0  0.20682323656E+02 -0.14573315233E+03  0.12328162906E+04  0.12440513891E+04  0.78498037718E+02 0.  0.
         13    1    5    5    0    0 -0.32241385370E+03 -0.25907970354E+03  0.46108037225E+03  0.61940947322E+03  0.00000000000E+00 0. -1.
        -14    1    5    5    0    0 -0.24011524033E+01  0.53185375140E+01  0.90812533409E+01  0.10794514180E+02  0.00000000000E+00 0.  1.
         15    1    3    3    0    0  0.29099795089E+03  0.34279241055E+03  0.35251733348E+03  0.57136509544E+03  0.17770000000E+01 0. -1.
        -16    1    3    3    0    0  0.13134731564E+02  0.56701907809E+02  0.57871256951E+02  0.82077462824E+02  0.00000000000E+00 0.  1.
          4    1    6    6  502    0  0.43070607748E+01 -0.14358776085E+03  0.11800344379E+04  0.11887460917E+04  0.00000000000E+00 0. -1.
         -3    1    6    6    0  502  0.16375262881E+02 -0.21453914798E+01  0.52781852730E+02  0.55305297365E+02  0.00000000000E+00 0.  1.
<mgrwt>
<rscale>  0 0.54373550E+03</rscale>
<asrwt>0</asrwt>
<pdfrwt beam="1">  1        1 0.35700494E+00 0.54373550E+03</pdfrwt>
<pdfrwt beam="2">  1       -2 0.31871650E-01 0.54373550E+03</pdfrwt>
<totfact> 0.15673235E+01</totfact>
</mgrwt>
</event>
<event>
12    3  0.1176505E-007  0.8391654E+03  0.7818608E-02  0.9504995E-01
          1   -1    0    0  501    0  0.00000000000E+00  0.00000000000E+00  0.20649601072E+04  0.20649601072E+04  0.00000000000E+00 0. -1.
         -2   -1    0    0    0  501 -0.00000000000E+00 -0.00000000000E+00 -0.52022684074E+03  0.52022684074E+03  0.00000000000E+00 0.  1.
        -24    2    1    2    0    0  0.19154464945E+03  0.73397909176E+03  0.14173694372E+04  0.16095289750E+04  0.78947704315E+02 0.  0.
    5000000    2    1    2    0    0 -0.19154464945E+03 -0.73397909176E+03  0.12736382928E+03  0.97565797296E+03  0.60022685321E+03 0.  0.
        -24    2    4    4    0    0 -0.35446532686E+03 -0.39826446085E+03 -0.74642560287E+02  0.54390827060E+03  0.77488362364E+02 0.  0.
         24    2    4    4    0    0  0.16292067741E+03 -0.33571463092E+03  0.20200638957E+03  0.43174970236E+03  0.79710498194E+02 0.  0.
         11    1    5    5    0    0 -0.24642623947E+03 -0.30171005689E+03 -0.23555361151E+02  0.39026875992E+03  0.00000000000E+00 0. -1.
        -12    1    5    5    0    0 -0.10803908739E+03 -0.96554403952E+02 -0.51087199136E+02  0.15363951068E+03  0.00000000000E+00 0.  1.
         15    1    3    3    0    0  0.37559038889E+02  0.29393028071E+03  0.53695285925E+03  0.61329211808E+03  0.17770000000E+01 0. -1.
        -16    1    3    3    0    0  0.15398561056E+03  0.44004881105E+03  0.88041657794E+03  0.99623685692E+03  0.00000000000E+00 0.  1.
          4    1    6    6  502    0  0.76162285528E+02 -0.24166887935E+03  0.14140704010E+03  0.29017321030E+03  0.00000000000E+00 0. -1.
         -3    1    6    6    0  502  0.86758391879E+02 -0.94045751568E+02  0.60599349468E+02  0.14157649206E+03  0.00000000000E+00 0.  1.
<mgrwt>
<rscale>  0 0.83916539E+03</rscale>
<asrwt>0</asrwt>
<pdfrwt beam="1">  1        1 0.31768617E+00 0.83916539E+03</pdfrwt>
<pdfrwt beam="2">  1       -2 0.80034900E-01 0.83916539E+03</pdfrwt>
<totfact> 0.33639232E+00</totfact>
</mgrwt>
</event>
<event>
12    3  0.1378867E-007  0.1177419E+04  0.7818608E-02  0.9132855E-01
          1   -1    0    0  501    0  0.00000000000E+00  0.00000000000E+00  0.10728667248E+04  0.10728667248E+04  0.00000000000E+00 0. -1.
         -2   -1    0    0    0  501 -0.00000000000E+00 -0.00000000000E+00 -0.13400762226E+04  0.13400762226E+04  0.00000000000E+00 0.  1.
        -24    2    1    2    0    0 -0.93753646635E+03 -0.61668794710E+03 -0.15466530058E+03  0.11354635718E+04  0.77958436710E+02 0.  0.
    5000000    2    1    2    0    0  0.93753646635E+03  0.61668794710E+03 -0.11254419718E+03  0.12774793755E+04  0.60000725728E+03 0.  0.
        -24    2    4    4    0    0  0.72443241141E+03  0.68433283682E+03 -0.20573636331E+03  0.10222151413E+04  0.97378609816E+02 0.  0.
         24    2    4    4    0    0  0.21310405495E+03 -0.67644889720E+02  0.93192166127E+02  0.25526423426E+03  0.80534962125E+02 0.  0.
         13    1    5    5    0    0  0.22743815784E+03  0.26520237933E+03 -0.10118065207E+03  0.36372784056E+03  0.00000000000E+00 0. -1.
        -14    1    5    5    0    0  0.49699425356E+03  0.41913045749E+03 -0.10455571124E+03  0.65848730073E+03  0.00000000000E+00 0.  1.
         15    1    3    3    0    0 -0.68436340492E+03 -0.48405839975E+03 -0.13413260860E+03  0.84891726262E+03  0.17770000000E+01 0. -1.
        -16    1    3    3    0    0 -0.25317306143E+03 -0.13262954735E+03 -0.20532691974E+02  0.28654630918E+03  0.00000000000E+00 0.  1.
          2    1    6    6  502    0  0.99014599172E+02 -0.62445138178E+02  0.17776402777E+02  0.11840306849E+03  0.00000000000E+00 0. -1.
         -1    1    6    6    0  502  0.11408945577E+03 -0.51997515422E+01  0.75415763350E+02  0.13686116577E+03  0.00000000000E+00 0.  1.
<mgrwt>
<rscale>  0 0.11774186E+04</rscale>
<asrwt>0</asrwt>
<pdfrwt beam="1">  1        1 0.16505642E+00 0.11774186E+04</pdfrwt>
<pdfrwt beam="2">  1       -2 0.20616557E+00 0.11774186E+04</pdfrwt>
<totfact> 0.13809443E+00</totfact>
</mgrwt>
</event>
<event>
12    3  0.1176505E-007  0.1133770E+04  0.7818608E-02  0.9172889E-01
          1   -1    0    0  501    0  0.00000000000E+00  0.00000000000E+00  0.70946508650E+03  0.70946508650E+03  0.00000000000E+00 0. -1.
         -2   -1    0    0    0  501 -0.00000000000E+00 -0.00000000000E+00 -0.19522022670E+04  0.19522022670E+04  0.00000000000E+00 0.  1.
        -24    2    1    2    0    0 -0.71000546536E+03  0.82720216635E+03 -0.73739707746E+03  0.13186405014E+04  0.81774918753E+02 0.  0.
    5000000    2    1    2    0    0  0.71000546536E+03 -0.82720216635E+03 -0.50534010306E+03  0.13430268521E+04  0.59998443380E+03 0.  0.
        -24    2    4    4    0    0  0.35996701550E+03 -0.72346695884E+03 -0.14669215640E+03  0.82516245826E+03  0.79961246715E+02 0.  0.
         24    2    4    4    0    0  0.35003844985E+03 -0.10373520750E+03 -0.35864794666E+03  0.51786439382E+03  0.79166098141E+02 0.  0.
         11    1    5    5    0    0  0.13942445515E+03 -0.26072420672E+03 -0.91983249360E+02  0.30964045089E+03  0.00000000000E+00 0. -1.
        -12    1    5    5    0    0  0.22054256035E+03 -0.46274275213E+03 -0.54708907041E+02  0.51552200737E+03  0.00000000000E+00 0.  1.
         15    1    3    3    0    0 -0.20442564778E+03  0.29713746657E+03 -0.24292432719E+03  0.43485159075E+03  0.17770000000E+01 0. -1.
        -16    1    3    3    0    0 -0.50557981757E+03  0.53006469978E+03 -0.49447275027E+03  0.88378891068E+03  0.00000000000E+00 0.  1.
          4    1    6    6  502    0  0.16028540526E+03 -0.33528617468E+02 -0.10986019214E+03  0.19719239627E+03  0.00000000000E+00 0. -1.
         -3    1    6    6    0  502  0.18975304459E+03 -0.70206590033E+02 -0.24878775452E+03  0.32067199756E+03  0.00000000000E+00 0.  1.
<mgrwt>
<rscale>  0 0.11337697E+04</rscale>
<asrwt>0</asrwt>
<pdfrwt beam="1">  1        1 0.10914848E+00 0.11337697E+04</pdfrwt>
<pdfrwt beam="2">  1       -2 0.30033881E+00 0.11337697E+04</pdfrwt>
<totfact> 0.73378405E-01</totfact>
</mgrwt>
</event>
<event>
12    3  0.1176505E-007  0.5186024E+03  0.7818608E-02  0.1009034E+00
         -2   -1    0    0    0  501 -0.00000000000E+00  0.00000000000E+00  0.44981861857E+03  0.44981861857E+03  0.00000000000E+00 0.  1.
          1   -1    0    0  501    0  0.00000000000E+00 -0.00000000000E+00 -0.71256987058E+03  0.71256987058E+03  0.00000000000E+00 0. -1.
        -24    2    1    2    0    0  0.18053448971E+03 -0.35880886924E+03 -0.85088966668E+02  0.41877099225E+03  0.82416655382E+02 0.  0.
    5000000    2    1    2    0    0 -0.18053448971E+03  0.35880886924E+03 -0.17766228534E+03  0.74361749690E+03  0.60005548697E+03 0.  0.
        -24    2    4    4    0    0 -0.31370117922E+03  0.37364901173E+03  0.16519964840E+02  0.49435352253E+03  0.78041541409E+02 0.  0.
         24    2    4    4    0    0  0.13316668951E+03 -0.14840142486E+02 -0.19418225018E+03  0.24926397437E+03  0.80449895042E+02 0.  0.
         13    1    5    5    0    0 -0.14274130860E+03  0.15076917975E+03 -0.29520808318E+02  0.20970909582E+03  0.00000000000E+00 0. -1.
        -14    1    5    5    0    0 -0.17095987062E+03  0.22287983197E+03  0.46040773158E+02  0.28464442671E+03  0.00000000000E+00 0.  1.
         15    1    3    3    0    0 -0.49938315328E+00 -0.63305476101E+02 -0.90068771270E+01  0.63969635394E+02  0.17770000000E+01 0. -1.
        -16    1    3    3    0    0  0.18103387286E+03 -0.29550339314E+03 -0.76082089541E+02  0.35480135686E+03  0.00000000000E+00 0.  1.
          2    1    6    6  502    0  0.25069485595E+02 -0.17673428795E+02 -0.10409623038E+03  0.10852121623E+03  0.00000000000E+00 0. -1.
         -1    1    6    6    0  502  0.10809720392E+03  0.28332863085E+01 -0.90086019795E+02  0.14074275814E+03  0.00000000000E+00 0.  1.
<mgrwt>
<rscale>  0 0.51860238E+03</rscale>
<asrwt>0</asrwt>
<pdfrwt beam="1">  1        1 0.10962613E+00 0.51860238E+03</pdfrwt>
<pdfrwt beam="2">  1       -2 0.69202865E-01 0.51860238E+03</pdfrwt>
<totfact> 0.46099028E+01</totfact>
</mgrwt>
</event>
<event>
12    3  0.1176505E-007  0.8761982E+03  0.7818608E-02  0.9455834E-01
          3   -1    0    0  501    0  0.00000000000E+00  0.00000000000E+00  0.96356942942E+03  0.96356942942E+03  0.00000000000E+00 0. -1.
         -4   -1    0    0    0  501 -0.00000000000E+00 -0.00000000000E+00 -0.96091275210E+03  0.96091275210E+03  0.00000000000E+00 0.  1.
        -24    2    1    2    0    0  0.74107617229E+03 -0.40534624531E+03  0.19421167039E+03  0.87044242021E+03  0.80326597448E+02 0.  0.
    5000000    2    1    2    0    0 -0.74107617229E+03  0.40534624531E+03 -0.19155499308E+03  0.10540397613E+04  0.60067214962E+03 0.  0.
        -24    2    4    4    0    0 -0.15369531154E+02  0.73031688484E+02  0.14719441808E+03  0.18325361855E+03  0.79660793279E+02 0.  0.
         24    2    4    4    0    0 -0.72570664114E+03  0.33231455683E+03 -0.33874941117E+03  0.87078614276E+03  0.80213771821E+02 0.  0.
         13    1    5    5    0    0 -0.16700825204E+02 -0.11501062908E+02  0.11318279735E+02  0.23222735986E+02  0.00000000000E+00 0. -1.
        -14    1    5    5    0    0  0.13312940500E+01  0.84532751392E+02  0.13587613835E+03  0.16003088256E+03  0.00000000000E+00 0.  1.
         15    1    3    3    0    0  0.51395341572E+03 -0.25336645523E+03  0.10199240747E+03  0.58202086138E+03  0.17770000000E+01 0. -1.
        -16    1    3    3    0    0  0.22712275657E+03 -0.15197979008E+03  0.92219262926E+02  0.28842155883E+03  0.00000000000E+00 0.  1.
          2    1    6    6  502    0 -0.43458142342E+03  0.16073260139E+03 -0.17528263666E+03  0.49539881454E+03  0.00000000000E+00 0. -1.
         -1    1    6    6    0  502 -0.29112521772E+03  0.17158195544E+03 -0.16346677451E+03  0.37538732822E+03  0.00000000000E+00 0.  1.
<mgrwt>
<rscale>  0 0.87619818E+03</rscale>
<asrwt>0</asrwt>
<pdfrwt beam="1">  1        3 0.14824145E+00 0.87619818E+03</pdfrwt>
<pdfrwt beam="2">  1       -4 0.14783273E+00 0.87619818E+03</pdfrwt>
<totfact> 0.23020163E-01</totfact>
</mgrwt>
</event>
<event>
12    3  0.1176505E-007  0.1574203E+04  0.7818608E-02  0.8836555E-01
         -2   -1    0    0    0  501 -0.00000000000E+00  0.00000000000E+00  0.10720939598E+04  0.10720939598E+04  0.00000000000E+00 0.  1.
          1   -1    0    0  501    0  0.00000000000E+00 -0.00000000000E+00 -0.25358751408E+04  0.25358751408E+04  0.00000000000E+00 0. -1.
        -24    2    1    2    0    0  0.15144138124E+04  0.41707064662E+03 -0.10005197938E+04  0.18638850374E+04  0.75036358709E+02 0.  0.
    5000000    2    1    2    0    0 -0.15144138124E+04 -0.41707064662E+03 -0.46326138723E+03  0.17440840632E+04  0.59985080398E+03 0.  0.
        -24    2    4    4    0    0 -0.79273588543E+03 -0.24984521618E+03 -0.54143277685E+03  0.99493561833E+03  0.76776407133E+02 0.  0.
         24    2    4    4    0    0 -0.72167792702E+03 -0.16722543045E+03  0.78171389622E+02  0.74914844488E+03  0.79556592213E+02 0.  0.
         11    1    5    5    0    0 -0.77995637433E+03 -0.24638039571E+03 -0.51845751135E+03  0.96841800702E+03  0.00000000000E+00 0. -1.
        -12    1    5    5    0    0 -0.12779511092E+02 -0.34648204639E+01 -0.22975265504E+02  0.26517611310E+02  0.00000000000E+00 0.  1.
         15    1    3    3    0    0  0.45306317452E+03  0.90850249100E+02 -0.30566947702E+03  0.55403699767E+03  0.17770000000E+01 0. -1.
        -16    1    3    3    0    0  0.10613506379E+04  0.32622039752E+03 -0.69485031678E+03  0.13098480397E+04  0.00000000000E+00 0.  1.
          2    1    6    6  502    0 -0.51480945743E+03 -0.83160511072E+02  0.64116605920E+02  0.52540973270E+03  0.00000000000E+00 0. -1.
         -1    1    6    6    0  502 -0.20686846959E+03 -0.84064919376E+02  0.14054783702E+02  0.22373871218E+03  0.00000000000E+00 0.  1.
<mgrwt>
<rscale>  0 0.15742028E+04</rscale>
<asrwt>0</asrwt>
<pdfrwt beam="1">  1        1 0.39013463E+00 0.15742028E+04</pdfrwt>
<pdfrwt beam="2">  1       -2 0.16493753E+00 0.15742028E+04</pdfrwt>
<totfact> 0.24378024E-01</totfact>
</mgrwt>
</event>
<event>
12    3  0.1176505E-007  0.4806362E+03  0.7818608E-02  0.1018960E+00
         -4   -1    0    0    0  501 -0.00000000000E+00  0.00000000000E+00  0.51492454321E+03  0.51492454321E+03  0.00000000000E+00 0.  1.
          3   -1    0    0  501    0  0.00000000000E+00 -0.00000000000E+00 -0.46498579508E+03  0.46498579508E+03  0.00000000000E+00 0. -1.
        -24    2    1    2    0    0 -0.29685056792E+03  0.25228692184E+02  0.23807506401E+02  0.30935959520E+03  0.79873745367E+02 0.  0.
    5000000    2    1    2    0    0  0.29685056792E+03 -0.25228692184E+02  0.26131241736E+02  0.67055074309E+03  0.60016556939E+03 0.  0.
        -24    2    4    4    0    0  0.20897155123E+03 -0.29643105167E+03  0.40636597611E+02  0.37357877930E+03  0.79807854649E+02 0.  0.
         24    2    4    4    0    0  0.87879016687E+02  0.27120235948E+03 -0.14505355875E+02  0.29697196379E+03  0.81905436712E+02 0.  0.
         11    1    5    5    0    0  0.14679304047E+03 -0.15960990856E+03 -0.37253263350E+01  0.21688106809E+03  0.00000000000E+00 0. -1.
        -12    1    5    5    0    0  0.62178510756E+02 -0.13682114311E+03  0.44361923946E+02  0.15669771121E+03  0.00000000000E+00 0.  1.
         15    1    3    3    0    0 -0.16864943061E+03 -0.24279940910E+02  0.22888570038E+02  0.17192786378E+03  0.17770000000E+01 0. -1.
        -16    1    3    3    0    0 -0.12820113731E+03  0.49508633094E+02  0.91893636272E+00  0.13743173143E+03  0.00000000000E+00 0.  1.
          2    1    6    6  502    0  0.42846909521E+02  0.17377001863E+03 -0.46598004836E+02  0.18494120980E+03  0.00000000000E+00 0. -1.
         -1    1    6    6    0  502  0.45032107166E+02  0.97432340856E+02  0.32092648961E+02  0.11203075398E+03  0.00000000000E+00 0.  1.
<mgrwt>
<rscale>  0 0.48063623E+03</rscale>
<asrwt>0</asrwt>
<pdfrwt beam="1">  1        3 0.71536276E-01 0.48063623E+03</pdfrwt>
<pdfrwt beam="2">  1       -4 0.79219161E-01 0.48063623E+03</pdfrwt>
<totfact> 0.59493138E+00</totfact>
</mgrwt>
</event>
<event>
12    3  0.1176505E-007  0.6724953E+03  0.7818608E-02  0.9765460E-01
          1   -1    0    0  501    0  0.00000000000E+00  0.00000000000E+00  0.19217424887E+04  0.19217424887E+04  0.00000000000E+00 0. -1.
         -2   -1    0    0    0  501 -0.00000000000E+00 -0.00000000000E+00 -0.45281298504E+03  0.45281298504E+03  0.00000000000E+00 0.  1.
        -24    2    1    2    0    0 -0.50938864380E+03 -0.25865975801E+03  0.14333726286E+04  0.15451998176E+04  0.81876266931E+02 0.  0.
    5000000    2    1    2    0    0  0.50938864380E+03  0.25865975801E+03  0.35556875013E+02  0.82935565609E+03  0.60015402363E+03 0.  0.
        -24    2    4    4    0    0  0.36236547872E+03  0.41540208714E+03 -0.95104847595E+02  0.56522628984E+03  0.81044386118E+02 0.  0.
         24    2    4    4    0    0  0.14702316508E+03 -0.15674232912E+03  0.13066172261E+03  0.26412936625E+03  0.80671355216E+02 0.  0.
         11    1    5    5    0    0  0.17537600402E+03  0.14136455586E+03 -0.45016581114E+02  0.22971106420E+03  0.00000000000E+00 0. -1.
        -12    1    5    5    0    0  0.18698947470E+03  0.27403753127E+03 -0.50088266481E+02  0.33551522563E+03  0.00000000000E+00 0.  1.
         15    1    3    3    0    0 -0.10500945620E+03 -0.50468624216E+02  0.38922805946E+03  0.40629509956E+03  0.17770000000E+01 0. -1.
        -16    1    3    3    0    0 -0.40437918760E+03 -0.20819113380E+03  0.10441445692E+04  0.11389047181E+04  0.00000000000E+00 0.  1.
          2    1    6    6  502    0  0.35412849889E+02 -0.22092691063E+02  0.65141986606E+02  0.77366887973E+02  0.00000000000E+00 0. -1.
         -1    1    6    6    0  502  0.11161031519E+03 -0.13464963806E+03  0.65519736003E+02  0.18676247828E+03  0.00000000000E+00 0.  1.
<mgrwt>
<rscale>  0 0.67249532E+03</rscale>
<asrwt>0</asrwt>
<pdfrwt beam="1">  1        1 0.29565269E+00 0.67249532E+03</pdfrwt>
<pdfrwt beam="2">  1       -2 0.69663537E-01 0.67249532E+03</pdfrwt>
<totfact> 0.58587574E+00</totfact>
</mgrwt>
</event>
<event>
12    3  0.1176505E-007  0.6312266E+03  0.7818608E-02  0.9842658E-01
          1   -1    0    0  501    0  0.00000000000E+00  0.00000000000E+00  0.38050633441E+04  0.38050633441E+04  0.00000000000E+00 0. -1.
         -2   -1    0    0    0  501 -0.00000000000E+00 -0.00000000000E+00 -0.24273824867E+03  0.24273824867E+03  0.00000000000E+00 0.  1.
        -24    2    1    2    0    0 -0.37513023275E+03 -0.37839707039E+03  0.17438806127E+03  0.56615349260E+03  0.78813367297E+02 0.  0.
    5000000    2    1    2    0    0  0.37513023275E+03  0.37839707039E+03  0.33879370342E+04  0.34816481002E+04  0.59987424651E+03 0.  0.
        -24    2    4    4    0    0  0.49360643262E+03  0.33959494886E+03  0.21186028585E+04  0.22037353732E+04  0.94865608444E+02 0.  0.
         24    2    4    4    0    0 -0.11847619987E+03  0.38802121537E+02  0.12693341757E+04  0.12779127270E+04  0.79432194746E+02 0.  0.
         13    1    5    5    0    0  0.32626922556E+03  0.21034706977E+03  0.15237396699E+04  0.15724121848E+04  0.00000000000E+00 0. -1.
        -14    1    5    5    0    0  0.16733720706E+03  0.12924787909E+03  0.59486318859E+03  0.63132318843E+03  0.00000000000E+00 0.  1.
         15    1    3    3    0    0 -0.89696183066E+02 -0.13986698481E+03  0.42866190859E+02  0.17160666288E+03  0.17770000000E+01 0. -1.
        -16    1    3    3    0    0 -0.28543404968E+03 -0.23853008558E+03  0.13152187041E+03  0.39454682972E+03  0.00000000000E+00 0.  1.
          2    1    6    6  502    0 -0.42232412811E+02  0.14016129273E+02  0.83868371366E+03  0.83986332229E+03  0.00000000000E+00 0. -1.
         -1    1    6    6    0  502 -0.76243787064E+02  0.24785992264E+02  0.43065046206E+03  0.43804940469E+03  0.00000000000E+00 0.  1.
<mgrwt>
<rscale>  0 0.63122656E+03</rscale>
<asrwt>0</asrwt>
<pdfrwt beam="1">  1        1 0.58539432E+00 0.63122656E+03</pdfrwt>
<pdfrwt beam="2">  1       -2 0.37344349E-01 0.63122656E+03</pdfrwt>
<totfact> 0.94647959E-01</totfact>
</mgrwt>
</event>
<event>
12    3  0.1176505E-007  0.1093164E+04  0.7818608E-02  0.9211881E-01
         -2   -1    0    0    0  501 -0.00000000000E+00  0.00000000000E+00  0.15327129858E+04  0.15327129858E+04  0.00000000000E+00 0.  1.
          1   -1    0    0  501    0  0.00000000000E+00 -0.00000000000E+00 -0.94996653221E+03  0.94996653221E+03  0.00000000000E+00 0. -1.
        -24    2    1    2    0    0 -0.79288569501E+03  0.67935732775E+03 -0.17219616239E+03  0.10613530250E+04  0.81391776373E+02 0.  0.
    5000000    2    1    2    0    0  0.79288569501E+03 -0.67935732775E+03  0.75494261597E+03  0.14213264930E+04  0.60003045099E+03 0.  0.
        -24    2    4    4    0    0  0.83161310710E+03 -0.58337889120E+03  0.79296695770E+03  0.12912092864E+04  0.80706473086E+02 0.  0.
         24    2    4    4    0    0 -0.38727412091E+02 -0.95978436551E+02 -0.38024341730E+02  0.13011720653E+03  0.69086642286E+02 0.  0.
         11    1    5    5    0    0  0.18811834126E+03 -0.99199268095E+02  0.19004090824E+03  0.28520966308E+03  0.00000000000E+00 0. -1.
        -12    1    5    5    0    0  0.64349476583E+03 -0.48417962310E+03  0.60292604946E+03  0.10059996234E+04  0.00000000000E+00 0.  1.
         15    1    3    3    0    0 -0.49952900493E+03  0.37596065364E+03 -0.97224687352E+02  0.63271750206E+03  0.17770000000E+01 0. -1.
        -16    1    3    3    0    0 -0.29335669008E+03  0.30339667411E+03 -0.74971475043E+02  0.42863552296E+03  0.00000000000E+00 0.  1.
          2    1    6    6  502    0 -0.41542539985E+01  0.93672626755E+01 -0.12824566451E+02  0.16415630995E+02  0.00000000000E+00 0. -1.
         -1    1    6    6    0  502 -0.34573158092E+02 -0.10534569923E+03 -0.25199775279E+02  0.11370157554E+03  0.00000000000E+00 0.  1.
<mgrwt>
<rscale>  0 0.10931639E+04</rscale>
<asrwt>0</asrwt>
<pdfrwt beam="1">  1        1 0.14614870E+00 0.10931639E+04</pdfrwt>
<pdfrwt beam="2">  1       -2 0.23580200E+00 0.10931639E+04</pdfrwt>
<totfact> 0.11297589E+00</totfact>
</mgrwt>
</event>
<event>
12    3  0.1176505E-007  0.1204128E+04  0.7818608E-02  0.9109251E-01
         -2   -1    0    0    0  501 -0.00000000000E+00  0.00000000000E+00  0.86804959324E+03  0.86804959324E+03  0.00000000000E+00 0.  1.
          1   -1    0    0  501    0  0.00000000000E+00 -0.00000000000E+00 -0.18428580577E+04  0.18428580577E+04  0.00000000000E+00 0. -1.
        -24    2    1    2    0    0 -0.80584623780E+03  0.79676597936E+03 -0.85721572600E+03  0.14231028823E+04  0.78605521405E+02 0.  0.
    5000000    2    1    2    0    0  0.80584623780E+03 -0.79676597936E+03 -0.11759273843E+03  0.12878047686E+04  0.60032398331E+03 0.  0.
        -24    2    4    4    0    0  0.36884460877E+03 -0.73901249744E+03 -0.12515123384E+03  0.83916336139E+03  0.79664916838E+02 0.  0.
         24    2    4    4    0    0  0.43700162903E+03 -0.57753481920E+02  0.75584954102E+01  0.44864140717E+03  0.83163050218E+02 0.  0.
         13    1    5    5    0    0  0.31769121389E+03 -0.65522706003E+03 -0.13468928211E+03  0.74053454362E+03  0.00000000000E+00 0. -1.
        -14    1    5    5    0    0  0.51153394876E+02 -0.83785437406E+02  0.95380482720E+01  0.98628817764E+02  0.00000000000E+00 0.  1.
         15    1    3    3    0    0 -0.23968893976E+03  0.22387603494E+03 -0.20577988937E+03  0.38719476683E+03  0.17770000000E+01 0. -1.
        -16    1    3    3    0    0 -0.56615729804E+03  0.57288994442E+03 -0.65143583663E+03  0.10359081155E+04  0.00000000000E+00 0.  1.
          2    1    6    6  502    0  0.16929633645E+03  0.18028385276E+02  0.74535835025E+01  0.17041663099E+03  0.00000000000E+00 0. -1.
         -1    1    6    6    0  502  0.26770529258E+03 -0.75781867196E+02  0.10491190776E+00  0.27822477618E+03  0.00000000000E+00 0.  1.
<mgrwt>
<rscale>  0 0.12041276E+04</rscale>
<asrwt>0</asrwt>
<pdfrwt beam="1">  1        1 0.28351662E+00 0.12041276E+04</pdfrwt>
<pdfrwt beam="2">  1       -2 0.13354609E+00 0.12041276E+04</pdfrwt>
<totfact> 0.13252115E+00</totfact>
</mgrwt>
</event>
<event>
12    3  0.1176505E-007  0.9068048E+03  0.7818608E-02  0.9417115E-01
         -2   -1    0    0    0  501 -0.00000000000E+00  0.00000000000E+00  0.63728646588E+03  0.63728646588E+03  0.00000000000E+00 0.  1.
          1   -1    0    0  501    0  0.00000000000E+00 -0.00000000000E+00 -0.13878309251E+04  0.13878309251E+04  0.00000000000E+00 0. -1.
        -24    2    1    2    0    0  0.21292556723E+03 -0.80836464783E+03 -0.22294919739E+03  0.86884153754E+03  0.79928541233E+02 0.  0.
    5000000    2    1    2    0    0 -0.21292556723E+03  0.80836464783E+03 -0.52759526187E+03  0.11562758535E+04  0.59985530584E+03 0.  0.
        -24    2    4    4    0    0 -0.31254981819E+03  0.23209130618E+03 -0.59155422222E+02  0.40275300067E+03  0.84598181508E+02 0.  0.
         24    2    4    4    0    0  0.99624250964E+02  0.57627334166E+03 -0.46843983965E+03  0.75352285281E+03  0.79654570836E+02 0.  0.
         13    1    5    5    0    0 -0.10778310326E+03  0.10378248982E+03  0.13992074765E+02  0.15027900950E+03  0.00000000000E+00 0. -1.
        -14    1    5    5    0    0 -0.20476671493E+03  0.12830881636E+03 -0.73147496987E+02  0.25247399117E+03  0.00000000000E+00 0.  1.
         15    1    3    3    0    0  0.18454797816E+03 -0.63041368844E+03 -0.20308392526E+03  0.68755044415E+03  0.17770000000E+01 0. -1.
        -16    1    3    3    0    0  0.28377589069E+02 -0.17795095939E+03 -0.19865272130E+02  0.18129109340E+03  0.00000000000E+00 0.  1.
          4    1    6    6  502    0  0.40401518626E+02  0.17226445821E+03 -0.98347573471E+02  0.20243411639E+03  0.00000000000E+00 0. -1.
         -3    1    6    6    0  502  0.59222732338E+02  0.40400888344E+03 -0.37009226618E+03  0.55108873642E+03  0.00000000000E+00 0.  1.
<mgrwt>
<rscale>  0 0.90680485E+03</rscale>
<asrwt>0</asrwt>
<pdfrwt beam="1">  1        1 0.21351245E+00 0.90680485E+03</pdfrwt>
<pdfrwt beam="2">  1       -2 0.98044073E-01 0.90680485E+03</pdfrwt>
<totfact> 0.60118270E+00</totfact>
</mgrwt>
</event>
<event>
12    3  0.1176505E-007  0.1063343E+04  0.7818608E-02  0.9241676E-01
         -2   -1    0    0    0  501 -0.00000000000E+00  0.00000000000E+00  0.54717536213E+03  0.54717536213E+03  0.00000000000E+00 0.  1.
          1   -1    0    0  501    0  0.00000000000E+00 -0.00000000000E+00 -0.23306764000E+04  0.23306764000E+04  0.00000000000E+00 0. -1.
        -24    2    1    2    0    0 -0.46229099235E+03 -0.88665070225E+03 -0.12296344020E+04  0.15868907292E+04  0.79743303075E+02 0.  0.
    5000000    2    1    2    0    0  0.46229099235E+03  0.88665070225E+03 -0.55386663584E+03  0.12909610329E+04  0.59995808918E+03 0.  0.
        -24    2    4    4    0    0  0.18340502435E+03 -0.81087952140E+01 -0.20772057647E+03  0.28870613131E+03  0.80624046354E+02 0.  0.
         24    2    4    4    0    0  0.27888596800E+03  0.89475949747E+03 -0.34614605937E+03  0.10022549016E+04  0.79535224286E+02 0.  0.
         11    1    5    5    0    0  0.92392745818E+02 -0.22738255842E+02 -0.53834565515E+02  0.10932341105E+03  0.00000000000E+00 0. -1.
        -12    1    5    5    0    0  0.91012278535E+02  0.14629460628E+02 -0.15388601096E+03  0.17938272027E+03  0.00000000000E+00 0.  1.
         15    1    3    3    0    0 -0.32567093548E+03 -0.65006265134E+03 -0.94527984731E+03  0.11925603366E+04  0.17770000000E+01 0. -1.
        -16    1    3    3    0    0 -0.13662005688E+03 -0.23658805092E+03 -0.28435455469E+03  0.39433039263E+03  0.00000000000E+00 0.  1.
          2    1    6    6  502    0  0.26520456526E+03  0.78776878499E+03 -0.28781693264E+03  0.87963157444E+03  0.00000000000E+00 0. -1.
         -1    1    6    6    0  502  0.13681402738E+02  0.10699071248E+03 -0.58329126737E+02  0.12262332716E+03  0.00000000000E+00 0.  1.
<mgrwt>
<rscale>  0 0.10633429E+04</rscale>
<asrwt>0</asrwt>
<pdfrwt beam="1">  1        1 0.35856560E+00 0.10633429E+04</pdfrwt>
<pdfrwt beam="2">  1       -2 0.84180826E-01 0.10633429E+04</pdfrwt>
<totfact> 0.19237395E+00</totfact>
</mgrwt>
</event>
<event>
12    3  0.1176505E-007  0.3966114E+03  0.7818608E-02  0.1044959E+00
          1   -1    0    0  501    0  0.00000000000E+00  0.00000000000E+00  0.71298151753E+03  0.71298151753E+03  0.00000000000E+00 0. -1.
         -2   -1    0    0    0  501 -0.00000000000E+00 -0.00000000000E+00 -0.32293543795E+03  0.32293543795E+03  0.00000000000E+00 0.  1.
        -24    2    1    2    0    0 -0.17623426574E+02  0.26853843955E+03  0.22664383971E+02  0.28271095513E+03  0.83596238983E+02 0.  0.
    5000000    2    1    2    0    0  0.17623426574E+02 -0.26853843955E+03  0.36738169561E+03  0.75320600035E+03  0.59993873855E+03 0.  0.
        -24    2    4    4    0    0 -0.18029020143E+03 -0.24482304348E+03 -0.14395022223E+02  0.31489866752E+03  0.80691231174E+02 0.  0.
         24    2    4    4    0    0  0.19791362801E+03 -0.23715396068E+02  0.38177671784E+03  0.43830733284E+03  0.81410267020E+02 0.  0.
         13    1    5    5    0    0  0.60071040044E+01 -0.24494800621E+02  0.50121392132E+01  0.25713850265E+02  0.00000000000E+00 0. -1.
        -14    1    5    5    0    0 -0.18629730544E+03 -0.22032824286E+03 -0.19407161436E+02  0.28918481725E+03  0.00000000000E+00 0.  1.
         15    1    3    3    0    0  0.96846146364E+01  0.24125783376E+03  0.85455881533E+01  0.24160984855E+03  0.17770000000E+01 0. -1.
        -16    1    3    3    0    0 -0.27308041211E+02  0.27280605791E+02  0.14118795818E+02  0.41101106584E+02  0.00000000000E+00 0.  1.
          2    1    6    6  502    0  0.79190788652E+02 -0.12298112027E+02  0.77475841496E+02  0.11146717267E+03  0.00000000000E+00 0. -1.
         -3    1    6    6    0  502  0.11872283935E+03 -0.11417284042E+02  0.30430087634E+03  0.32684016017E+03  0.00000000000E+00 0.  1.
<mgrwt>
<rscale>  0 0.39661139E+03</rscale>
<asrwt>0</asrwt>
<pdfrwt beam="1">  1        1 0.10968946E+00 0.39661139E+03</pdfrwt>
<pdfrwt beam="2">  1       -2 0.49682375E-01 0.39661139E+03</pdfrwt>
<totfact> 0.93304168E+01</totfact>
</mgrwt>
</event>
<event>
12    3  0.1176505E-007  0.8262637E+03  0.7818608E-02  0.9522761E-01
         -2   -1    0    0    0  501 -0.00000000000E+00  0.00000000000E+00  0.64436887612E+03  0.64436887612E+03  0.00000000000E+00 0.  1.
          1   -1    0    0  501    0  0.00000000000E+00 -0.00000000000E+00 -0.12180945929E+04  0.12180945929E+04  0.00000000000E+00 0. -1.
        -24    2    1    2    0    0  0.59354111255E+03  0.45993926301E+03 -0.26278395251E+02  0.75635739165E+03  0.86895177705E+02 0.  0.
    5000000    2    1    2    0    0 -0.59354111255E+03 -0.45993926301E+03 -0.54744732153E+03  0.11061060774E+04  0.59994741987E+03 0.  0.
        -24    2    4    4    0    0 -0.60096054684E+03 -0.20350378571E+03 -0.20633016055E+03  0.67179148359E+03  0.78513009266E+02 0.  0.
         24    2    4    4    0    0  0.74194342888E+01 -0.25643547730E+03 -0.34111716098E+03  0.43431459378E+03  0.80337082530E+02 0.  0.
         11    1    5    5    0    0 -0.46650682578E+03 -0.12247460284E+03 -0.15810032490E+03  0.50756709859E+03  0.00000000000E+00 0. -1.
        -12    1    5    5    0    0 -0.13445372106E+03 -0.81029182866E+02 -0.48229835644E+02  0.16422438500E+03  0.00000000000E+00 0.  1.
         15    1    3    3    0    0  0.38208171848E+03  0.34672417946E+03 -0.12560601198E+02  0.51610563129E+03  0.17770000000E+01 0. -1.
        -16    1    3    3    0    0  0.21145939407E+03  0.11321508355E+03 -0.13717794053E+02  0.24025176036E+03  0.00000000000E+00 0.  1.
          2    1    6    6  502    0 -0.60909785539E+01 -0.15045280915E+03 -0.25889281918E+03  0.29949731155E+03  0.00000000000E+00 0. -1.
         -1    1    6    6    0  502  0.13510412843E+02 -0.10598266815E+03 -0.82224341801E+02  0.13481728223E+03  0.00000000000E+00 0.  1.
<mgrwt>
<rscale>  0 0.82626373E+03</rscale>
<asrwt>0</asrwt>
<pdfrwt beam="1">  1        1 0.18739917E+00 0.82626373E+03</pdfrwt>
<pdfrwt beam="2">  1       -2 0.99133674E-01 0.82626373E+03</pdfrwt>
<totfact> 0.78033020E+00</totfact>
</mgrwt>
</event>
<event>
12    3  0.1176505E-007  0.6212540E+03  0.7818608E-02  0.9862266E-01
         -2   -1    0    0    0  501 -0.00000000000E+00  0.00000000000E+00  0.48489107394E+03  0.48489107394E+03  0.00000000000E+00 0.  1.
          1   -1    0    0  501    0  0.00000000000E+00 -0.00000000000E+00 -0.10921114318E+04  0.10921114318E+04  0.00000000000E+00 0. -1.
        -24    2    1    2    0    0  0.32903202126E+03  0.50228338107E+03 -0.28324719750E+03  0.66846248294E+03  0.77861738363E+02 0.  0.
    5000000    2    1    2    0    0 -0.32903202126E+03 -0.50228338107E+03 -0.32397316035E+03  0.90854002279E+03  0.59994641301E+03 0.  0.
        -24    2    4    4    0    0 -0.11766682572E+03 -0.65865720733E+02  0.15693591940E+03  0.22049384748E+03  0.76189756100E+02 0.  0.
         24    2    4    4    0    0 -0.21136519553E+03 -0.43641766034E+03 -0.48090907976E+03  0.68804617531E+03  0.83656298240E+02 0.  0.
         11    1    5    5    0    0 -0.59511497468E+02 -0.70494788433E+02  0.70039628138E+02  0.11583040636E+03  0.00000000000E+00 0. -1.
        -12    1    5    5    0    0 -0.58155328255E+02  0.46290677000E+01  0.86896291266E+02  0.10466344112E+03  0.00000000000E+00 0.  1.
         15    1    3    3    0    0  0.29716513331E+03  0.45853040592E+03 -0.23099151791E+03  0.59322633850E+03  0.17770000000E+01 0. -1.
        -16    1    3    3    0    0  0.31866887946E+02  0.43752975146E+02 -0.52255679595E+02  0.75236144448E+02  0.00000000000E+00 0.  1.
          4    1    6    6  502    0 -0.27719633422E+02 -0.13972574935E+03 -0.15626330665E+03  0.21144711895E+03  0.00000000000E+00 0. -1.
         -3    1    6    6    0  502 -0.18364556211E+03 -0.29669191099E+03 -0.32464577311E+03  0.47659905637E+03  0.00000000000E+00 0.  1.
<mgrwt>
<rscale>  0 0.62125400E+03</rscale>
<asrwt>0</asrwt>
<pdfrwt beam="1">  1        1 0.16801714E+00 0.62125400E+03</pdfrwt>
<pdfrwt beam="2">  1       -2 0.74598628E-01 0.62125400E+03</pdfrwt>
<totfact> 0.18957270E+01</totfact>
</mgrwt>
</event>
<event>
12    3  0.1176505E-007  0.4306751E+03  0.7818608E-02  0.1033647E+00
          1   -1    0    0  501    0  0.00000000000E+00  0.00000000000E+00  0.14333796470E+04  0.14333796470E+04  0.00000000000E+00 0. -1.
         -2   -1    0    0    0  501 -0.00000000000E+00 -0.00000000000E+00 -0.17211207276E+03  0.17211207276E+03  0.00000000000E+00 0.  1.
        -24    2    1    2    0    0 -0.13184698474E+03 -0.27834138293E+03  0.43985039818E+03  0.54264833314E+03  0.78366369325E+02 0.  0.
    5000000    2    1    2    0    0  0.13184698474E+03  0.27834138293E+03  0.82141717608E+03  0.10628433866E+04  0.60004361053E+03 0.  0.
        -24    2    4    4    0    0  0.29673065198E+02  0.38206087871E+03  0.24281324606E+03  0.46081485486E+03  0.80876771446E+02 0.  0.
         24    2    4    4    0    0  0.10217391955E+03 -0.10371949578E+03  0.57860393002E+03  0.60202853178E+03  0.80365425413E+02 0.  0.
         11    1    5    5    0    0 -0.38390226113E+01 -0.25500110689E+01 -0.23028895394E+00  0.46145079981E+01  0.00000000000E+00 0. -1.
        -12    1    5    5    0    0  0.33512087809E+02  0.38461088978E+03  0.24304353501E+03  0.45620034686E+03  0.00000000000E+00 0.  1.
         15    1    3    3    0    0 -0.95362205660E+02 -0.20380094992E+03  0.37498241772E+03  0.43731424489E+03  0.17770000000E+01 0. -1.
        -16    1    3    3    0    0 -0.36484779085E+02 -0.74540433005E+02  0.64867980460E+02  0.10533408824E+03  0.00000000000E+00 0.  1.
          2    1    6    6  502    0  0.20775300432E+02 -0.72614877820E+02  0.20712250248E+03  0.22046374900E+03  0.00000000000E+00 0. -1.
         -1    1    6    6    0  502  0.81398619114E+02 -0.31104617964E+02  0.37148142754E+03  0.38156478278E+03  0.00000000000E+00 0.  1.
<mgrwt>
<rscale>  0 0.43067513E+03</rscale>
<asrwt>0</asrwt>
<pdfrwt beam="1">  1        1 0.22051994E+00 0.43067513E+03</pdfrwt>
<pdfrwt beam="2">  1       -2 0.26478781E-01 0.43067513E+03</pdfrwt>
<totfact> 0.87515843E+01</totfact>
</mgrwt>
</event>
<event>
12    3  0.1176505E-007  0.5427812E+03  0.7818608E-02  0.1003179E+00
         -4   -1    0    0    0  501 -0.00000000000E+00  0.00000000000E+00  0.23740459394E+03  0.23740459394E+03  0.00000000000E+00 0.  1.
          1   -1    0    0  501    0  0.00000000000E+00 -0.00000000000E+00 -0.13724494855E+04  0.13724494855E+04  0.00000000000E+00 0. -1.
        -24    2    1    2    0    0 -0.33147280687E+02  0.39067572364E+03 -0.25268091391E+03  0.47307871284E+03  0.78927568214E+02 0.  0.
    5000000    2    1    2    0    0  0.33147280687E+02 -0.39067572364E+03 -0.88236397765E+03  0.11367753666E+04  0.59997148414E+03 0.  0.
        -24    2    4    4    0    0  0.23271440721E+03 -0.42354136840E+03 -0.52398116421E+03  0.71733486116E+03  0.80434796687E+02 0.  0.
         24    2    4    4    0    0 -0.19956712653E+03  0.32865644754E+02 -0.35838281344E+03  0.41944050544E+03  0.81147446269E+02 0.  0.
         13    1    5    5    0    0  0.16639563328E+03 -0.32950368693E+03 -0.34960490488E+03  0.50841299747E+03  0.00000000000E+00 0. -1.
        -14    1    5    5    0    0  0.66318773930E+02 -0.94037681470E+02 -0.17437625933E+03  0.20892186369E+03  0.00000000000E+00 0.  1.
         15    1    3    3    0    0  0.11609247777E+02  0.59019270894E+02 -0.68139743096E+02  0.90907817536E+02  0.17770000000E+01 0. -1.
        -16    1    3    3    0    0 -0.44756528464E+02  0.33165645275E+03 -0.18454117081E+03  0.38217089530E+03  0.00000000000E+00 0.  1.
          2    1    6    6  502    0 -0.28672597877E+01  0.76979927350E+01  0.16770870969E+01  0.83840856370E+01  0.00000000000E+00 0. -1.
         -1    1    6    6    0  502 -0.19669986674E+03  0.25167652019E+02 -0.36005990054E+03  0.41105641980E+03  0.00000000000E+00 0.  1.
<mgrwt>
<rscale>  0 0.54278117E+03</rscale>
<asrwt>0</asrwt>
<pdfrwt beam="1">  1        1 0.21114608E+00 0.54278117E+03</pdfrwt>
<pdfrwt beam="2">  1       -4 0.36523782E-01 0.54278117E+03</pdfrwt>
<totfact> 0.29476882E+01</totfact>
</mgrwt>
</event>
<event>
12    3  0.1176505E-007  0.2856935E+03  0.7818608E-02  0.1092619E+00
          1   -1    0    0  501    0  0.00000000000E+00  0.00000000000E+00  0.13656989873E+04  0.13656989873E+04  0.00000000000E+00 0. -1.
         -4   -1    0    0    0  501 -0.00000000000E+00 -0.00000000000E+00 -0.14558797844E+03  0.14558797844E+03  0.00000000000E+00 0.  1.
        -24    2    1    2    0    0 -0.95754255422E+02  0.19893947264E+03  0.20507867406E+03  0.31163080413E+03  0.79439941610E+02 0.  0.
    5000000    2    1    2    0    0  0.95754255422E+02 -0.19893947264E+03  0.10150323348E+04  0.11996561616E+04  0.60011538406E+03 0.  0.
        -24    2    4    4    0    0  0.28032125221E+02 -0.24093879934E+03  0.93924803946E+02  0.27171906283E+03  0.78562556203E+02 0.  0.
         24    2    4    4    0    0  0.67722130201E+02  0.41999326706E+02  0.92110753088E+03  0.92793709879E+03  0.79233487303E+02 0.  0.
         13    1    5    5    0    0 -0.13480686971E+02 -0.11637834183E+03  0.13951248029E+02  0.11798425611E+03  0.00000000000E+00 0. -1.
        -14    1    5    5    0    0  0.41512812192E+02 -0.12456045751E+03  0.79973555917E+02  0.15373480672E+03  0.00000000000E+00 0.  1.
         15    1    3    3    0    0 -0.20105919526E+02  0.11089291081E+03  0.13566298076E+03  0.17637768494E+03  0.17770000000E+01 0. -1.
        -16    1    3    3    0    0 -0.75648335895E+02  0.88046561833E+02  0.69415693300E+02  0.13525311919E+03  0.00000000000E+00 0.  1.
          4    1    6    6  502    0  0.23583485026E+02  0.44035327253E+02  0.73339661802E+03  0.73509583738E+03  0.00000000000E+00 0. -1.
         -3    1    6    6    0  502  0.44138645175E+02 -0.20360005475E+01  0.18771091286E+03  0.19284126141E+03  0.00000000000E+00 0.  1.
<mgrwt>
<rscale>  0 0.28569354E+03</rscale>
<asrwt>0</asrwt>
<pdfrwt beam="1">  1        1 0.21010753E+00 0.28569354E+03</pdfrwt>
<pdfrwt beam="2">  1       -4 0.22398151E-01 0.28569354E+03</pdfrwt>
<totfact> 0.76988481E+01</totfact>
</mgrwt>
</event>
<event>
12    3  0.1176505E-007  0.5088512E+03  0.7818608E-02  0.1011494E+00
          1   -1    0    0  501    0  0.00000000000E+00  0.00000000000E+00  0.23424408113E+04  0.23424408113E+04  0.00000000000E+00 0. -1.
         -2   -1    0    0    0  501 -0.00000000000E+00 -0.00000000000E+00 -0.48174475126E+03  0.48174475126E+03  0.00000000000E+00 0.  1.
        -24    2    1    2    0    0  0.32817138740E+03 -0.18835663678E+03 -0.33821175306E+03  0.51370148811E+03  0.79544621741E+02 0.  0.
    5000000    2    1    2    0    0 -0.32817138740E+03  0.18835663678E+03  0.21989078131E+04  0.23104840745E+04  0.59997200407E+03 0.  0.
        -24    2    4    4    0    0  0.12338054098E+03  0.55323153395E+02  0.20162662928E+03  0.25690325560E+03  0.84039133198E+02 0.  0.
         24    2    4    4    0    0 -0.45155192838E+03  0.13303348339E+03  0.19972811838E+04  0.20535808189E+04  0.80405227456E+02 0.  0.
         13    1    5    5    0    0  0.85668427412E+02 -0.74303673014E+01  0.10929092822E+03  0.13906400255E+03  0.00000000000E+00 0. -1.
        -14    1    5    5    0    0  0.37712113569E+02  0.62753520696E+02  0.92335701059E+02  0.11783925305E+03  0.00000000000E+00 0.  1.
         15    1    3    3    0    0  0.13102164069E+03 -0.11560769375E+03 -0.12925869021E+03  0.21735403356E+03  0.17770000000E+01 0. -1.
        -16    1    3    3    0    0  0.19714974671E+03 -0.72748943038E+02 -0.20895306285E+03  0.29634745454E+03  0.00000000000E+00 0.  1.
          2    1    6    6  502    0 -0.37903769313E+03  0.91044292803E+02  0.15321710518E+04  0.15809828487E+04  0.00000000000E+00 0. -1.
         -1    1    6    6    0  502 -0.72514235251E+02  0.41989190586E+02  0.46511013207E+03  0.47259797016E+03  0.00000000000E+00 0.  1.
<mgrwt>
<rscale>  0 0.50885123E+03</rscale>
<asrwt>0</asrwt>
<pdfrwt beam="1">  1        1 0.36037550E+00 0.50885123E+03</pdfrwt>
<pdfrwt beam="2">  1       -2 0.74114578E-01 0.50885123E+03</pdfrwt>
<totfact> 0.27802089E+00</totfact>
</mgrwt>
</event>
<event>
12    3  0.1176505E-007  0.9027518E+03  0.7818608E-02  0.9422148E-01
          1   -1    0    0  501    0  0.00000000000E+00  0.00000000000E+00  0.14766805164E+04  0.14766805164E+04  0.00000000000E+00 0. -1.
         -2   -1    0    0    0  501 -0.00000000000E+00 -0.00000000000E+00 -0.82822923820E+03  0.82822923820E+03  0.00000000000E+00 0.  1.
        -24    2    1    2    0    0  0.43935347811E+03  0.76570515377E+03 -0.23775313522E+03  0.91759538523E+03  0.78223247576E+02 0.  0.
    5000000    2    1    2    0    0 -0.43935347811E+03 -0.76570515377E+03  0.88620441338E+03  0.13873143693E+04  0.59995586156E+03 0.  0.
        -24    2    4    4    0    0 -0.23037388084E+03 -0.20696816660E+03  0.67476858965E+03  0.74941133276E+03  0.10196445037E+03 0.  0.
         24    2    4    4    0    0 -0.20897959727E+03 -0.55873698716E+03  0.21143582374E+03  0.63790303657E+03  0.79722541368E+02 0.  0.
         13    1    5    5    0    0 -0.90180600500E+01 -0.57697440071E+02  0.10363082362E+03  0.11895237535E+03  0.00000000000E+00 0. -1.
        -14    1    5    5    0    0 -0.22135582079E+03 -0.14927072653E+03  0.57113776602E+03  0.63045895741E+03  0.00000000000E+00 0.  1.
         15    1    3    3    0    0  0.28807506518E+03  0.52140134578E+03 -0.12346919973E+03  0.60835385062E+03  0.17770000000E+01 0. -1.
        -16    1    3    3    0    0  0.15127841293E+03  0.24430380799E+03 -0.11428393549E+03  0.30924153461E+03  0.00000000000E+00 0.  1.
          2    1    6    6  502    0 -0.47029896291E+02 -0.15816593120E+03  0.95066282618E+02  0.19043600245E+03  0.00000000000E+00 0. -1.
         -1    1    6    6    0  502 -0.16194970098E+03 -0.40057105597E+03  0.11636954112E+03  0.44746703412E+03  0.00000000000E+00 0.  1.
<mgrwt>
<rscale>  0 0.90275176E+03</rscale>
<asrwt>0</asrwt>
<pdfrwt beam="1">  1        1 0.22718162E+00 0.90275176E+03</pdfrwt>
<pdfrwt beam="2">  1       -2 0.12741988E+00 0.90275176E+03</pdfrwt>
<totfact> 0.27516011E+00</totfact>
</mgrwt>
</event>
<event>
12    3  0.1176505E-007  0.5130831E+03  0.7818608E-02  0.1010419E+00
          1   -1    0    0  501    0  0.00000000000E+00  0.00000000000E+00  0.22768555263E+03  0.22768555263E+03  0.00000000000E+00 0. -1.
         -2   -1    0    0    0  501 -0.00000000000E+00 -0.00000000000E+00 -0.13625592849E+04  0.13625592849E+04  0.00000000000E+00 0.  1.
        -24    2    1    2    0    0 -0.26422050578E+03 -0.23095225051E+03 -0.64832447641E+03  0.74169986923E+03  0.81502463866E+02 0.  0.
    5000000    2    1    2    0    0  0.26422050578E+03  0.23095225051E+03 -0.48654925585E+03  0.84854496829E+03  0.60012246012E+03 0.  0.
        -24    2    4    4    0    0 -0.67153374343E+00 -0.18120958602E+03 -0.13262202544E+03  0.23860599700E+03  0.80665080110E+02 0.  0.
         24    2    4    4    0    0  0.26489203952E+03  0.41216183653E+03 -0.35392723041E+03  0.60993897129E+03  0.81950547151E+02 0.  0.
         11    1    5    5    0    0 -0.25552251647E+01 -0.14925240728E+03 -0.14118767532E+03  0.20546719913E+03  0.00000000000E+00 0. -1.
        -12    1    5    5    0    0  0.18836914212E+01 -0.31957178736E+02  0.85656498843E+01  0.33138797868E+02  0.00000000000E+00 0.  1.
         15    1    3    3    0    0 -0.18353149357E+03 -0.16548316417E+03 -0.37317280346E+03  0.44758193186E+03  0.17770000000E+01 0. -1.
        -16    1    3    3    0    0 -0.80689012210E+02 -0.65469086341E+02 -0.27515167294E+03  0.29411793737E+03  0.00000000000E+00 0.  1.
          4    1    6    6  502    0  0.23998862952E+03  0.39916243825E+03 -0.34754628258E+03  0.58113132160E+03  0.00000000000E+00 0. -1.
         -3    1    6    6    0  502  0.24903410003E+02  0.12999398274E+02 -0.63809478298E+01  0.28807649686E+02  0.00000000000E+00 0.  1.
<mgrwt>
<rscale>  0 0.51308314E+03</rscale>
<asrwt>0</asrwt>
<pdfrwt beam="1">  1        1 0.35028546E-01 0.51308314E+03</pdfrwt>
<pdfrwt beam="2">  1       -2 0.20962451E+00 0.51308314E+03</pdfrwt>
<totfact> 0.13241911E+01</totfact>
</mgrwt>
</event>
<event>
12    3  0.1176505E-007  0.1154365E+04  0.7818608E-02  0.9153766E-01
         -2   -1    0    0    0  501 -0.00000000000E+00  0.00000000000E+00  0.43872606252E+03  0.43872606252E+03  0.00000000000E+00 0.  1.
          1   -1    0    0  501    0  0.00000000000E+00 -0.00000000000E+00 -0.33176872047E+04  0.33176872047E+04  0.00000000000E+00 0. -1.
        -24    2    1    2    0    0 -0.10936925644E+04  0.17843644648E+03 -0.10035311845E+04  0.14969744735E+04  0.76516307211E+02 0.  0.
    5000000    2    1    2    0    0  0.10936925644E+04 -0.17843644648E+03 -0.18754299577E+04  0.22594387937E+04  0.59985260313E+03 0.  0.
        -24    2    4    4    0    0  0.47244376358E+03 -0.29961839792E+03 -0.12206269185E+04  0.13451539473E+04  0.80837947310E+02 0.  0.
         24    2    4    4    0    0  0.62124880080E+03  0.12118195144E+03 -0.65480303925E+03  0.91428484643E+03  0.80713210492E+02 0.  0.
         11    1    5    5    0    0 -0.13894031533E+01  0.41639427466E+00 -0.19379736275E+02  0.19433939472E+02  0.00000000000E+00 0. -1.
        -12    1    5    5    0    0  0.47383316673E+03 -0.30003479220E+03 -0.12012471822E+04  0.13257200078E+04  0.00000000000E+00 0.  1.
         15    1    3    3    0    0 -0.54705463329E+03  0.11088265512E+03 -0.46234520449E+03  0.72479650996E+03  0.17770000000E+01 0. -1.
        -16    1    3    3    0    0 -0.54663793109E+03  0.67553791368E+02 -0.54118597997E+03  0.77217796352E+03  0.00000000000E+00 0.  1.
          4    1    6    6  502    0  0.48998957536E+03  0.12664464080E+03 -0.53577142623E+03  0.73700723888E+03  0.00000000000E+00 0. -1.
         -3    1    6    6    0  502  0.13125922545E+03 -0.54626893580E+01 -0.11903161302E+03  0.17727760755E+03  0.00000000000E+00 0.  1.
<mgrwt>
<rscale>  0 0.11543652E+04</rscale>
<asrwt>0</asrwt>
<pdfrwt beam="1">  1        1 0.51041339E+00 0.11543652E+04</pdfrwt>
<pdfrwt beam="2">  1       -2 0.67496320E-01 0.11543652E+04</pdfrwt>
<totfact> 0.61674152E-01</totfact>
</mgrwt>
</event>
<event>
12    3  0.1176505E-007  0.6011126E+03  0.7818608E-02  0.9903100E-01
          1   -1    0    0  501    0  0.00000000000E+00  0.00000000000E+00  0.21244347403E+04  0.21244347403E+04  0.00000000000E+00 0. -1.
         -2   -1    0    0    0  501 -0.00000000000E+00 -0.00000000000E+00 -0.47672652891E+03  0.47672652891E+03  0.00000000000E+00 0.  1.
        -24    2    1    2    0    0  0.23820704430E+03  0.39412402555E+03  0.17737512491E+04  0.18342765228E+04  0.79375845664E+02 0.  0.
    5000000    2    1    2    0    0 -0.23820704430E+03 -0.39412402555E+03 -0.12604303772E+03  0.76688474642E+03  0.60012417337E+03 0.  0.
        -24    2    4    4    0    0  0.99546294354E+02 -0.37691880940E+03 -0.13313705795E+03  0.41944648838E+03  0.78946987407E+02 0.  0.
         24    2    4    4    0    0 -0.33775333865E+03 -0.17205216150E+02  0.70940202314E+01  0.34743825803E+03  0.79307507763E+02 0.  0.
         11    1    5    5    0    0  0.77412405744E+02 -0.19814966699E+03 -0.39291953712E+02  0.21633268065E+03  0.00000000000E+00 0. -1.
        -12    1    5    5    0    0  0.22133888610E+02 -0.17876914241E+03 -0.93845104239E+02  0.20311380774E+03  0.00000000000E+00 0.  1.
         15    1    3    3    0    0  0.20162167503E+03  0.27509133037E+03  0.12269034325E+04  0.12734291227E+04  0.17770000000E+01 0. -1.
        -16    1    3    3    0    0  0.36585369265E+02  0.11903269517E+03  0.54684781653E+03  0.56084740011E+03  0.00000000000E+00 0.  1.
          2    1    6    6  502    0 -0.11134416239E+03 -0.34825022088E+02  0.26111409657E+02  0.11954961471E+03  0.00000000000E+00 0. -1.
         -1    1    6    6    0  502 -0.22640917626E+03  0.17619805938E+02 -0.19017389425E+02  0.22788864332E+03  0.00000000000E+00 0.  1.
<mgrwt>
<rscale>  0 0.60111261E+03</rscale>
<asrwt>0</asrwt>
<pdfrwt beam="1">  1        1 0.32683611E+00 0.60111261E+03</pdfrwt>
<pdfrwt beam="2">  1       -2 0.73342544E-01 0.60111261E+03</pdfrwt>
<totfact> 0.38895453E+00</totfact>
</mgrwt>
</event>
<event>
12    3  0.1176505E-007  0.3572142E+03  0.7818608E-02  0.1059692E+00
         -2   -1    0    0    0  501 -0.00000000000E+00  0.00000000000E+00  0.30995817873E+03  0.30995817873E+03  0.00000000000E+00 0.  1.
          1   -1    0    0  501    0  0.00000000000E+00 -0.00000000000E+00 -0.86786075606E+03  0.86786075606E+03  0.00000000000E+00 0. -1.
        -24    2    1    2    0    0  0.14369742457E+03  0.17516262134E+03  0.98154789986E+02  0.26015678631E+03  0.81953016569E+02 0.  0.
    5000000    2    1    2    0    0 -0.14369742457E+03 -0.17516262134E+03 -0.65605736731E+03  0.91766214848E+03  0.60030130419E+03 0.  0.
        -24    2    4    4    0    0 -0.23594815822E+03 -0.26154147167E+03 -0.67649111762E+03  0.76694604124E+03  0.80563783357E+02 0.  0.
         24    2    4    4    0    0  0.92250733648E+02  0.86378850330E+02  0.20433750313E+02  0.15071610723E+03  0.79538061235E+02 0.  0.
         13    1    5    5    0    0 -0.19427918993E+03 -0.24026210153E+03 -0.53375481174E+03  0.61673696186E+03  0.00000000000E+00 0. -1.
        -14    1    5    5    0    0 -0.41668968287E+02 -0.21279370137E+02 -0.14273630588E+03  0.15020907938E+03  0.00000000000E+00 0.  1.
         15    1    3    3    0    0  0.75911966235E+02  0.94958102505E+02  0.81611482954E+01  0.12185823698E+03  0.17770000000E+01 0. -1.
        -16    1    3    3    0    0  0.67785458337E+02  0.80204518831E+02  0.89993641691E+02  0.13829854933E+03  0.00000000000E+00 0.  1.
          2    1    6    6  502    0  0.21819113901E+02  0.45908456729E+02  0.42814296427E+02  0.66458438962E+02  0.00000000000E+00 0. -1.
         -1    1    6    6    0  502  0.70431619747E+02  0.40470393601E+02 -0.22380546114E+02  0.84257668273E+02  0.00000000000E+00 0.  1.
<mgrwt>
<rscale>  0 0.35721423E+03</rscale>
<asrwt>0</asrwt>
<pdfrwt beam="1">  1        1 0.13351704E+00 0.35721423E+03</pdfrwt>
<pdfrwt beam="2">  1       -2 0.47685874E-01 0.35721423E+03</pdfrwt>
<totfact> 0.75054589E+01</totfact>
</mgrwt>
</event>
<event>
12    3  0.1176505E-007  0.4046192E+03  0.7818608E-02  0.1042192E+00
          1   -1    0    0  501    0  0.00000000000E+00  0.00000000000E+00  0.10867262183E+04  0.10867262183E+04  0.00000000000E+00 0. -1.
         -2   -1    0    0    0  501 -0.00000000000E+00 -0.00000000000E+00 -0.29154700091E+03  0.29154700091E+03  0.00000000000E+00 0.  1.
        -24    2    1    2    0    0  0.30964900378E+03  0.21893211744E+03  0.44185698328E+03  0.58524250970E+03  0.58799863108E+02 0.  0.
    5000000    2    1    2    0    0 -0.30964900378E+03 -0.21893211744E+03  0.35332223409E+03  0.79303070948E+03  0.60020607085E+03 0.  0.
        -24    2    4    4    0    0 -0.26304913129E+03 -0.19399337360E+03  0.50931963007E+03  0.61041565767E+03  0.79828034386E+02 0.  0.
         24    2    4    4    0    0 -0.46599872483E+02 -0.24938743845E+02 -0.15599739598E+03  0.18261505181E+03  0.78864317252E+02 0.  0.
         11    1    5    5    0    0 -0.19168840057E+03 -0.17282463502E+03  0.43099379696E+03  0.50236286726E+03  0.00000000000E+00 0. -1.
        -12    1    5    5    0    0 -0.71360730722E+02 -0.21168738583E+02  0.78325833111E+02  0.10805279041E+03  0.00000000000E+00 0.  1.
         15    1    3    3    0    0  0.61436471257E+02  0.71170101879E+02  0.92167396224E+02  0.13167235875E+03  0.17770000000E+01 0. -1.
        -16    1    3    3    0    0  0.24821253252E+03  0.14776201556E+03  0.34968958706E+03  0.45357015096E+03  0.00000000000E+00 0.  1.
          4    1    6    6  502    0  0.88257734837E+01 -0.36191366249E+02 -0.48581777856E+02  0.61220081740E+02  0.00000000000E+00 0. -1.
         -3    1    6    6    0  502 -0.55425645967E+02  0.11252622405E+02 -0.10741561813E+03  0.12139497007E+03  0.00000000000E+00 0.  1.
<mgrwt>
<rscale>  0 0.40461922E+03</rscale>
<asrwt>0</asrwt>
<pdfrwt beam="1">  1        1 0.16718865E+00 0.40461922E+03</pdfrwt>
<pdfrwt beam="2">  1       -2 0.44853385E-01 0.40461922E+03</pdfrwt>
<totfact> 0.57084794E+01</totfact>
</mgrwt>
</event>
<event>
12    3  0.1176505E-007  0.9257782E+03  0.7818608E-02  0.9393919E-01
         -2   -1    0    0    0  501 -0.00000000000E+00  0.00000000000E+00  0.97882953315E+03  0.97882953315E+03  0.00000000000E+00 0.  1.
          1   -1    0    0  501    0  0.00000000000E+00 -0.00000000000E+00 -0.11539266627E+04  0.11539266627E+04  0.00000000000E+00 0. -1.
        -24    2    1    2    0    0  0.40848206718E+03  0.80440038098E+03 -0.45525710778E+03  0.10137245927E+04  0.80379994648E+02 0.  0.
    5000000    2    1    2    0    0 -0.40848206718E+03 -0.80440038098E+03  0.28015997824E+03  0.11190316031E+04  0.59985376824E+03 0.  0.
        -24    2    4    4    0    0 -0.43151785009E+03 -0.72264848670E+03  0.41430370918E+03  0.94155957916E+03  0.80364092640E+02 0.  0.
         24    2    4    4    0    0  0.23035782912E+02 -0.81751894278E+02 -0.13414373093E+03  0.17747202397E+03  0.79295392245E+02 0.  0.
         11    1    5    5    0    0 -0.11610738579E+03 -0.18677814128E+03  0.70006213454E+02  0.23079832975E+03  0.00000000000E+00 0. -1.
        -12    1    5    5    0    0 -0.31541046430E+03 -0.53587034542E+03  0.34429749572E+03  0.71076124941E+03  0.00000000000E+00 0.  1.
         15    1    3    3    0    0  0.17185465323E+03  0.41870218386E+03 -0.20851398967E+03  0.49832397316E+03  0.17770000000E+01 0. -1.
        -16    1    3    3    0    0  0.23662741395E+03  0.38569819712E+03 -0.24674311811E+03  0.51540061955E+03  0.00000000000E+00 0.  1.
          4    1    6    6  502    0 -0.21083263963E+02 -0.22262240145E+02 -0.88298347617E+01  0.31907324199E+02  0.00000000000E+00 0. -1.
         -3    1    6    6    0  502  0.44119046875E+02 -0.59489654133E+02 -0.12531389617E+03  0.14556469977E+03  0.00000000000E+00 0.  1.
<mgrwt>
<rscale>  0 0.92577818E+03</rscale>
<asrwt>0</asrwt>
<pdfrwt beam="1">  1        1 0.17752718E+00 0.92577818E+03</pdfrwt>
<pdfrwt beam="2">  1       -2 0.15058916E+00 0.92577818E+03</pdfrwt>
<totfact> 0.30188012E+00</totfact>
</mgrwt>
</event>
<event>
12    3  0.1176505E-007  0.1316940E+04  0.7818608E-02  0.9016238E-01
         -2   -1    0    0    0  501 -0.00000000000E+00  0.00000000000E+00  0.78863513301E+03  0.78863513301E+03  0.00000000000E+00 0.  1.
          1   -1    0    0  501    0  0.00000000000E+00 -0.00000000000E+00 -0.24854645219E+04  0.24854645219E+04  0.00000000000E+00 0. -1.
        -24    2    1    2    0    0 -0.97043104701E+03  0.82690202665E+03 -0.34953117166E+03  0.13245777472E+04  0.82648591189E+02 0.  0.
    5000000    2    1    2    0    0  0.97043104701E+03 -0.82690202665E+03 -0.13472982172E+04  0.19495219077E+04  0.59993316625E+03 0.  0.
        -24    2    4    4    0    0  0.32067090851E+03 -0.57306189463E+03 -0.90018147119E+03  0.11171316944E+04  0.80167168705E+02 0.  0.
         24    2    4    4    0    0  0.64976013850E+03 -0.25384013202E+03 -0.44711674601E+03  0.83239021332E+03  0.79605480075E+02 0.  0.
         13    1    5    5    0    0  0.11060904319E+03 -0.23735736477E+03 -0.30170258179E+03  0.39949634154E+03  0.00000000000E+00 0. -1.
        -14    1    5    5    0    0  0.21006186531E+03 -0.33570452987E+03 -0.59847888939E+03  0.71763535286E+03  0.00000000000E+00 0.  1.
         15    1    3    3    0    0 -0.40255309273E+03  0.29154017716E+03 -0.14563673936E+03  0.51793617845E+03  0.17770000000E+01 0. -1.
        -16    1    3    3    0    0 -0.56787795427E+03  0.53536184949E+03 -0.20389443230E+03  0.80664156870E+03  0.00000000000E+00 0.  1.
          4    1    6    6  502    0  0.59267490217E+03 -0.22019203323E+03 -0.37797763108E+03  0.73662416520E+03  0.00000000000E+00 0. -1.
         -3    1    6    6    0  502  0.57085236329E+02 -0.33648098781E+02 -0.69139114926E+02  0.95766048113E+02  0.00000000000E+00 0.  1.
<mgrwt>
<rscale>  0 0.13169401E+04</rscale>
<asrwt>0</asrwt>
<pdfrwt beam="1">  1        1 0.38237916E+00 0.13169401E+04</pdfrwt>
<pdfrwt beam="2">  1       -2 0.12132848E+00 0.13169401E+04</pdfrwt>
<totfact> 0.60974781E-01</totfact>
</mgrwt>
</event>
<event>
12    3  0.1176505E-007  0.4193389E+03  0.7818608E-02  0.1037282E+00
          1   -1    0    0  501    0  0.00000000000E+00  0.00000000000E+00  0.64716335533E+03  0.64716335533E+03  0.00000000000E+00 0. -1.
         -2   -1    0    0    0  501 -0.00000000000E+00 -0.00000000000E+00 -0.81475935093E+03  0.81475935093E+03  0.00000000000E+00 0.  1.
        -24    2    1    2    0    0  0.69565055855E+02 -0.30405554414E+03 -0.58456525059E+03  0.66745900173E+03  0.80597244796E+02 0.  0.
    5000000    2    1    2    0    0 -0.69565055855E+02  0.30405554414E+03  0.41696925500E+03  0.79446370453E+03  0.60001678917E+03 0.  0.
        -24    2    4    4    0    0  0.10344336032E+03 -0.55009472473E+02  0.35566781800E+03  0.38290860335E+03  0.79955180595E+02 0.  0.
         24    2    4    4    0    0 -0.17300841618E+03  0.35906501662E+03  0.61301436998E+02  0.41155510118E+03  0.82220051688E+02 0.  0.
         11    1    5    5    0    0  0.42409858647E+02 -0.28549176111E+02  0.55500321967E+02  0.75458182496E+02  0.00000000000E+00 0. -1.
        -12    1    5    5    0    0  0.61033501675E+02 -0.26460296362E+02  0.30016749603E+03  0.30745042086E+03  0.00000000000E+00 0.  1.
         15    1    3    3    0    0  0.59038526178E+02 -0.94263900761E+02 -0.22607755963E+03  0.25196319425E+03  0.17770000000E+01 0. -1.
        -16    1    3    3    0    0  0.10526529677E+02 -0.20979164338E+03 -0.35848769096E+03  0.41549580748E+03  0.00000000000E+00 0.  1.
          2    1    6    6  502    0 -0.48090041049E+01  0.23460208652E+01 -0.94637829001E+01  0.10871684376E+02  0.00000000000E+00 0. -1.
         -1    1    6    6    0  502 -0.16819941207E+03  0.35671899575E+03  0.70765219898E+02  0.40068341680E+03  0.00000000000E+00 0.  1.
<mgrwt>
<rscale>  0 0.41933890E+03</rscale>
<asrwt>0</asrwt>
<pdfrwt beam="1">  1        1 0.99563594E-01 0.41933890E+03</pdfrwt>
<pdfrwt beam="2">  1       -2 0.12534759E+00 0.41933890E+03</pdfrwt>
<totfact> 0.13623683E+01</totfact>
</mgrwt>
</event>
<event>
12    3  0.1176505E-007  0.5309455E+03  0.7818608E-02  0.1006003E+00
          1   -1    0    0  501    0  0.00000000000E+00  0.00000000000E+00  0.12355336188E+04  0.12355336188E+04  0.00000000000E+00 0. -1.
         -2   -1    0    0    0  501 -0.00000000000E+00 -0.00000000000E+00 -0.36880624298E+03  0.36880624298E+03  0.00000000000E+00 0.  1.
        -24    2    1    2    0    0  0.43713998032E+03 -0.25146603054E+03  0.12774787011E+03  0.52705761954E+03  0.84520347173E+02 0.  0.
    5000000    2    1    2    0    0 -0.43713998032E+03  0.25146603054E+03  0.73897950566E+03  0.10772822422E+04  0.60009981889E+03 0.  0.
        -24    2    4    4    0    0 -0.15342773513E+03 -0.19181799074E+01 -0.65365611828E+02  0.18399870058E+03  0.77711706236E+02 0.  0.
         24    2    4    4    0    0 -0.28371224519E+03  0.25338421045E+03  0.80434511749E+03  0.89328354161E+03  0.79298307016E+02 0.  0.
         13    1    5    5    0    0 -0.29830661130E+02 -0.26677507519E+02 -0.37626460549E+02  0.54930030805E+02  0.00000000000E+00 0. -1.
        -14    1    5    5    0    0 -0.12359707400E+03  0.24759327611E+02 -0.27739151279E+02  0.12906866978E+03  0.00000000000E+00 0.  1.
         15    1    3    3    0    0  0.12709820423E+03 -0.30958183463E+02  0.29304614565E+02  0.13406819461E+03  0.17770000000E+01 0. -1.
        -16    1    3    3    0    0  0.31004177609E+03 -0.22050784708E+03  0.98443255548E+02  0.39298942493E+03  0.00000000000E+00 0.  1.
          4    1    6    6  502    0 -0.10798365826E+03  0.61205907475E+02  0.32269535929E+03  0.34574402159E+03  0.00000000000E+00 0. -1.
         -3    1    6    6    0  502 -0.17572858694E+03  0.19217830298E+03  0.48164975820E+03  0.54753952001E+03  0.00000000000E+00 0.  1.
<mgrwt>
<rscale>  0 0.53094547E+03</rscale>
<asrwt>0</asrwt>
<pdfrwt beam="1">  1        1 0.19008209E+00 0.53094547E+03</pdfrwt>
<pdfrwt beam="2">  1       -2 0.56739423E-01 0.53094547E+03</pdfrwt>
<totfact> 0.27143861E+01</totfact>
</mgrwt>
</event>
<event>
12    3  0.1176505E-007  0.5803553E+03  0.7818608E-02  0.9947022E-01
          1   -1    0    0  501    0  0.00000000000E+00  0.00000000000E+00  0.51019199736E+03  0.51019199736E+03  0.00000000000E+00 0. -1.
         -2   -1    0    0    0  501 -0.00000000000E+00 -0.00000000000E+00 -0.10161984259E+04  0.10161984259E+04  0.00000000000E+00 0.  1.
        -24    2    1    2    0    0 -0.56857225227E+03  0.46687680091E+02 -0.42183785264E+02  0.57754180637E+03  0.79504219073E+02 0.  0.
    5000000    2    1    2    0    0  0.56857225227E+03 -0.46687680091E+02 -0.46382264328E+03  0.94884861690E+03  0.59977338041E+03 0.  0.
        -24    2    4    4    0    0  0.26292267684E+03 -0.56361808034E+02 -0.55358043001E+03  0.62076242913E+03  0.81177050456E+02 0.  0.
         24    2    4    4    0    0  0.30564957542E+03  0.96741279433E+01  0.89757786728E+02  0.32808618778E+03  0.77902725386E+02 0.  0.
         13    1    5    5    0    0  0.20920312325E+03 -0.13532232931E+02 -0.45043107066E+03  0.49682715055E+03  0.00000000000E+00 0. -1.
        -14    1    5    5    0    0  0.53719553596E+02 -0.42829575103E+02 -0.10314935935E+03  0.12393527858E+03  0.00000000000E+00 0.  1.
         15    1    3    3    0    0 -0.36339046328E+03  0.67075537219E+02 -0.18536181976E+02  0.36999797874E+03  0.17770000000E+01 0. -1.
        -16    1    3    3    0    0 -0.20518178898E+03 -0.20387857128E+02 -0.23647603288E+02  0.20754382764E+03  0.00000000000E+00 0.  1.
          4    1    6    6  502    0  0.55278840021E+02  0.10509882939E+02 -0.12493374626E+02  0.57639328614E+02  0.00000000000E+00 0. -1.
         -3    1    6    6    0  502  0.25037073540E+03 -0.83575499613E+00  0.10225116135E+03  0.27044685916E+03  0.00000000000E+00 0.  1.
<mgrwt>
<rscale>  0 0.58035528E+03</rscale>
<asrwt>0</asrwt>
<pdfrwt beam="1">  1        1 0.78491076E-01 0.58035528E+03</pdfrwt>
<pdfrwt beam="2">  1       -2 0.15633822E+00 0.58035528E+03</pdfrwt>
<totfact> 0.10523676E+01</totfact>
</mgrwt>
</event>
<event>
12    3  0.1176505E-007  0.7918285E+03  0.7818608E-02  0.9571921E-01
         -2   -1    0    0    0  501 -0.00000000000E+00  0.00000000000E+00  0.41673844109E+03  0.41673844109E+03  0.00000000000E+00 0.  1.
          1   -1    0    0  501    0  0.00000000000E+00 -0.00000000000E+00 -0.16378716393E+04  0.16378716393E+04  0.00000000000E+00 0. -1.
        -24    2    1    2    0    0 -0.47417134122E+03 -0.53468220692E+03 -0.51779864255E+03  0.88611763221E+03  0.79784087697E+02 0.  0.
    5000000    2    1    2    0    0  0.47417134122E+03  0.53468220692E+03 -0.70333455563E+03  0.11684924481E+04  0.59997631702E+03 0.  0.
        -24    2    4    4    0    0  0.71743431763E+02  0.42843475022E+03 -0.13907454011E+03  0.46283154829E+03  0.78535719184E+02 0.  0.
         24    2    4    4    0    0  0.40242790946E+03  0.10624745671E+03 -0.56426001552E+03  0.70566089986E+03  0.79568813648E+02 0.  0.
         13    1    5    5    0    0  0.46118490485E+02  0.82161548038E+02 -0.29097523609E+02  0.98610856506E+02  0.00000000000E+00 0. -1.
        -14    1    5    5    0    0  0.25624941278E+02  0.34627320218E+03 -0.10997701650E+03  0.36422069178E+03  0.00000000000E+00 0.  1.
         15    1    3    3    0    0 -0.38686395115E+03 -0.38853643124E+03 -0.38009846714E+03  0.66715985907E+03  0.17770000000E+01 0. -1.
        -16    1    3    3    0    0 -0.87307390071E+02 -0.14614577568E+03 -0.13770017541E+03  0.21895777314E+03  0.00000000000E+00 0.  1.
          2    1    6    6  502    0  0.64418927371E+02  0.48825389449E+02 -0.11279825026E+03  0.13877017734E+03  0.00000000000E+00 0. -1.
         -1    1    6    6    0  502  0.33800898209E+03  0.57422067257E+02 -0.45146176526E+03  0.56689072251E+03  0.00000000000E+00 0.  1.
<mgrwt>
<rscale>  0 0.79182850E+03</rscale>
<asrwt>0</asrwt>
<pdfrwt beam="1">  1        1 0.25198025E+00 0.79182850E+03</pdfrwt>
<pdfrwt beam="2">  1       -2 0.64113606E-01 0.79182850E+03</pdfrwt>
<totfact> 0.10672042E+01</totfact>
</mgrwt>
</event>
<event>
12    3  0.1176505E-007  0.7489998E+03  0.7818608E-02  0.9636921E-01
          1   -1    0    0  501    0  0.00000000000E+00  0.00000000000E+00  0.79789844641E+03  0.79789844641E+03  0.00000000000E+00 0. -1.
         -2   -1    0    0    0  501 -0.00000000000E+00 -0.00000000000E+00 -0.72611952745E+03  0.72611952745E+03  0.00000000000E+00 0.  1.
        -24    2    1    2    0    0  0.61163157409E+03 -0.17135852179E+03 -0.48057336277E+02  0.64203072886E+03  0.80231065162E+02 0.  0.
    5000000    2    1    2    0    0 -0.61163157409E+03  0.17135852179E+03  0.11983625523E+03  0.88198724500E+03  0.60006986831E+03 0.  0.
        -24    2    4    4    0    0 -0.53435535713E+03 -0.12130013514E+03  0.12890029109E+03  0.56861284839E+03  0.80348713935E+02 0.  0.
         24    2    4    4    0    0 -0.77276216966E+02  0.29265865693E+03 -0.90640358578E+01  0.31337439661E+03  0.80626624149E+02 0.  0.
         13    1    5    5    0    0 -0.23131762182E+03 -0.29410626496E+02  0.21224917104E+02  0.23414381098E+03  0.00000000000E+00 0. -1.
        -14    1    5    5    0    0 -0.30303773531E+03 -0.91889508644E+02  0.10767537398E+03  0.33446903741E+03  0.00000000000E+00 0.  1.
         15    1    3    3    0    0  0.49509007237E+03 -0.11306848238E+03 -0.59049997171E+02  0.51126189117E+03  0.17770000000E+01 0. -1.
        -16    1    3    3    0    0  0.11654150172E+03 -0.58290039410E+02  0.10992660895E+02  0.13076883769E+03  0.00000000000E+00 0.  1.
          2    1    6    6  502    0 -0.81163283604E+02  0.18193146668E+03 -0.27338927368E+02  0.20108195872E+03  0.00000000000E+00 0. -1.
         -1    1    6    6    0  502  0.38870666383E+01  0.11072719025E+03  0.18274891511E+02  0.11229243789E+03  0.00000000000E+00 0.  1.
<mgrwt>
<rscale>  0 0.74899975E+03</rscale>
<asrwt>0</asrwt>
<pdfrwt beam="1">  1        1 0.12275361E+00 0.74899975E+03</pdfrwt>
<pdfrwt beam="2">  1       -2 0.11171070E+00 0.74899975E+03</pdfrwt>
<totfact> 0.12576722E+01</totfact>
</mgrwt>
</event>
<event>
12    3  0.1176505E-007  0.4283321E+03  0.7818608E-02  0.1034388E+00
          1   -1    0    0  501    0  0.00000000000E+00  0.00000000000E+00  0.12221576113E+04  0.12221576113E+04  0.00000000000E+00 0. -1.
         -2   -1    0    0    0  501 -0.00000000000E+00 -0.00000000000E+00 -0.22108040862E+03  0.22108040862E+03  0.00000000000E+00 0.  1.
        -24    2    1    2    0    0  0.88865011394E+01 -0.21476203669E+03  0.70368260956E+03  0.73997842445E+03  0.78721987721E+02 0.  0.
    5000000    2    1    2    0    0 -0.88865011394E+01  0.21476203669E+03  0.29739459313E+03  0.70325959548E+03  0.59994067398E+03 0.  0.
        -24    2    4    4    0    0  0.27854127666E+03  0.56123186824E+02  0.95395990442E+02  0.30966108124E+03  0.77810894744E+02 0.  0.
         24    2    4    4    0    0 -0.28742777780E+03  0.15863884987E+03  0.20199860269E+03  0.39359851423E+03  0.79594866525E+02 0.  0.
         11    1    5    5    0    0  0.19165317600E+03  0.39955265535E+01  0.47006503128E+02  0.19737404956E+03  0.00000000000E+00 0. -1.
        -12    1    5    5    0    0  0.86888100663E+02  0.52127660270E+02  0.48389487315E+02  0.11228703168E+03  0.00000000000E+00 0.  1.
         15    1    3    3    0    0 -0.11191667710E+02 -0.20205747586E+03  0.58714616027E+03  0.62104448168E+03  0.17770000000E+01 0. -1.
        -16    1    3    3    0    0  0.20078168850E+02 -0.12704560837E+02  0.11653644929E+03  0.11893394277E+03  0.00000000000E+00 0.  1.
          2    1    6    6  502    0 -0.97646433606E+02  0.97831858242E+02  0.74574331248E+02  0.15705804457E+03  0.00000000000E+00 0. -1.
         -1    1    6    6    0  502 -0.18978134420E+03  0.60806991628E+02  0.12742427144E+03  0.23654046966E+03  0.00000000000E+00 0.  1.
<mgrwt>
<rscale>  0 0.42833208E+03</rscale>
<asrwt>0</asrwt>
<pdfrwt beam="1">  1        1 0.18802424E+00 0.42833208E+03</pdfrwt>
<pdfrwt beam="2">  1       -2 0.34012371E-01 0.42833208E+03</pdfrwt>
<totfact> 0.77351568E+01</totfact>
</mgrwt>
</event>
<event>
12    3  0.1176505E-007  0.7178642E+03  0.7818608E-02  0.9687160E-01
          1   -1    0    0  501    0  0.00000000000E+00  0.00000000000E+00  0.12370715368E+04  0.12370715368E+04  0.00000000000E+00 0. -1.
         -2   -1    0    0    0  501 -0.00000000000E+00 -0.00000000000E+00 -0.65454220002E+03  0.65454220002E+03  0.00000000000E+00 0.  1.
        -24    2    1    2    0    0  0.57573002463E+03 -0.41235572460E+03 -0.12625185120E+03  0.72385461247E+03  0.80769209407E+02 0.  0.
    5000000    2    1    2    0    0 -0.57573002463E+03  0.41235572460E+03  0.70878118800E+03  0.11677591244E+04  0.59982355341E+03 0.  0.
        -24    2    4    4    0    0 -0.41638612185E+03  0.36845919786E+03  0.78982933470E+03  0.96839385129E+03  0.69402379640E+02 0.  0.
         24    2    4    4    0    0 -0.15934390278E+03  0.43896526741E+02 -0.81048146701E+02  0.19936527309E+03  0.76552763607E+02 0.  0.
         13    1    5    5    0    0 -0.27785413511E+03  0.21803993622E+03  0.45401220073E+03  0.57521423192E+03  0.00000000000E+00 0. -1.
        -14    1    5    5    0    0 -0.13853198674E+03  0.15041926164E+03  0.33581713396E+03  0.39317961937E+03  0.00000000000E+00 0.  1.
         15    1    3    3    0    0  0.31941233186E+03 -0.25957225467E+03 -0.10459886927E+03  0.42467172536E+03  0.17770000000E+01 0. -1.
        -16    1    3    3    0    0  0.25631769277E+03 -0.15278346993E+03 -0.21652981923E+02  0.29918288711E+03  0.00000000000E+00 0.  1.
          4    1    6    6  502    0 -0.10129035346E+03  0.42886329215E+02 -0.14337572828E+02  0.11092582627E+03  0.00000000000E+00 0. -1.
         -3    1    6    6    0  502 -0.58053549319E+02  0.10101975260E+01 -0.66710573874E+02  0.88439446822E+02  0.00000000000E+00 0.  1.
<mgrwt>
<rscale>  0 0.71786420E+03</rscale>
<asrwt>0</asrwt>
<pdfrwt beam="1">  1        1 0.19031870E+00 0.71786420E+03</pdfrwt>
<pdfrwt beam="2">  1       -2 0.10069880E+00 0.71786420E+03</pdfrwt>
<totfact> 0.73876684E+00</totfact>
</mgrwt>
</event>
<event>
12    3  0.1176505E-007  0.1849195E+04  0.7818608E-02  0.8680567E-01
         -2   -1    0    0    0  501 -0.00000000000E+00  0.00000000000E+00  0.14652286656E+04  0.14652286656E+04  0.00000000000E+00 0.  1.
          1   -1    0    0  501    0  0.00000000000E+00 -0.00000000000E+00 -0.26238719661E+04  0.26238719661E+04  0.00000000000E+00 0. -1.
        -24    2    1    2    0    0 -0.18212114413E+04 -0.13850432755E+03 -0.11627158217E+04  0.21665822936E+04  0.78588741219E+02 0.  0.
    5000000    2    1    2    0    0  0.18212114413E+04  0.13850432755E+03  0.40725211871E+01  0.19225183381E+04  0.60005467450E+03 0.  0.
        -24    2    4    4    0    0 -0.10549216765E+02  0.30881366899E+02  0.35447451693E+00  0.85875613406E+02  0.79432679230E+02 0.  0.
         24    2    4    4    0    0  0.18317606580E+04  0.10762296065E+03  0.37180466701E+01  0.18366427247E+04  0.79453535895E+02 0.  0.
         11    1    5    5    0    0  0.18492815287E+01  0.16235864218E+02 -0.38894090863E+02  0.42187361059E+02  0.00000000000E+00 0. -1.
        -12    1    5    5    0    0 -0.12398498294E+02  0.14645502681E+02  0.39248565380E+02  0.43688252347E+02  0.00000000000E+00 0.  1.
         15    1    3    3    0    0 -0.79808850269E+03 -0.24561608868E+02 -0.52547216452E+03  0.95586227260E+03  0.17770000000E+01 0. -1.
        -16    1    3    3    0    0 -0.10231229386E+04 -0.11394271868E+03 -0.63724365714E+03  0.12107200210E+04  0.00000000000E+00 0.  1.
          2    1    6    6  502    0  0.12855417662E+04  0.79889892355E+02 -0.33479097888E+02  0.12884567814E+04  0.00000000000E+00 0. -1.
         -1    1    6    6    0  502  0.54621889179E+03  0.27733068293E+02  0.37197144559E+02  0.54818594326E+03  0.00000000000E+00 0.  1.
<mgrwt>
<rscale>  0 0.18491952E+04</rscale>
<asrwt>0</asrwt>
<pdfrwt beam="1">  1        1 0.40367261E+00 0.18491952E+04</pdfrwt>
<pdfrwt beam="2">  1       -2 0.22541979E+00 0.18491952E+04</pdfrwt>
<totfact> 0.80478463E-02</totfact>
</mgrwt>
</event>
<event>
12    3  0.1176505E-007  0.6737752E+03  0.7818608E-02  0.9763162E-01
          1   -1    0    0  501    0  0.00000000000E+00  0.00000000000E+00  0.47601788489E+04  0.47601788489E+04  0.00000000000E+00 0. -1.
         -2   -1    0    0    0  501 -0.00000000000E+00 -0.00000000000E+00 -0.18723607159E+03  0.18723607159E+03  0.00000000000E+00 0.  1.
        -24    2    1    2    0    0  0.21499795811E+03 -0.57056111079E+03  0.52049335300E+03  0.80566623520E+03  0.80128951633E+02 0.  0.
    5000000    2    1    2    0    0 -0.21499795811E+03  0.57056111079E+03  0.40524494243E+04  0.41417486853E+04  0.59997644321E+03 0.  0.
        -24    2    4    4    0    0 -0.10802706494E+03 -0.41209230174E+02  0.17450280256E+04  0.17507287785E+04  0.80996286237E+02 0.  0.
         24    2    4    4    0    0 -0.10697089317E+03  0.61177034096E+03  0.23074213987E+04  0.23910199067E+04  0.84124677182E+02 0.  0.
         13    1    5    5    0    0 -0.83012620765E+02 -0.32201526115E+02  0.73829798276E+03  0.74364772899E+03  0.00000000000E+00 0. -1.
        -14    1    5    5    0    0 -0.25014444173E+02 -0.90077040597E+01  0.10067300429E+04  0.10070810496E+04  0.00000000000E+00 0.  1.
         15    1    3    3    0    0  0.87764104473E+02 -0.21925975857E+03  0.25330312182E+03  0.34632789234E+03  0.17770000000E+01 0. -1.
        -16    1    3    3    0    0  0.12723385363E+03 -0.35130135222E+03  0.26719023119E+03  0.45933834286E+03  0.00000000000E+00 0.  1.
          2    1    6    6  502    0 -0.99278376251E+02  0.48218275643E+03  0.19341639616E+04  0.19958323168E+04  0.00000000000E+00 0. -1.
         -1    1    6    6    0  502 -0.76925169187E+01  0.12958758453E+03  0.37325743707E+03  0.39518758990E+03  0.00000000000E+00 0.  1.
<mgrwt>
<rscale>  0 0.67377524E+03</rscale>
<asrwt>0</asrwt>
<pdfrwt beam="1">  1        1 0.73233512E+00 0.67377524E+03</pdfrwt>
<pdfrwt beam="2">  1       -2 0.28805553E-01 0.67377524E+03</pdfrwt>
<totfact> 0.19177203E-01</totfact>
</mgrwt>
</event>
<event>
12    3  0.1176505E-007  0.4858165E+03  0.7818608E-02  0.1017549E+00
         -2   -1    0    0    0  501 -0.00000000000E+00  0.00000000000E+00  0.28515149087E+03  0.28515149087E+03  0.00000000000E+00 0.  1.
          1   -1    0    0  501    0  0.00000000000E+00 -0.00000000000E+00 -0.13116493620E+04  0.13116493620E+04  0.00000000000E+00 0. -1.
        -24    2    1    2    0    0 -0.38903928565E+03  0.52719129100E+02 -0.78603865027E+02  0.40829301884E+03  0.79960923468E+02 0.  0.
    5000000    2    1    2    0    0  0.38903928565E+03 -0.52719129100E+02 -0.94789400609E+03  0.11885078340E+04  0.59993078967E+03 0.  0.
        -24    2    4    4    0    0 -0.85088698937E+02 -0.49416732397E+02 -0.54906935450E+03  0.56364834469E+03  0.80871504787E+02 0.  0.
         24    2    4    4    0    0  0.47412798459E+03 -0.33023967028E+01 -0.39882465159E+03  0.62485948934E+03  0.81117366234E+02 0.  0.
         13    1    5    5    0    0 -0.52634129266E+02 -0.15990369389E+02 -0.11942448930E+03  0.13148479806E+03  0.00000000000E+00 0. -1.
        -14    1    5    5    0    0 -0.32454569671E+02 -0.33426363008E+02 -0.42964486520E+03  0.43216354662E+03  0.00000000000E+00 0.  1.
         15    1    3    3    0    0 -0.26105971032E+03  0.50595439161E+02 -0.17609200846E+02  0.26650574571E+03  0.17770000000E+01 0. -1.
        -16    1    3    3    0    0 -0.12797957534E+03  0.21236899391E+01 -0.60994664182E+02  0.14178727313E+03  0.00000000000E+00 0.  1.
          2    1    6    6  502    0  0.17343208849E+03 -0.22076656793E+02 -0.10454436189E+03  0.20370466783E+03  0.00000000000E+00 0. -1.
         -1    1    6    6    0  502  0.30069589610E+03  0.18774260090E+02 -0.29428028970E+03  0.42115482151E+03  0.00000000000E+00 0.  1.
<mgrwt>
<rscale>  0 0.48581646E+03</rscale>
<asrwt>0</asrwt>
<pdfrwt beam="1">  1        1 0.20179221E+00 0.48581646E+03</pdfrwt>
<pdfrwt beam="2">  1       -2 0.43869461E-01 0.48581646E+03</pdfrwt>
<totfact> 0.40666370E+01</totfact>
</mgrwt>
</event>
<event>
12    3  0.1176505E-007  0.1132145E+04  0.7818608E-02  0.9174415E-01
          1   -1    0    0  501    0  0.00000000000E+00  0.00000000000E+00  0.77310160152E+03  0.77310160152E+03  0.00000000000E+00 0. -1.
         -2   -1    0    0    0  501 -0.00000000000E+00 -0.00000000000E+00 -0.16850054199E+04  0.16850054199E+04  0.00000000000E+00 0.  1.
        -24    2    1    2    0    0  0.91659266469E+03 -0.52532377686E+03 -0.31968155429E+03  0.11064885462E+04  0.77546265054E+02 0.  0.
    5000000    2    1    2    0    0 -0.91659266469E+03  0.52532377686E+03 -0.59222226407E+03  0.13516184752E+04  0.60003175661E+03 0.  0.
        -24    2    4    4    0    0 -0.54097043056E+03  0.61332865983E+03 -0.41135392335E+03  0.91893118272E+03  0.80008853338E+02 0.  0.
         24    2    4    4    0    0 -0.37562223414E+03 -0.88004882966E+02 -0.18086834072E+03  0.43268729248E+03  0.75286215205E+02 0.  0.
         13    1    5    5    0    0 -0.61251701666E+02  0.93562216896E+02 -0.32022685652E+02  0.11632330714E+03  0.00000000000E+00 0. -1.
        -14    1    5    5    0    0 -0.47971872889E+03  0.51976644293E+03 -0.37933123770E+03  0.80260787558E+03  0.00000000000E+00 0.  1.
         15    1    3    3    0    0  0.33979311757E+03 -0.19926667682E+03 -0.80475662610E+02  0.40205231157E+03  0.17770000000E+01 0. -1.
        -16    1    3    3    0    0  0.57679954712E+03 -0.32605710004E+03 -0.23920589168E+03  0.70443623463E+03  0.00000000000E+00 0.  1.
          2    1    6    6  502    0 -0.14766321191E+03 -0.58361598159E+02 -0.10605984650E+03  0.19094290071E+03  0.00000000000E+00 0. -1.
         -1    1    6    6    0  502 -0.22795902222E+03 -0.29643284807E+02 -0.74808494220E+02  0.24174439178E+03  0.00000000000E+00 0.  1.
<mgrwt>
<rscale>  0 0.11321450E+04</rscale>
<asrwt>0</asrwt>
<pdfrwt beam="1">  1        1 0.11893871E+00 0.11321450E+04</pdfrwt>
<pdfrwt beam="2">  1       -2 0.25923160E+00 0.11321450E+04</pdfrwt>
<totfact> 0.11393977E+00</totfact>
</mgrwt>
</event>
<event>
12    3  0.1176505E-007  0.4290448E+03  0.7818608E-02  0.1034162E+00
         -2   -1    0    0    0  501 -0.00000000000E+00  0.00000000000E+00  0.19741195018E+03  0.19741195018E+03  0.00000000000E+00 0.  1.
          1   -1    0    0  501    0  0.00000000000E+00 -0.00000000000E+00 -0.18378633738E+04  0.18378633738E+04  0.00000000000E+00 0. -1.
        -24    2    1    2    0    0 -0.27645112370E+03  0.29711901707E+03 -0.94319063995E+03  0.10299380685E+04  0.80367329487E+02 0.  0.
    5000000    2    1    2    0    0  0.27645112370E+03 -0.29711901707E+03 -0.69726078367E+03  0.10053372554E+04  0.59985453455E+03 0.  0.
        -24    2    4    4    0    0  0.17404297114E+03 -0.76286156948E+02  0.52395144285E+02  0.21314053123E+03  0.81074665368E+02 0.  0.
         24    2    4    4    0    0  0.10240815256E+03 -0.22083286012E+03 -0.74965592795E+03  0.79219672420E+03  0.79605638589E+02 0.  0.
         13    1    5    5    0    0  0.25794845117E+02  0.69839606197E+01  0.32302726704E+02  0.41923929838E+02  0.00000000000E+00 0. -1.
        -14    1    5    5    0    0  0.14824812602E+03 -0.83270117568E+02  0.20092417582E+02  0.17121660139E+03  0.00000000000E+00 0.  1.
         15    1    3    3    0    0 -0.12431391034E+03  0.11493418532E+03 -0.30197083398E+03  0.34619843668E+03  0.17770000000E+01 0. -1.
        -16    1    3    3    0    0 -0.15213721336E+03  0.18218483176E+03 -0.64121980597E+03  0.68373963187E+03  0.00000000000E+00 0.  1.
          2    1    6    6  502    0  0.30439787189E+01 -0.91589376240E+02 -0.31127678964E+03  0.32448593100E+03  0.00000000000E+00 0. -1.
         -1    1    6    6    0  502  0.99364173840E+02 -0.12924348388E+03 -0.43837913832E+03  0.46771079320E+03  0.00000000000E+00 0.  1.
<mgrwt>
<rscale>  0 0.42904475E+03</rscale>
<asrwt>0</asrwt>
<pdfrwt beam="1">  1        1 0.28274822E+00 0.42904475E+03</pdfrwt>
<pdfrwt beam="2">  1       -2 0.30371068E-01 0.42904475E+03</pdfrwt>
<totfact> 0.36645998E+01</totfact>
</mgrwt>
</event>
<event>
12    3  0.1176505E-007  0.1040040E+04  0.7818608E-02  0.9265687E-01
         -2   -1    0    0    0  501 -0.00000000000E+00  0.00000000000E+00  0.61712601243E+03  0.61712601243E+03  0.00000000000E+00 0.  1.
          1   -1    0    0  501    0  0.00000000000E+00 -0.00000000000E+00 -0.19259209674E+04  0.19259209674E+04  0.00000000000E+00 0. -1.
        -24    2    1    2    0    0 -0.86692598352E+03 -0.46399665221E+03 -0.35773137790E+03  0.10493676879E+04  0.79669639304E+02 0.  0.
    5000000    2    1    2    0    0  0.86692598352E+03  0.46399665221E+03 -0.95106357706E+03  0.14936792920E+04  0.59975190324E+03 0.  0.
        -24    2    4    4    0    0  0.53184291628E+03  0.17071577738E+02 -0.68443241078E+03  0.86969645777E+03  0.69107722956E+02 0.  0.
         24    2    4    4    0    0  0.33508306723E+03  0.44692507448E+03 -0.26663116628E+03  0.62398283418E+03  0.78991862717E+02 0.  0.
         11    1    5    5    0    0  0.10559613831E+03  0.27354622833E+02 -0.16306592900E+03  0.19618694405E+03  0.00000000000E+00 0. -1.
        -12    1    5    5    0    0  0.42624677797E+03 -0.10283045095E+02 -0.52136648178E+03  0.67350951372E+03  0.00000000000E+00 0.  1.
         15    1    3    3    0    0 -0.41813906198E+03 -0.18627922068E+03 -0.14280862578E+03  0.47951817957E+03  0.17770000000E+01 0. -1.
        -16    1    3    3    0    0 -0.44878692154E+03 -0.27771743154E+03 -0.21492275212E+03  0.56984950829E+03  0.00000000000E+00 0.  1.
          4    1    6    6  502    0  0.18858753537E+02  0.35438010007E+02 -0.43189163411E+02  0.58964472137E+02  0.00000000000E+00 0. -1.
         -3    1    6    6    0  502  0.31622431370E+03  0.41148706447E+03 -0.22344200287E+03  0.56501836204E+03  0.00000000000E+00 0.  1.
<mgrwt>
<rscale>  0 0.10400404E+04</rscale>
<asrwt>0</asrwt>
<pdfrwt beam="1">  1        1 0.29629553E+00 0.10400404E+04</pdfrwt>
<pdfrwt beam="2">  1       -2 0.94942466E-01 0.10400404E+04</pdfrwt>
<totfact> 0.27420889E+00</totfact>
</mgrwt>
</event>
<event>
12    3  0.1176505E-007  0.6292192E+03  0.7818608E-02  0.9846574E-01
          1   -1    0    0  501    0  0.00000000000E+00  0.00000000000E+00  0.95371710126E+03  0.95371710126E+03  0.00000000000E+00 0. -1.
         -2   -1    0    0    0  501 -0.00000000000E+00 -0.00000000000E+00 -0.56396911905E+03  0.56396911905E+03  0.00000000000E+00 0.  1.
        -24    2    1    2    0    0  0.33581883103E+03  0.46056725146E+03  0.37991650213E+03  0.68972384295E+03  0.80535399344E+02 0.  0.
    5000000    2    1    2    0    0 -0.33581883103E+03 -0.46056725146E+03  0.98314800803E+01  0.82796237737E+03  0.60044030507E+03 0.  0.
        -24    2    4    4    0    0 -0.16227619551E+03 -0.48087977461E+03 -0.19252858830E+03  0.54869547518E+03  0.80128309027E+02 0.  0.
         24    2    4    4    0    0 -0.17354263551E+03  0.20312523153E+02  0.20236006838E+03  0.27926690219E+03  0.80689283349E+02 0.  0.
         13    1    5    5    0    0 -0.68646365647E+02 -0.23672154279E+03 -0.52254981163E+02  0.25195236731E+03  0.00000000000E+00 0. -1.
        -14    1    5    5    0    0 -0.93629829865E+02 -0.24415823182E+03 -0.14027360714E+03  0.29674310786E+03  0.00000000000E+00 0.  1.
         15    1    3    3    0    0  0.18801310526E+03  0.22911556209E+03  0.15337237980E+03  0.33372011200E+03  0.17770000000E+01 0. -1.
        -16    1    3    3    0    0  0.14780572576E+03  0.23145168937E+03  0.22654412233E+03  0.35600373094E+03  0.00000000000E+00 0.  1.
          4    1    6    6  502    0 -0.11105307988E+02  0.12663228134E+02  0.62655783432E+02  0.64880138792E+02  0.00000000000E+00 0. -1.
         -3    1    6    6    0  502 -0.16243732753E+03  0.76492950194E+01  0.13970428495E+03  0.21438676340E+03  0.00000000000E+00 0.  1.
<mgrwt>
<rscale>  0 0.62921917E+03</rscale>
<asrwt>0</asrwt>
<pdfrwt beam="1">  1        1 0.14672571E+00 0.62921917E+03</pdfrwt>
<pdfrwt beam="2">  1       -2 0.86764479E-01 0.62921917E+03</pdfrwt>
<totfact> 0.17212050E+01</totfact>
</mgrwt>
</event>
<event>
12    3  0.1176505E-007  0.6644844E+03  0.7818608E-02  0.9779973E-01
          1   -1    0    0  501    0  0.00000000000E+00  0.00000000000E+00  0.86148804465E+03  0.86148804465E+03  0.00000000000E+00 0. -1.
         -2   -1    0    0    0  501 -0.00000000000E+00 -0.00000000000E+00 -0.66339521063E+03  0.66339521063E+03  0.00000000000E+00 0.  1.
        -24    2    1    2    0    0  0.59664181030E+03  0.49990567638E+01  0.30035791001E+03  0.67261262753E+03  0.78653876179E+02 0.  0.
    5000000    2    1    2    0    0 -0.59664181030E+03 -0.49990567638E+01 -0.10226507599E+03  0.85227062775E+03  0.59991719160E+03 0.  0.
        -24    2    4    4    0    0 -0.83970855020E+02 -0.15752333249E+03  0.15953268826E+03  0.25149106169E+03  0.77021884643E+02 0.  0.
         24    2    4    4    0    0 -0.51267095528E+03  0.15252427573E+03 -0.26179776425E+03  0.60077956605E+03  0.79390519237E+02 0.  0.
         11    1    5    5    0    0  0.11430503500E+02 -0.42104009133E+02  0.25560532398E+02  0.50564264178E+02  0.00000000000E+00 0. -1.
        -12    1    5    5    0    0 -0.95401358520E+02 -0.11541932336E+03  0.13397215586E+03  0.20092679751E+03  0.00000000000E+00 0.  1.
         15    1    3    3    0    0  0.32367317657E+03  0.13615924139E+02  0.12072595024E+03  0.34572768390E+03  0.17770000000E+01 0. -1.
        -16    1    3    3    0    0  0.27296863373E+03 -0.86168673750E+01  0.17963195976E+03  0.32688494363E+03  0.00000000000E+00 0.  1.
          4    1    6    6  502    0 -0.74170737306E+02  0.45992778319E+02 -0.23085622115E+02  0.90275023559E+02  0.00000000000E+00 0. -1.
         -3    1    6    6    0  502 -0.43850021798E+03  0.10653149741E+03 -0.23871214214E+03  0.51050454250E+03  0.00000000000E+00 0.  1.
<mgrwt>
<rscale>  0 0.66448444E+03</rscale>
<asrwt>0</asrwt>
<pdfrwt beam="1">  1        1 0.13253662E+00 0.66448444E+03</pdfrwt>
<pdfrwt beam="2">  1       -2 0.10206080E+00 0.66448444E+03</pdfrwt>
<totfact> 0.13939053E+01</totfact>
</mgrwt>
</event>
<event>
12    3  0.1176505E-007  0.1414971E+04  0.7818608E-02  0.8943052E-01
          1   -1    0    0  501    0  0.00000000000E+00  0.00000000000E+00  0.14929848100E+04  0.14929848100E+04  0.00000000000E+00 0. -1.
         -2   -1    0    0    0  501 -0.00000000000E+00 -0.00000000000E+00 -0.15330749876E+04  0.15330749876E+04  0.00000000000E+00 0.  1.
        -24    2    1    2    0    0  0.13473764455E+04 -0.39300647259E+03  0.35406926635E+03  0.14496955305E+04  0.79841795625E+02 0.  0.
    5000000    2    1    2    0    0 -0.13473764455E+04  0.39300647259E+03 -0.39415944386E+03  0.15763642671E+04  0.59973766086E+03 0.  0.
        -24    2    4    4    0    0 -0.11925063458E+04  0.34477213920E+03 -0.52737315134E+03  0.13510494485E+04  0.79202012377E+02 0.  0.
         24    2    4    4    0    0 -0.15487009972E+03  0.48234333387E+02  0.13321370749E+03  0.22531481857E+03  0.81912007067E+02 0.  0.
         11    1    5    5    0    0 -0.51649448374E+03  0.18971525472E+03 -0.24033628514E+03  0.60043314329E+03  0.00000000000E+00 0. -1.
        -12    1    5    5    0    0 -0.67601186208E+03  0.15505688448E+03 -0.28703686620E+03  0.75061630521E+03  0.00000000000E+00 0.  1.
         15    1    3    3    0    0  0.66175087773E+03 -0.15882027332E+03  0.14815468718E+03  0.69648479701E+03  0.17770000000E+01 0. -1.
        -16    1    3    3    0    0  0.68562556781E+03 -0.23418619927E+03  0.20591457917E+03  0.75321073351E+03  0.00000000000E+00 0.  1.
          2    1    6    6  502    0 -0.32964773141E+02  0.49136788641E+02  0.34841146116E+02  0.68665899316E+02  0.00000000000E+00 0. -1.
         -1    1    6    6    0  502 -0.12190532658E+03 -0.90245525357E+00  0.98372561370E+02  0.15664891926E+03  0.00000000000E+00 0.  1.
<mgrwt>
<rscale>  0 0.14149713E+04</rscale>
<asrwt>0</asrwt>
<pdfrwt beam="1">  1        1 0.22968997E+00 0.14149713E+04</pdfrwt>
<pdfrwt beam="2">  1       -2 0.23585769E+00 0.14149713E+04</pdfrwt>
<totfact> 0.43357266E-01</totfact>
</mgrwt>
</event>
<event>
12    3  0.1491794E-007  0.1339303E+04  0.7818608E-02  0.8998966E-01
          1   -1    0    0  501    0  0.00000000000E+00  0.00000000000E+00  0.10228483481E+04  0.10228483481E+04  0.00000000000E+00 0. -1.
         -2   -1    0    0    0  501 -0.00000000000E+00 -0.00000000000E+00 -0.18631089090E+04  0.18631089090E+04  0.00000000000E+00 0.  1.
        -24    2    1    2    0    0 -0.12979036906E+04  0.19100157346E+03 -0.32363951468E+03  0.13536457551E+04  0.81109208757E+02 0.  0.
    5000000    2    1    2    0    0  0.12979036906E+04 -0.19100157346E+03 -0.51662104616E+03  0.15323115020E+04  0.60003803442E+03 0.  0.
        -24    2    4    4    0    0  0.11993152176E+04 -0.86346648325E+02 -0.60200263005E+03  0.13470092166E+04  0.78828473153E+02 0.  0.
         24    2    4    4    0    0  0.98588472950E+02 -0.10465492514E+03  0.85381583896E+02  0.18530228538E+03  0.79840977840E+02 0.  0.
         11    1    5    5    0    0  0.74910931015E+03 -0.91664842028E+02 -0.37019731160E+03  0.84060290943E+03  0.00000000000E+00 0. -1.
        -12    1    5    5    0    0  0.45020590746E+03  0.53181937027E+01 -0.23180531846E+03  0.50640630719E+03  0.00000000000E+00 0.  1.
         15    1    3    3    0    0 -0.83717073752E+03  0.12095847459E+03 -0.24839829059E+03  0.88158417909E+03  0.17770000000E+01 0. -1.
        -16    1    3    3    0    0 -0.46073295305E+03  0.70043098870E+02 -0.75241224091E+02  0.47206157599E+03  0.00000000000E+00 0.  1.
          4    1    6    6  502    0  0.11086544301E+03 -0.91129309321E+02  0.63874356383E+02  0.15708478881E+03  0.00000000000E+00 0. -1.
         -3    1    6    6    0  502 -0.12276970063E+02 -0.13525615817E+02  0.21507227513E+02  0.28217496566E+02  0.00000000000E+00 0.  1.
<mgrwt>
<rscale>  0 0.13393026E+04</rscale>
<asrwt>0</asrwt>
<pdfrwt beam="1">  1        1 0.15736129E+00 0.13393026E+04</pdfrwt>
<pdfrwt beam="2">  1       -2 0.28663214E+00 0.13393026E+04</pdfrwt>
<totfact> 0.47093219E-01</totfact>
</mgrwt>
</event>
<event>
12    3  0.1176505E-007  0.1411889E+04  0.7818608E-02  0.8945257E-01
         -2   -1    0    0    0  501 -0.00000000000E+00  0.00000000000E+00  0.18912763090E+04  0.18912763090E+04  0.00000000000E+00 0.  1.
          1   -1    0    0  501    0  0.00000000000E+00 -0.00000000000E+00 -0.12202653844E+04  0.12202653844E+04  0.00000000000E+00 0. -1.
        -24    2    1    2    0    0  0.67316108782E+03  0.12140927624E+04 -0.13648296538E+03  0.13971905468E+04  0.79666419377E+02 0.  0.
    5000000    2    1    2    0    0 -0.67316108782E+03 -0.12140927624E+04  0.80749388998E+03  0.17143511466E+04  0.59982196175E+03 0.  0.
        -24    2    4    4    0    0 -0.67217277163E+03 -0.11377466895E+04  0.55209281123E+03  0.14344513910E+04  0.80997261620E+02 0.  0.
         24    2    4    4    0    0 -0.98831618423E+00 -0.76346072853E+02  0.25540107876E+03  0.27989975567E+03  0.85349063165E+02 0.  0.
         11    1    5    5    0    0 -0.60352098582E+03 -0.10202646985E+04  0.46767800626E+03  0.12743234883E+04  0.00000000000E+00 0. -1.
        -12    1    5    5    0    0 -0.68651785809E+02 -0.11748199103E+03  0.84414804966E+02  0.16012790265E+03  0.00000000000E+00 0.  1.
         15    1    3    3    0    0  0.23337245684E+03  0.47484350017E+03 -0.23401397285E+02  0.52961291184E+03  0.17770000000E+01 0. -1.
        -16    1    3    3    0    0  0.43978863097E+03  0.73924926221E+03 -0.11308156809E+03  0.86757763494E+03  0.00000000000E+00 0.  1.
          4    1    6    6  502    0 -0.30785950279E+02 -0.77316941441E+02  0.16662646061E+03  0.18625268198E+03  0.00000000000E+00 0. -1.
         -3    1    6    6    0  502  0.29797634095E+02  0.97086858878E+00  0.88774618144E+02  0.93647073687E+02  0.00000000000E+00 0.  1.
<mgrwt>
<rscale>  0 0.14118891E+04</rscale>
<asrwt>0</asrwt>
<pdfrwt beam="1">  1        1 0.18773314E+00 0.14118891E+04</pdfrwt>
<pdfrwt beam="2">  1       -2 0.29096558E+00 0.14118891E+04</pdfrwt>
<totfact> 0.31197778E-01</totfact>
</mgrwt>
</event>
<event>
12    3  0.1176505E-007  0.7953391E+03  0.7818608E-02  0.9566788E-01
         -2   -1    0    0    0  501 -0.00000000000E+00  0.00000000000E+00  0.39225446281E+03  0.39225446281E+03  0.00000000000E+00 0.  1.
          1   -1    0    0  501    0  0.00000000000E+00 -0.00000000000E+00 -0.20907508755E+04  0.20907508755E+04  0.00000000000E+00 0. -1.
        -24    2    1    2    0    0  0.73788771972E+03  0.16647161686E+03 -0.11321961981E+04  0.13639681011E+04  0.79684777314E+02 0.  0.
    5000000    2    1    2    0    0 -0.73788771972E+03 -0.16647161686E+03 -0.56630021459E+03  0.11190372372E+04  0.59946419332E+03 0.  0.
        -24    2    4    4    0    0 -0.73366683898E+03 -0.14741128723E+03 -0.65572837896E+03  0.99800846276E+03  0.77743594910E+02 0.  0.
         24    2    4    4    0    0 -0.42208807447E+01 -0.19060329637E+02  0.89428164366E+02  0.12102877445E+03  0.79179894306E+02 0.  0.
         13    1    5    5    0    0 -0.16302227399E+03 -0.47952245679E+02 -0.11178096262E+03  0.20339779568E+03  0.00000000000E+00 0. -1.
        -14    1    5    5    0    0 -0.57064456498E+03 -0.99459041549E+02 -0.54394741634E+03  0.79461066708E+03  0.00000000000E+00 0.  1.
         15    1    3    3    0    0  0.41343033309E+03  0.13136174269E+03 -0.66964196606E+03  0.79787471961E+03  0.17770000000E+01 0. -1.
        -16    1    3    3    0    0  0.32445738663E+03  0.35109874178E+02 -0.46255423206E+03  0.56609338152E+03  0.00000000000E+00 0.  1.
          4    1    6    6  502    0 -0.40979552064E+02 -0.25658873956E+01  0.40884835883E+02  0.57943742291E+02  0.00000000000E+00 0. -1.
         -3    1    6    6    0  502  0.36758671319E+02 -0.16494442241E+02  0.48543328483E+02  0.63085032156E+02  0.00000000000E+00 0.  1.
<mgrwt>
<rscale>  0 0.79533910E+03</rscale>
<asrwt>0</asrwt>
<pdfrwt beam="1">  1        1 0.32165397E+00 0.79533910E+03</pdfrwt>
<pdfrwt beam="2">  1       -2 0.60346842E-01 0.79533910E+03</pdfrwt>
<totfact> 0.60270184E+00</totfact>
</mgrwt>
</event>
<event>
12    3  0.1176505E-007  0.2179751E+04  0.7818608E-02  0.8526904E-01
         -2   -1    0    0    0  501 -0.00000000000E+00  0.00000000000E+00  0.17000353005E+04  0.17000353005E+04  0.00000000000E+00 0.  1.
          1   -1    0    0  501    0  0.00000000000E+00 -0.00000000000E+00 -0.28409341015E+04  0.28409341015E+04  0.00000000000E+00 0. -1.
        -24    2    1    2    0    0 -0.66232569444E+03 -0.20416630186E+04 -0.35047927664E+03  0.21762669776E+04  0.78987512960E+02 0.  0.
    5000000    2    1    2    0    0  0.66232569444E+03  0.20416630186E+04 -0.79041952438E+03  0.23647024245E+04  0.59999277064E+03 0.  0.
        -24    2    4    4    0    0  0.67188635711E+03  0.12571499626E+04 -0.62745049318E+03  0.15596095657E+04  0.82647266815E+02 0.  0.
         24    2    4    4    0    0 -0.95606626718E+01  0.78451305605E+03 -0.16296903120E+03  0.80509285882E+03  0.77868252915E+02 0.  0.
         11    1    5    5    0    0  0.47010356359E+03  0.95587721403E+03 -0.46833430599E+03  0.11636303670E+04  0.00000000000E+00 0. -1.
        -12    1    5    5    0    0  0.20178279352E+03  0.30127274852E+03 -0.15911618719E+03  0.39597919868E+03  0.00000000000E+00 0.  1.
         15    1    3    3    0    0 -0.36903550361E+03 -0.10676396975E+04 -0.21783086791E+03  0.11504326018E+04  0.17770000000E+01 0. -1.
        -16    1    3    3    0    0 -0.29329019083E+03 -0.97402332112E+03 -0.13264840873E+03  0.10258343757E+04  0.00000000000E+00 0.  1.
          2    1    6    6  502    0 -0.12427185457E+02  0.24761880695E+03 -0.87474226030E+02  0.26290920241E+03  0.00000000000E+00 0. -1.
         -1    1    6    6    0  502  0.28665227851E+01  0.53689424909E+03 -0.75494805167E+02  0.54218365640E+03  0.00000000000E+00 0.  1.
<mgrwt>
<rscale>  0 0.21797510E+04</rscale>
<asrwt>0</asrwt>
<pdfrwt beam="1">  1        1 0.43706679E+00 0.21797510E+04</pdfrwt>
<pdfrwt beam="2">  1       -2 0.26154389E+00 0.21797510E+04</pdfrwt>
<totfact> 0.32531208E-02</totfact>
</mgrwt>
</event>
<event>
12    3  0.1176505E-007  0.4980417E+03  0.7818608E-02  0.1014291E+00
          1   -1    0    0  501    0  0.00000000000E+00  0.00000000000E+00  0.12828619885E+04  0.12828619885E+04  0.00000000000E+00 0. -1.
         -2   -1    0    0    0  501 -0.00000000000E+00 -0.00000000000E+00 -0.27015876301E+03  0.27015876301E+03  0.00000000000E+00 0.  1.
        -24    2    1    2    0    0 -0.31624777539E+03  0.27046488985E+03  0.23212577344E+03  0.48402633905E+03  0.85060038332E+02 0.  0.
    5000000    2    1    2    0    0  0.31624777539E+03 -0.27046488985E+03  0.78057745206E+03  0.10689944125E+04  0.60023660598E+03 0.  0.
        -24    2    4    4    0    0  0.16805195431E+03 -0.36115660676E+03  0.18577753568E+03  0.44422345632E+03  0.64386585746E+02 0.  0.
         24    2    4    4    0    0  0.14819582107E+03  0.90691716915E+02  0.59479991638E+03  0.62477095615E+03  0.79779810907E+02 0.  0.
         13    1    5    5    0    0  0.76605176340E+02 -0.23344566399E+03  0.10011132362E+03  0.26530644205E+03  0.00000000000E+00 0. -1.
        -14    1    5    5    0    0  0.91446777974E+02 -0.12771094277E+03  0.85666212052E+02  0.17891701427E+03  0.00000000000E+00 0.  1.
         15    1    3    3    0    0 -0.15774467286E+03  0.13020070583E+03  0.16242642519E+03  0.26119170535E+03  0.17770000000E+01 0. -1.
        -16    1    3    3    0    0 -0.15850310253E+03  0.14026418402E+03  0.69699348245E+02  0.22283463370E+03  0.00000000000E+00 0.  1.
          2    1    6    6  502    0  0.50688416221E+02  0.50802626612E+02  0.36478838794E+03  0.37178056752E+03  0.00000000000E+00 0. -1.
         -1    1    6    6    0  502  0.97507404852E+02  0.39889090303E+02  0.23001152844E+03  0.25299038863E+03  0.00000000000E+00 0.  1.
<mgrwt>
<rscale>  0 0.49804174E+03</rscale>
<asrwt>0</asrwt>
<pdfrwt beam="1">  1        1 0.19736338E+00 0.49804174E+03</pdfrwt>
<pdfrwt beam="2">  1       -2 0.41562887E-01 0.49804174E+03</pdfrwt>
<totfact> 0.47264474E+01</totfact>
</mgrwt>
</event>
<event>
12    3  0.1176505E-007  0.6286804E+03  0.7818608E-02  0.9847627E-01
         -4   -1    0    0    0  501 -0.00000000000E+00  0.00000000000E+00  0.27260902003E+04  0.27260902003E+04  0.00000000000E+00 0.  1.
          3   -1    0    0  501    0  0.00000000000E+00 -0.00000000000E+00 -0.35455206954E+03  0.35455206954E+03  0.00000000000E+00 0. -1.
        -24    2    1    2    0    0 -0.58648015736E+03 -0.19196387551E+03  0.73457636573E+02  0.62669361615E+03  0.80868780596E+02 0.  0.
    5000000    2    1    2    0    0  0.58648015736E+03  0.19196387551E+03  0.22980804942E+04  0.24539486537E+04  0.59990076906E+03 0.  0.
        -24    2    4    4    0    0  0.30964040000E+03  0.16740970024E+03  0.42115908604E+03  0.55483182720E+03  0.80995034896E+02 0.  0.
         24    2    4    4    0    0  0.27683975736E+03  0.24554175263E+02  0.18769214082E+04  0.18991168265E+04  0.81040665743E+02 0.  0.
         13    1    5    5    0    0  0.12985890387E+03  0.10349991070E+03  0.15357597634E+03  0.22618829974E+03  0.00000000000E+00 0. -1.
        -14    1    5    5    0    0  0.17978149613E+03  0.63909789543E+02  0.26758310969E+03  0.32864352746E+03  0.00000000000E+00 0.  1.
         15    1    3    3    0    0 -0.77758946863E+02 -0.55554507822E+02  0.72546375859E+01  0.95856896737E+02  0.17770000000E+01 0. -1.
        -16    1    3    3    0    0 -0.50872121049E+03 -0.13640936768E+03  0.66202998987E+02  0.53083671941E+03  0.00000000000E+00 0.  1.
          4    1    6    6  502    0  0.21614250384E+03  0.13807077728E+02  0.16428514198E+04  0.16570663852E+04  0.00000000000E+00 0. -1.
         -3    1    6    6    0  502  0.60697253521E+02  0.10747097535E+02  0.23406998832E+03  0.24205044128E+03  0.00000000000E+00 0.  1.
<mgrwt>
<rscale>  0 0.62868039E+03</rscale>
<asrwt>0</asrwt>
<pdfrwt beam="1">  1        3 0.54546474E-01 0.62868039E+03</pdfrwt>
<pdfrwt beam="2">  1       -4 0.41939848E+00 0.62868039E+03</pdfrwt>
<totfact> 0.40193751E-02</totfact>
</mgrwt>
</event>
<event>
12    3  0.1176505E-007  0.7569537E+03  0.7818608E-02  0.9624504E-01
         -2   -1    0    0    0  501 -0.00000000000E+00  0.00000000000E+00  0.56128933293E+03  0.56128933293E+03  0.00000000000E+00 0.  1.
          1   -1    0    0  501    0  0.00000000000E+00 -0.00000000000E+00 -0.11435274114E+04  0.11435274114E+04  0.00000000000E+00 0. -1.
        -24    2    1    2    0    0  0.11861057743E+02 -0.64237536492E+03  0.51981900020E+01  0.64752596173E+03  0.80473944787E+02 0.  0.
    5000000    2    1    2    0    0 -0.11861057743E+02  0.64237536492E+03 -0.58743626850E+03  0.10572907826E+04  0.59999636276E+03 0.  0.
        -24    2    4    4    0    0  0.27485573742E+03  0.41745182211E+03 -0.34685208223E+03  0.61354465746E+03  0.79492009469E+02 0.  0.
         24    2    4    4    0    0 -0.28671679517E+03  0.22492354281E+03 -0.24058418628E+03  0.44374612517E+03  0.78947781333E+02 0.  0.
         13    1    5    5    0    0  0.13161434455E+03  0.14172858797E+03 -0.10709937362E+03  0.22108732250E+03  0.00000000000E+00 0. -1.
        -14    1    5    5    0    0  0.14324139287E+03  0.27572323415E+03 -0.23975270861E+03  0.39245733496E+03  0.00000000000E+00 0.  1.
         15    1    3    3    0    0  0.32945195168E+02 -0.21936483542E+03 -0.23184585977E+02  0.22304035433E+03  0.17770000000E+01 0. -1.
        -16    1    3    3    0    0 -0.21084137425E+02 -0.42301052950E+03  0.28382775979E+02  0.42448560740E+03  0.00000000000E+00 0.  1.
          2    1    6    6  502    0 -0.12437719136E+03  0.97799955015E+02 -0.58581216862E+02  0.16871951843E+03  0.00000000000E+00 0. -1.
         -1    1    6    6    0  502 -0.16233960381E+03  0.12712358779E+03 -0.18200296942E+03  0.27502660674E+03  0.00000000000E+00 0.  1.
<mgrwt>
<rscale>  0 0.75695367E+03</rscale>
<asrwt>0</asrwt>
<pdfrwt beam="1">  1        1 0.17592729E+00 0.75695367E+03</pdfrwt>
<pdfrwt beam="2">  1       -2 0.86352206E-01 0.75695367E+03</pdfrwt>
<totfact> 0.12290332E+01</totfact>
</mgrwt>
</event>
<event>
12    3  0.1176505E-007  0.5600728E+03  0.7818608E-02  0.9991890E-01
         -2   -1    0    0    0  501 -0.00000000000E+00  0.00000000000E+00  0.23269960432E+04  0.23269960432E+04  0.00000000000E+00 0.  1.
          1   -1    0    0  501    0  0.00000000000E+00 -0.00000000000E+00 -0.21511225993E+03  0.21511225993E+03  0.00000000000E+00 0. -1.
        -24    2    1    2    0    0 -0.12051813957E+03  0.45172931898E+03  0.14757064800E+04  0.15501422748E+04  0.81531941560E+02 0.  0.
    5000000    2    1    2    0    0  0.12051813957E+03 -0.45172931898E+03  0.63617730328E+03  0.99196602832E+03  0.60057559103E+03 0.  0.
        -24    2    4    4    0    0 -0.56108551747E+02 -0.45988071401E+03  0.19336343782E+03  0.50855666471E+03  0.81252824159E+02 0.  0.
         24    2    4    4    0    0  0.17662669132E+03  0.81513950321E+01  0.44281386546E+03  0.48340936361E+03  0.79605653449E+02 0.  0.
         13    1    5    5    0    0 -0.18793707187E+02 -0.19236878445E+03  0.12417004452E+03  0.22973278524E+03  0.00000000000E+00 0. -1.
        -14    1    5    5    0    0 -0.37314844560E+02 -0.26751192956E+03  0.69193393305E+02  0.27882387946E+03  0.00000000000E+00 0.  1.
         15    1    3    3    0    0 -0.86496883743E+02  0.17149612303E+03  0.62040902292E+03  0.64946373614E+03  0.17770000000E+01 0. -1.
        -16    1    3    3    0    0 -0.34021255825E+02  0.28023319594E+03  0.85529745709E+03  0.90067853870E+03  0.00000000000E+00 0.  1.
          2    1    6    6  502    0  0.12452552148E+03 -0.14898042237E+02  0.37170696016E+03  0.39229404965E+03  0.00000000000E+00 0. -1.
         -1    1    6    6    0  502  0.52101169840E+02  0.23049437269E+02  0.71106905297E+02  0.91115313960E+02  0.00000000000E+00 0.  1.
<mgrwt>
<rscale>  0 0.56007281E+03</rscale>
<asrwt>0</asrwt>
<pdfrwt beam="1">  1        1 0.33094195E-01 0.56007281E+03</pdfrwt>
<pdfrwt beam="2">  1       -2 0.35799937E+00 0.56007281E+03</pdfrwt>
<totfact> 0.17875945E+00</totfact>
</mgrwt>
</event>
<event>
12    3  0.1176505E-007  0.3802079E+03  0.7818608E-02  0.1050857E+00
          1   -1    0    0  501    0  0.00000000000E+00  0.00000000000E+00  0.48606150960E+03  0.48606150960E+03  0.00000000000E+00 0. -1.
         -2   -1    0    0    0  501 -0.00000000000E+00 -0.00000000000E+00 -0.56223708729E+03  0.56223708729E+03  0.00000000000E+00 0.  1.
        -24    2    1    2    0    0 -0.30503632733E+03 -0.13052388442E+03 -0.11880095379E+03  0.36132466583E+03  0.79738335295E+02 0.  0.
    5000000    2    1    2    0    0  0.30503632733E+03  0.13052388442E+03  0.42625376097E+02  0.68697393106E+03  0.60002717761E+03 0.  0.
        -24    2    4    4    0    0  0.11851698294E+03 -0.69783077857E+02 -0.23805763525E+03  0.28665478046E+03  0.81139215320E+02 0.  0.
         24    2    4    4    0    0  0.18651934439E+03  0.20030696228E+03  0.28068301134E+03  0.40031915060E+03  0.80994595562E+02 0.  0.
         13    1    5    5    0    0  0.27945657633E+02 -0.52740721001E+02 -0.52585759431E+02  0.79547504846E+02  0.00000000000E+00 0. -1.
        -14    1    5    5    0    0  0.90571325309E+02 -0.17042356856E+02 -0.18547187581E+03  0.20710727562E+03  0.00000000000E+00 0.  1.
         15    1    3    3    0    0 -0.22120276848E+03 -0.10780448105E+03 -0.51419837539E+02  0.25139536261E+03  0.17770000000E+01 0. -1.
        -16    1    3    3    0    0 -0.83833558849E+02 -0.22719403375E+02 -0.67381116251E+02  0.10992930322E+03  0.00000000000E+00 0.  1.
          2    1    6    6  502    0  0.15635698137E+02  0.56931244268E+01  0.52752527517E+02  0.55314698602E+02  0.00000000000E+00 0. -1.
         -1    1    6    6    0  502  0.17088364625E+03  0.19461383785E+03  0.22793048383E+03  0.34500445200E+03  0.00000000000E+00 0.  1.
<mgrwt>
<rscale>  0 0.38020786E+03</rscale>
<asrwt>0</asrwt>
<pdfrwt beam="1">  1        1 0.74778694E-01 0.38020786E+03</pdfrwt>
<pdfrwt beam="2">  1       -2 0.86498013E-01 0.38020786E+03</pdfrwt>
<totfact> 0.49123008E+01</totfact>
</mgrwt>
</event>
<event>
12    3  0.1176505E-007  0.6215114E+03  0.7818608E-02  0.9861755E-01
          1   -1    0    0  501    0  0.00000000000E+00  0.00000000000E+00  0.92529425987E+03  0.92529425987E+03  0.00000000000E+00 0. -1.
         -2   -1    0    0    0  501 -0.00000000000E+00 -0.00000000000E+00 -0.10871712353E+04  0.10871712353E+04  0.00000000000E+00 0.  1.
        -24    2    1    2    0    0 -0.40306968707E+03  0.39581525685E+03 -0.79129287989E+03  0.97549364694E+03  0.79426338699E+02 0.  0.
    5000000    2    1    2    0    0  0.40306968707E+03 -0.39581525685E+03  0.62941590446E+03  0.10369718482E+04  0.60000945247E+03 0.  0.
        -24    2    4    4    0    0  0.15767794908E+03 -0.37701660701E+03  0.72085862685E+02  0.42250954996E+03  0.79461252339E+02 0.  0.
         24    2    4    4    0    0  0.24539173798E+03 -0.18798649841E+02  0.55733004177E+03  0.61446229827E+03  0.79853905517E+02 0.  0.
         11    1    5    5    0    0  0.42485074758E+02 -0.34215441040E+02  0.59421548890E+01  0.54872462925E+02  0.00000000000E+00 0. -1.
        -12    1    5    5    0    0  0.11519287432E+03 -0.34280116597E+03  0.66143707796E+02  0.36763708703E+03  0.00000000000E+00 0.  1.
         15    1    3    3    0    0 -0.26751532373E+03  0.21080465783E+03 -0.45222166387E+03  0.56613659412E+03  0.17770000000E+01 0. -1.
        -16    1    3    3    0    0 -0.13555436333E+03  0.18501059901E+03 -0.33907121602E+03  0.40935705283E+03  0.00000000000E+00 0.  1.
          4    1    6    6  502    0  0.23730478711E+03 -0.33937679873E+02  0.49788759309E+03  0.55259151591E+03  0.00000000000E+00 0. -1.
         -3    1    6    6    0  502  0.80869508744E+01  0.15139030032E+02  0.59442448681E+02  0.61870782361E+02  0.00000000000E+00 0.  1.
<mgrwt>
<rscale>  0 0.62151145E+03</rscale>
<asrwt>0</asrwt>
<pdfrwt beam="1">  1        1 0.14235296E+00 0.62151145E+03</pdfrwt>
<pdfrwt beam="2">  1       -2 0.16725711E+00 0.62151145E+03</pdfrwt>
<totfact> 0.35511835E+00</totfact>
</mgrwt>
</event>
<event>
12    3  0.1176505E-007  0.6562071E+03  0.7818608E-02  0.9795201E-01
         -2   -1    0    0    0  501 -0.00000000000E+00  0.00000000000E+00  0.29551888521E+03  0.29551888521E+03  0.00000000000E+00 0.  1.
          1   -1    0    0  501    0  0.00000000000E+00 -0.00000000000E+00 -0.21187188093E+04  0.21187188093E+04  0.00000000000E+00 0. -1.
        -24    2    1    2    0    0  0.38257682474E+03 -0.50855632246E+03 -0.44046582083E+03  0.77813104030E+03  0.80518424083E+02 0.  0.
    5000000    2    1    2    0    0 -0.38257682474E+03  0.50855632246E+03 -0.13827341033E+04  0.16361066542E+04  0.59991401359E+03 0.  0.
        -24    2    4    4    0    0 -0.28607770648E+03  0.21206082074E+03 -0.12263648668E+04  0.12795830477E+04  0.80942841891E+02 0.  0.
         24    2    4    4    0    0 -0.96499118254E+02  0.29649550172E+03 -0.15636923649E+03  0.35652360652E+03  0.73729787177E+02 0.  0.
         11    1    5    5    0    0 -0.10764016623E+03  0.64776649720E+02 -0.31065858168E+03  0.33509875277E+03  0.00000000000E+00 0. -1.
        -12    1    5    5    0    0 -0.17843754025E+03  0.14728417102E+03 -0.91570628513E+03  0.94448429496E+03  0.00000000000E+00 0.  1.
         15    1    3    3    0    0  0.29637159597E+03 -0.39447975496E+03 -0.38048338133E+03  0.62307396124E+03  0.17770000000E+01 0. -1.
        -16    1    3    3    0    0  0.86205228764E+02 -0.11407656750E+03 -0.59982439497E+02  0.15505707906E+03  0.00000000000E+00 0.  1.
          2    1    6    6  502    0 -0.67266794741E+02  0.10099623636E+03 -0.75708228221E+02  0.14302726052E+03  0.00000000000E+00 0. -1.
         -1    1    6    6    0  502 -0.29232323514E+02  0.19549926537E+03 -0.80661008269E+02  0.21349634599E+03  0.00000000000E+00 0.  1.
<mgrwt>
<rscale>  0 0.65620710E+03</rscale>
<asrwt>0</asrwt>
<pdfrwt beam="1">  1        1 0.32595674E+00 0.65620710E+03</pdfrwt>
<pdfrwt beam="2">  1       -2 0.45464444E-01 0.65620710E+03</pdfrwt>
<totfact> 0.10559808E+01</totfact>
</mgrwt>
</event>
<event>
12    3  0.1176505E-007  0.3183585E+03  0.7818608E-02  0.1076407E+00
          1   -1    0    0  501    0  0.00000000000E+00  0.00000000000E+00  0.24355545037E+03  0.24355545037E+03  0.00000000000E+00 0. -1.
         -2   -1    0    0    0  501 -0.00000000000E+00 -0.00000000000E+00 -0.10008473246E+04  0.10008473246E+04  0.00000000000E+00 0.  1.
        -24    2    1    2    0    0  0.14934711780E+03  0.15531349755E+03 -0.51147615849E+03  0.56100068450E+03  0.81774465425E+02 0.  0.
    5000000    2    1    2    0    0 -0.14934711780E+03 -0.15531349755E+03 -0.24581571577E+03  0.68340209050E+03  0.60015515249E+03 0.  0.
        -24    2    4    4    0    0 -0.14519412184E+03  0.73917988600E+02 -0.36911214046E+03  0.41095023620E+03  0.78045642689E+02 0.  0.
         24    2    4    4    0    0 -0.41529959610E+01 -0.22923148615E+03  0.12329642469E+03  0.27245185429E+03  0.80397033211E+02 0.  0.
         13    1    5    5    0    0 -0.81574897428E+02  0.57194447536E+02 -0.29737154437E+03  0.31361681097E+03  0.00000000000E+00 0. -1.
        -14    1    5    5    0    0 -0.63619224413E+02  0.16723541064E+02 -0.71740596091E+02  0.97333425236E+02  0.00000000000E+00 0.  1.
         15    1    3    3    0    0  0.61641218843E+02  0.15112063406E+02 -0.17304752868E+03  0.18432747824E+03  0.17770000000E+01 0. -1.
        -16    1    3    3    0    0  0.87705898960E+02  0.14020143414E+03 -0.33842862980E+03  0.37667320626E+03  0.00000000000E+00 0.  1.
          4    1    6    6  502    0  0.31847774412E+02 -0.47559790518E+02  0.36776505125E+02  0.68034739203E+02  0.00000000000E+00 0. -1.
         -3    1    6    6    0  502 -0.36000770373E+02 -0.18167169563E+03  0.86519919568E+02  0.20441711509E+03  0.00000000000E+00 0.  1.
<mgrwt>
<rscale>  0 0.31835848E+03</rscale>
<asrwt>0</asrwt>
<pdfrwt beam="1">  1        1 0.37470069E-01 0.31835848E+03</pdfrwt>
<pdfrwt beam="2">  1       -2 0.15397651E+00 0.31835848E+03</pdfrwt>
<totfact> 0.29753934E+01</totfact>
</mgrwt>
</event>
<event>
12    3  0.1176505E-007  0.5680844E+03  0.7818608E-02  0.9973927E-01
         -2   -1    0    0    0  501 -0.00000000000E+00  0.00000000000E+00  0.42891906723E+03  0.42891906723E+03  0.00000000000E+00 0.  1.
          1   -1    0    0  501    0  0.00000000000E+00 -0.00000000000E+00 -0.80967761820E+03  0.80967761820E+03  0.00000000000E+00 0. -1.
        -24    2    1    2    0    0  0.24176906686E+03  0.33336119470E+03 -0.27999327110E+03  0.50393072120E+03  0.77252651007E+02 0.  0.
    5000000    2    1    2    0    0 -0.24176906686E+03 -0.33336119470E+03 -0.10076527987E+03  0.73466596423E+03  0.59999872463E+03 0.  0.
        -24    2    4    4    0    0  0.17400920797E+03 -0.19709714885E+03 -0.83870613363E+02  0.28971394084E+03  0.88166871243E+02 0.  0.
         24    2    4    4    0    0 -0.41577827483E+03 -0.13626404584E+03 -0.16894666503E+02  0.44495202339E+03  0.79103788486E+02 0.  0.
         11    1    5    5    0    0  0.17645565175E+03 -0.20362975763E+03 -0.85233274612E+02  0.28260641593E+03  0.00000000000E+00 0. -1.
        -12    1    5    5    0    0 -0.24464437827E+01  0.65326087723E+01  0.13626612495E+01  0.71075249022E+01  0.00000000000E+00 0.  1.
         15    1    3    3    0    0  0.57181077006E+02  0.14161392991E+03 -0.10731344343E+03  0.18666417327E+03  0.17770000000E+01 0. -1.
        -16    1    3    3    0    0  0.18458798986E+03  0.19174726478E+03 -0.17267982766E+03  0.31726654793E+03  0.00000000000E+00 0.  1.
          4    1    6    6  502    0 -0.20998891674E+03 -0.97189870298E+02 -0.37755262200E+02  0.23444972993E+03  0.00000000000E+00 0. -1.
         -3    1    6    6    0  502 -0.20578935810E+03 -0.39074175546E+02  0.20860595697E+02  0.21050229346E+03  0.00000000000E+00 0.  1.
<mgrwt>
<rscale>  0 0.56808439E+03</rscale>
<asrwt>0</asrwt>
<pdfrwt beam="1">  1        1 0.12456579E+00 0.56808439E+03</pdfrwt>
<pdfrwt beam="2">  1       -2 0.65987549E-01 0.56808439E+03</pdfrwt>
<totfact> 0.41689598E+01</totfact>
</mgrwt>
</event>
<event>
12    3  0.1176505E-007  0.4869628E+03  0.7818608E-02  0.1017239E+00
          1   -1    0    0  501    0  0.00000000000E+00  0.00000000000E+00  0.72984412639E+03  0.72984412639E+03  0.00000000000E+00 0. -1.
         -2   -1    0    0    0  501 -0.00000000000E+00 -0.00000000000E+00 -0.37050226003E+03  0.37050226003E+03  0.00000000000E+00 0.  1.
        -24    2    1    2    0    0 -0.29824571767E+03 -0.33868760229E+02 -0.48812683032E+02  0.31508413872E+03  0.82448380333E+02 0.  0.
    5000000    2    1    2    0    0  0.29824571767E+03  0.33868760229E+02  0.40815454939E+03  0.78526224770E+03  0.59995754887E+03 0.  0.
        -24    2    4    4    0    0 -0.16231517610E+03 -0.64909204157E+02  0.11469931468E+03  0.22404810561E+03  0.80512108794E+02 0.  0.
         24    2    4    4    0    0  0.46056089378E+03  0.98777964386E+02  0.29345523471E+03  0.56121414209E+03  0.83497996258E+02 0.  0.
         13    1    5    5    0    0 -0.60827092403E+02  0.10580842201E+02  0.16470097632E+02  0.63899557963E+02  0.00000000000E+00 0. -1.
        -14    1    5    5    0    0 -0.10148808370E+03 -0.75490046358E+02  0.98229217045E+02  0.16014854765E+03  0.00000000000E+00 0.  1.
         15    1    3    3    0    0 -0.20892760475E+03 -0.60377725719E+02 -0.43296717934E+02  0.22175206268E+03  0.17770000000E+01 0. -1.
        -16    1    3    3    0    0 -0.89318112926E+02  0.26508965490E+02 -0.55159650988E+01  0.93332076045E+02  0.00000000000E+00 0.  1.
          2    1    6    6  502    0  0.82567451639E+02  0.42574084397E+02  0.84956829078E+02  0.12588724931E+03  0.00000000000E+00 0. -1.
         -1    1    6    6    0  502  0.37799344214E+03  0.56203879989E+02  0.20849840563E+03  0.43532689278E+03  0.00000000000E+00 0.  1.
<mgrwt>
<rscale>  0 0.48696282E+03</rscale>
<asrwt>0</asrwt>
<pdfrwt beam="1">  1        1 0.11228371E+00 0.48696282E+03</pdfrwt>
<pdfrwt beam="2">  1       -2 0.57000348E-01 0.48696282E+03</pdfrwt>
<totfact> 0.67316480E+01</totfact>
</mgrwt>
</event>
<event>
12    3  0.1176505E-007  0.7713333E+03  0.7818608E-02  0.9602464E-01
         -2   -1    0    0    0  501 -0.00000000000E+00  0.00000000000E+00  0.37225517584E+03  0.37225517584E+03  0.00000000000E+00 0.  1.
          1   -1    0    0  501    0  0.00000000000E+00 -0.00000000000E+00 -0.21693466909E+04  0.21693466909E+04  0.00000000000E+00 0. -1.
        -24    2    1    2    0    0 -0.74412513906E+03 -0.68484426213E+02 -0.11894665884E+04  0.14068884999E+04  0.78052207391E+02 0.  0.
    5000000    2    1    2    0    0  0.74412513906E+03  0.68484426213E+02 -0.60762492671E+03  0.11347133669E+04  0.59996169391E+03 0.  0.
        -24    2    4    4    0    0  0.45322264242E+02  0.17260436273E+02 -0.38146468462E+03  0.39276739749E+03  0.79993078622E+02 0.  0.
         24    2    4    4    0    0  0.69880287482E+03  0.51223989941E+02 -0.22616024210E+03  0.74194596937E+03  0.91575167825E+02 0.  0.
         11    1    5    5    0    0  0.60086029958E+02  0.34975241877E+02 -0.30887295355E+03  0.31660085277E+03  0.00000000000E+00 0. -1.
        -12    1    5    5    0    0 -0.14763765715E+02 -0.17714805604E+02 -0.72591731066E+02  0.76166544722E+02  0.00000000000E+00 0.  1.
         15    1    3    3    0    0 -0.35962563179E+03 -0.59969762456E+01 -0.51850622094E+03  0.63104549571E+03  0.17770000000E+01 0. -1.
        -16    1    3    3    0    0 -0.38449950727E+03 -0.62487449968E+02 -0.67096036745E+03  0.77584300421E+03  0.00000000000E+00 0.  1.
          2    1    6    6  502    0  0.39322380764E+03  0.20917461151E+02 -0.17382931554E+03  0.43044062775E+03  0.00000000000E+00 0. -1.
         -1    1    6    6    0  502  0.30557906718E+03  0.30306528790E+02 -0.52330926554E+02  0.31150534162E+03  0.00000000000E+00 0.  1.
<mgrwt>
<rscale>  0 0.77133329E+03</rscale>
<asrwt>0</asrwt>
<pdfrwt beam="1">  1        1 0.33374565E+00 0.77133329E+03</pdfrwt>
<pdfrwt beam="2">  1       -2 0.57270026E-01 0.77133329E+03</pdfrwt>
<totfact> 0.59814461E+00</totfact>
</mgrwt>
</event>
<event>
12    3  0.1176505E-007  0.2700747E+03  0.7818608E-02  0.1101237E+00
         -2   -1    0    0    0  501 -0.00000000000E+00  0.00000000000E+00  0.23590717101E+03  0.23590717101E+03  0.00000000000E+00 0.  1.
          1   -1    0    0  501    0  0.00000000000E+00 -0.00000000000E+00 -0.11214506738E+04  0.11214506738E+04  0.00000000000E+00 0. -1.
        -24    2    1    2    0    0  0.14524915018E+03  0.14881345894E+03 -0.63820188919E+03  0.67592396078E+03  0.79553681241E+02 0.  0.
    5000000    2    1    2    0    0 -0.14524915018E+03 -0.14881345894E+03 -0.24734161364E+03  0.68143388407E+03  0.59994291673E+03 0.  0.
        -24    2    4    4    0    0 -0.13346337657E+03 -0.61671686196E+01 -0.41670504270E+03  0.44524890955E+03  0.82176590308E+02 0.  0.
         24    2    4    4    0    0 -0.11785773610E+02 -0.14264629032E+03  0.16936342906E+03  0.23618497452E+03  0.81317295109E+02 0.  0.
         11    1    5    5    0    0 -0.17928500291E+02 -0.32774084594E+02 -0.12194346099E+03  0.12753736481E+03  0.00000000000E+00 0. -1.
        -12    1    5    5    0    0 -0.11553487628E+03  0.26606915975E+02 -0.29476158171E+03  0.31771154475E+03  0.00000000000E+00 0.  1.
         15    1    3    3    0    0  0.39232550787E+02  0.92911694791E+02 -0.33630109655E+03  0.35110306370E+03  0.17770000000E+01 0. -1.
        -16    1    3    3    0    0  0.10601659939E+03  0.55901764149E+02 -0.30190079264E+03  0.32482089708E+03  0.00000000000E+00 0.  1.
          4    1    6    6  502    0  0.33310270426E+02 -0.76678793398E+02  0.10024908752E+03  0.13053386925E+03  0.00000000000E+00 0. -1.
         -3    1    6    6    0  502 -0.45096044036E+02 -0.65967496922E+02  0.69114341538E+02  0.10565110527E+03  0.00000000000E+00 0.  1.
<mgrwt>
<rscale>  0 0.27007465E+03</rscale>
<asrwt>0</asrwt>
<pdfrwt beam="1">  1        1 0.17253087E+00 0.27007465E+03</pdfrwt>
<pdfrwt beam="2">  1       -2 0.36293411E-01 0.27007465E+03</pdfrwt>
<totfact> 0.83125697E+01</totfact>
</mgrwt>
</event>
<event>
12    3  0.1176505E-007  0.4040182E+03  0.7818608E-02  0.1042397E+00
          1   -1    0    0  501    0  0.00000000000E+00  0.00000000000E+00  0.23655825326E+03  0.23655825326E+03  0.00000000000E+00 0. -1.
         -2   -1    0    0    0  501 -0.00000000000E+00 -0.00000000000E+00 -0.18885650589E+04  0.18885650589E+04  0.00000000000E+00 0.  1.
        -24    2    1    2    0    0 -0.80927247989E+02 -0.19669599160E+03  0.10967918799E+03  0.25193021713E+03  0.78745015379E+02 0.  0.
    5000000    2    1    2    0    0  0.80927247989E+02  0.19669599160E+03 -0.17616859936E+04  0.18731930950E+04  0.60006357872E+03 0.  0.
        -24    2    4    4    0    0 -0.84981555253E+02 -0.16713546673E+03 -0.86459469876E+03  0.88808717867E+03  0.77580376562E+02 0.  0.
         24    2    4    4    0    0  0.16590880324E+03  0.36383145834E+03 -0.89709129484E+03  0.98510591632E+03  0.75906613820E+02 0.  0.
         13    1    5    5    0    0 -0.68674318192E+02 -0.10406135397E+03 -0.70093462497E+03  0.71193698868E+03  0.00000000000E+00 0. -1.
        -14    1    5    5    0    0 -0.16307237062E+02 -0.63074112770E+02 -0.16366007379E+03  0.17615019000E+03  0.00000000000E+00 0.  1.
         15    1    3    3    0    0 -0.17527038827E+02 -0.10731424289E+03  0.88743381798E+02  0.14036413131E+03  0.17770000000E+01 0. -1.
        -16    1    3    3    0    0 -0.63400209161E+02 -0.89381748714E+02  0.20935806195E+02  0.11156608582E+03  0.00000000000E+00 0.  1.
          2    1    6    6  502    0  0.65321776695E+02  0.14400763032E+03 -0.44791292365E+03  0.47500644130E+03  0.00000000000E+00 0. -1.
         -1    1    6    6    0  502  0.10058702655E+03  0.21982382801E+03 -0.44917837119E+03  0.51009947502E+03  0.00000000000E+00 0.  1.
<mgrwt>
<rscale>  0 0.40401823E+03</rscale>
<asrwt>0</asrwt>
<pdfrwt beam="1">  1        1 0.36393578E-01 0.40401823E+03</pdfrwt>
<pdfrwt beam="2">  1       -2 0.29054847E+00 0.40401823E+03</pdfrwt>
<totfact> 0.41880074E+00</totfact>
</mgrwt>
</event>
<event>
12    3  0.1176505E-007  0.1921840E+04  0.7818608E-02  0.8644061E-01
         -2   -1    0    0    0  501 -0.00000000000E+00  0.00000000000E+00  0.21600504895E+04  0.21600504895E+04  0.00000000000E+00 0.  1.
          1   -1    0    0  501    0  0.00000000000E+00 -0.00000000000E+00 -0.17503913507E+04  0.17503913507E+04  0.00000000000E+00 0. -1.
        -24    2    1    2    0    0 -0.10931861773E+04  0.15505524094E+04  0.20650914599E+03  0.19102006784E+04  0.83377526084E+02 0.  0.
    5000000    2    1    2    0    0  0.10931861773E+04 -0.15505524094E+04  0.20314999285E+03  0.20002411619E+04  0.60035488979E+03 0.  0.
        -24    2    4    4    0    0  0.97783000413E+03 -0.15379865884E+04  0.26835378107E+03  0.18438761098E+04  0.79442391025E+02 0.  0.
         24    2    4    4    0    0  0.11535617316E+03 -0.12565820960E+02 -0.65203788219E+02  0.15636505206E+03  0.82058204733E+02 0.  0.
         13    1    5    5    0    0  0.24007706229E+03 -0.32821559746E+03  0.39904042913E+02  0.40860103634E+03  0.00000000000E+00 0. -1.
        -14    1    5    5    0    0  0.73775294184E+03 -0.12097709909E+04  0.22844973816E+03  0.14352750735E+04  0.00000000000E+00 0.  1.
         15    1    3    3    0    0 -0.41773459563E+03  0.66171842168E+03  0.75469112654E+02  0.78617568435E+03  0.17770000000E+01 0. -1.
        -16    1    3    3    0    0 -0.67545158166E+03  0.88883398768E+03  0.13104003334E+03  0.11240249940E+04  0.00000000000E+00 0.  1.
          4    1    6    6  502    0  0.85476338951E+02 -0.24585843086E+02 -0.81174485574E+02  0.12041580174E+03  0.00000000000E+00 0. -1.
         -3    1    6    6    0  502  0.29879834212E+02  0.12020022126E+02  0.15970697354E+02  0.35949250318E+02  0.00000000000E+00 0.  1.
<mgrwt>
<rscale>  0 0.19218398E+04</rscale>
<asrwt>0</asrwt>
<pdfrwt beam="1">  1        1 0.26929098E+00 0.19218398E+04</pdfrwt>
<pdfrwt beam="2">  1       -2 0.33231546E+00 0.19218398E+04</pdfrwt>
<totfact> 0.69724359E-02</totfact>
</mgrwt>
</event>
<event>
12    3  0.1176505E-007  0.7264791E+03  0.7818608E-02  0.9672991E-01
         -2   -1    0    0    0  501 -0.00000000000E+00  0.00000000000E+00  0.52150659249E+03  0.52150659249E+03  0.00000000000E+00 0.  1.
          1   -1    0    0  501    0  0.00000000000E+00 -0.00000000000E+00 -0.13725540808E+04  0.13725540808E+04  0.00000000000E+00 0. -1.
        -24    2    1    2    0    0  0.56365563837E+03  0.44148060661E+03 -0.17474269545E+03  0.74085263762E+03  0.75596404434E+02 0.  0.
    5000000    2    1    2    0    0 -0.56365563837E+03 -0.44148060661E+03 -0.67630479284E+03  0.11532080356E+04  0.59990648935E+03 0.  0.
        -24    2    4    4    0    0 -0.43190409609E+03 -0.33606553998E+03 -0.76769500699E+03  0.94594297004E+03  0.77274080036E+02 0.  0.
         24    2    4    4    0    0 -0.13175154229E+03 -0.10541506663E+03  0.91390214149E+02  0.20726506560E+03  0.78331545415E+02 0.  0.
         11    1    5    5    0    0 -0.17477961262E+03 -0.17980002626E+03 -0.37799733935E+03  0.45360550149E+03  0.00000000000E+00 0. -1.
        -12    1    5    5    0    0 -0.25712448347E+03 -0.15626551372E+03 -0.38969766763E+03  0.49233746855E+03  0.00000000000E+00 0.  1.
         15    1    3    3    0    0  0.44595788453E+03  0.31276846784E+03 -0.11700193522E+03  0.55713118726E+03  0.17770000000E+01 0. -1.
        -16    1    3    3    0    0  0.11769775385E+03  0.12871213877E+03 -0.57740760229E+02  0.18372145035E+03  0.00000000000E+00 0.  1.
          4    1    6    6  502    0  0.13946364237E+01 -0.28306337246E+02  0.30927974186E+02  0.41949175514E+02  0.00000000000E+00 0. -1.
         -3    1    6    6    0  502 -0.13314617871E+03 -0.77108729385E+02  0.60462239962E+02  0.16531589008E+03  0.00000000000E+00 0.  1.
<mgrwt>
<rscale>  0 0.72647912E+03</rscale>
<asrwt>0</asrwt>
<pdfrwt beam="1">  1        1 0.21116216E+00 0.72647912E+03</pdfrwt>
<pdfrwt beam="2">  1       -2 0.80231784E-01 0.72647912E+03</pdfrwt>
<totfact> 0.99996028E+00</totfact>
</mgrwt>
</event>
<event>
12    3  0.1176505E-007  0.1384498E+04  0.7818608E-02  0.8965117E-01
          1   -1    0    0  501    0  0.00000000000E+00  0.00000000000E+00  0.21515589765E+04  0.21515589765E+04  0.00000000000E+00 0. -1.
         -2   -1    0    0    0  501 -0.00000000000E+00 -0.00000000000E+00 -0.12543355991E+04  0.12543355991E+04  0.00000000000E+00 0.  1.
        -24    2    1    2    0    0 -0.13714992641E+04 -0.12138361239E+03  0.12517999293E+04  0.18624822508E+04  0.78056765042E+02 0.  0.
    5000000    2    1    2    0    0  0.13714992641E+04  0.12138361239E+03 -0.35457655198E+03  0.15434123249E+04  0.60054380393E+03 0.  0.
        -24    2    4    4    0    0  0.68364970027E+03  0.14593837971E+03 -0.46277383999E+03  0.84200955854E+03  0.78393535128E+02 0.  0.
         24    2    4    4    0    0  0.68784956386E+03 -0.24554767326E+02  0.10819728801E+03  0.70140276631E+03  0.80741738646E+02 0.  0.
         11    1    5    5    0    0  0.52335302350E+03  0.10785115575E+03 -0.39187375420E+03  0.66264266255E+03  0.00000000000E+00 0. -1.
        -12    1    5    5    0    0  0.16029667677E+03  0.38087223962E+02 -0.70900085783E+02  0.17936689599E+03  0.00000000000E+00 0.  1.
         15    1    3    3    0    0 -0.32616208664E+03 -0.36875955857E+02  0.25580753809E+03  0.41615165163E+03  0.17770000000E+01 0. -1.
        -16    1    3    3    0    0 -0.10453371775E+04 -0.84507656530E+02  0.99599239125E+03  0.14463305992E+04  0.00000000000E+00 0.  1.
          4    1    6    6  502    0  0.86749944521E+01  0.95022802233E+01  0.37383549243E+01  0.13398662460E+02  0.00000000000E+00 0. -1.
         -3    1    6    6    0  502  0.67917456941E+03 -0.34057047549E+02  0.10445893308E+03  0.68800410385E+03  0.00000000000E+00 0.  1.
<mgrwt>
<rscale>  0 0.13844983E+04</rscale>
<asrwt>0</asrwt>
<pdfrwt beam="1">  1        1 0.33100907E+00 0.13844983E+04</pdfrwt>
<pdfrwt beam="2">  1       -2 0.19297471E+00 0.13844983E+04</pdfrwt>
<totfact> 0.29128405E-01</totfact>
</mgrwt>
</event>
<event>
12    3  0.1176505E-007  0.6733434E+03  0.7818608E-02  0.9763937E-01
         -2   -1    0    0    0  501 -0.00000000000E+00  0.00000000000E+00  0.38128859836E+03  0.38128859836E+03  0.00000000000E+00 0.  1.
          1   -1    0    0  501    0  0.00000000000E+00 -0.00000000000E+00 -0.16123185466E+04  0.16123185466E+04  0.00000000000E+00 0. -1.
        -24    2    1    2    0    0 -0.27924494704E+03  0.56356223927E+03 -0.80732798329E+03  0.10265651221E+04  0.80481919837E+02 0.  0.
    5000000    2    1    2    0    0  0.27924494704E+03 -0.56356223927E+03 -0.42370196498E+03  0.96704202284E+03  0.60005564811E+03 0.  0.
        -24    2    4    4    0    0  0.34079127222E+03 -0.50148928356E+03 -0.52971465941E+03  0.80920984448E+03  0.81195808171E+02 0.  0.
         24    2    4    4    0    0 -0.61546325179E+02 -0.62072955711E+02  0.10601269444E+03  0.15783217836E+03  0.77661465149E+02 0.  0.
         13    1    5    5    0    0  0.24801357278E+03 -0.42191606685E+03 -0.41800892172E+03  0.64362672287E+03  0.00000000000E+00 0. -1.
        -14    1    5    5    0    0  0.92777699439E+02 -0.79573216706E+02 -0.11170573769E+03  0.16558312161E+03  0.00000000000E+00 0.  1.
         15    1    3    3    0    0 -0.23519063768E+03  0.52479497484E+03 -0.72297403576E+03  0.92380680652E+03  0.17770000000E+01 0. -1.
        -16    1    3    3    0    0 -0.44054309365E+02  0.38767264425E+02 -0.84353947535E+02  0.10275831562E+03  0.00000000000E+00 0.  1.
          2    1    6    6  502    0 -0.21863506399E+02  0.58296087926E+01 -0.36116241325E+01  0.22913774888E+02  0.00000000000E+00 0. -1.
         -1    1    6    6    0  502 -0.39682818779E+02 -0.67902564504E+02  0.10962431857E+03  0.13491840347E+03  0.00000000000E+00 0.  1.
<mgrwt>
<rscale>  0 0.67334336E+03</rscale>
<asrwt>0</asrwt>
<pdfrwt beam="1">  1        1 0.24804901E+00 0.67334336E+03</pdfrwt>
<pdfrwt beam="2">  1       -2 0.58659784E-01 0.67334336E+03</pdfrwt>
<totfact> 0.13630294E+01</totfact>
</mgrwt>
</event>
<event>
12    3  0.1176505E-007  0.2174243E+03  0.7818608E-02  0.1135818E+00
          1   -1    0    0  501    0  0.00000000000E+00  0.00000000000E+00  0.14646398866E+04  0.14646398866E+04  0.00000000000E+00 0. -1.
         -2   -1    0    0    0  501 -0.00000000000E+00 -0.00000000000E+00 -0.12814911157E+03  0.12814911157E+03  0.00000000000E+00 0.  1.
        -24    2    1    2    0    0 -0.25574364391E+02 -0.96505413672E+02  0.70303950719E+03  0.71479663612E+03  0.81867816391E+02 0.  0.
    5000000    2    1    2    0    0  0.25574364391E+02  0.96505413672E+02  0.63345126779E+03  0.87799236200E+03  0.59970220617E+03 0.  0.
        -24    2    4    4    0    0 -0.36336873866E+02 -0.98281013673E+02  0.64665347653E+03  0.65984738723E+03  0.79109605439E+02 0.  0.
         24    2    4    4    0    0  0.61911238257E+02  0.19478642735E+03 -0.13202208740E+02  0.21814497478E+03  0.75087801964E+02 0.  0.
         13    1    5    5    0    0 -0.59422676361E+02 -0.64792083666E+02  0.49940558784E+03  0.50708481513E+03  0.00000000000E+00 0. -1.
        -14    1    5    5    0    0  0.23085802495E+02 -0.33488930007E+02  0.14724788870E+03  0.15276257210E+03  0.00000000000E+00 0.  1.
         15    1    3    3    0    0 -0.19493908453E+02 -0.72580207535E+02  0.66634156477E+03  0.67056851825E+03  0.17770000000E+01 0. -1.
        -16    1    3    3    0    0 -0.60804559385E+01 -0.23925206136E+02  0.36697942418E+02  0.44228117875E+02  0.00000000000E+00 0.  1.
          4    1    6    6  502    0  0.35810400531E+02  0.15296792844E+03  0.20491991695E+02  0.15843450899E+03  0.00000000000E+00 0. -1.
         -3    1    6    6    0  502  0.26100837726E+02  0.41818498908E+02 -0.33694200435E+02  0.59710465781E+02  0.00000000000E+00 0.  1.
<mgrwt>
<rscale>  0 0.21742432E+03</rscale>
<asrwt>0</asrwt>
<pdfrwt beam="1">  1        1 0.22532920E+00 0.21742432E+03</pdfrwt>
<pdfrwt beam="2">  1       -2 0.19715249E-01 0.21742432E+03</pdfrwt>
<totfact> 0.14594948E+02</totfact>
</mgrwt>
</event>
<event>
12    3  0.1176505E-007  0.5787809E+03  0.7818608E-02  0.9950434E-01
         -2   -1    0    0    0  501 -0.00000000000E+00  0.00000000000E+00  0.21610082075E+04  0.21610082075E+04  0.00000000000E+00 0.  1.
          1   -1    0    0  501    0  0.00000000000E+00 -0.00000000000E+00 -0.16447171051E+03  0.16447171051E+03  0.00000000000E+00 0. -1.
        -24    2    1    2    0    0 -0.36200614581E+03 -0.22795062137E+03  0.92545263850E+03  0.10255532522E+04  0.11084652234E+03 0.  0.
    5000000    2    1    2    0    0  0.36200614581E+03  0.22795062137E+03  0.10710838585E+04  0.12999266658E+04  0.59964887167E+03 0.  0.
        -24    2    4    4    0    0  0.35335737410E+03 -0.11123075900E+03  0.65897278978E+03  0.76016757351E+03  0.79849148783E+02 0.  0.
         24    2    4    4    0    0  0.86487717105E+01  0.33918138037E+03  0.41211106870E+03  0.53975909234E+03  0.79909541220E+02 0.  0.
         11    1    5    5    0    0  0.27329898241E+03 -0.11678306298E+03  0.48963991522E+03  0.57278081686E+03  0.00000000000E+00 0. -1.
        -12    1    5    5    0    0  0.80058391688E+02  0.55523039842E+01  0.16933287457E+03  0.18738675665E+03  0.00000000000E+00 0.  1.
         15    1    3    3    0    0 -0.24586160031E+03 -0.19320305798E+03  0.57205080479E+03  0.65193606213E+03  0.17770000000E+01 0. -1.
        -16    1    3    3    0    0 -0.11614454550E+03 -0.34747563388E+02  0.35340183371E+03  0.37361719002E+03  0.00000000000E+00 0.  1.
          2    1    6    6  502    0 -0.10431407796E+02  0.31592903807E+03  0.39202371701E+03  0.50358968026E+03  0.00000000000E+00 0. -1.
         -1    1    6    6    0  502  0.19080179506E+02  0.23252342296E+02  0.20087351685E+02  0.36169412077E+02  0.00000000000E+00 0.  1.
<mgrwt>
<rscale>  0 0.57878087E+03</rscale>
<asrwt>0</asrwt>
<pdfrwt beam="1">  1        1 0.25303342E-01 0.57878087E+03</pdfrwt>
<pdfrwt beam="2">  1       -2 0.33246278E+00 0.57878087E+03</pdfrwt>
<totfact> 0.36190260E+00</totfact>
</mgrwt>
</event>
<event>
12    3  0.1176505E-007  0.7290789E+03  0.7818608E-02  0.9668756E-01
          1   -1    0    0  501    0  0.00000000000E+00  0.00000000000E+00  0.19806661284E+04  0.19806661284E+04  0.00000000000E+00 0. -1.
         -2   -1    0    0    0  501 -0.00000000000E+00 -0.00000000000E+00 -0.58871459392E+03  0.58871459392E+03  0.00000000000E+00 0.  1.
        -24    2    1    2    0    0 -0.18149209707E+03 -0.69282471062E+03  0.14645453487E+04  0.16322701811E+04  0.80420174978E+02 0.  0.
    5000000    2    1    2    0    0  0.18149209707E+03  0.69282471062E+03 -0.72593814223E+02  0.93711054128E+03  0.59996736893E+03 0.  0.
        -24    2    4    4    0    0  0.13327138266E+03  0.22252251919E+03 -0.30191906230E+03  0.40563271686E+03  0.78136085281E+02 0.  0.
         24    2    4    4    0    0  0.48220714415E+02  0.47030219143E+03  0.22932524808E+03  0.53147782443E+03  0.79807392462E+02 0.  0.
         11    1    5    5    0    0  0.55389912496E+02  0.48929474706E+02 -0.47175442796E+02  0.87679292334E+02  0.00000000000E+00 0. -1.
        -12    1    5    5    0    0  0.77881470161E+02  0.17359304448E+03 -0.25474361950E+03  0.31795342452E+03  0.00000000000E+00 0.  1.
         15    1    3    3    0    0 -0.50215887218E+02 -0.32106705934E+03  0.71392931095E+03  0.78441309951E+03  0.17770000000E+01 0. -1.
        -16    1    3    3    0    0 -0.13127620985E+03 -0.37175765128E+03  0.75061603779E+03  0.84785708155E+03  0.00000000000E+00 0.  1.
          4    1    6    6  502    0  0.11855896051E+02  0.31623978854E+03  0.11708302450E+03  0.33742643755E+03  0.00000000000E+00 0. -1.
         -3    1    6    6    0  502  0.36364818363E+02  0.15406240289E+03  0.11224222357E+03  0.19405138688E+03  0.00000000000E+00 0.  1.
<mgrwt>
<rscale>  0 0.72907888E+03</rscale>
<asrwt>0</asrwt>
<pdfrwt beam="1">  1        1 0.30471786E+00 0.72907888E+03</pdfrwt>
<pdfrwt beam="2">  1       -2 0.90571477E-01 0.72907888E+03</pdfrwt>
<totfact> 0.29412385E+00</totfact>
</mgrwt>
</event>
<event>
12    3  0.1176505E-007  0.4618291E+03  0.7818608E-02  0.1024252E+00
         -2   -1    0    0    0  501 -0.00000000000E+00  0.00000000000E+00  0.93558743545E+03  0.93558743545E+03  0.00000000000E+00 0.  1.
          1   -1    0    0  501    0  0.00000000000E+00 -0.00000000000E+00 -0.26077079840E+03  0.26077079840E+03  0.00000000000E+00 0. -1.
        -24    2    1    2    0    0 -0.22320841138E+03  0.13648624719E+03  0.40438439198E+03  0.48815886133E+03  0.79510042387E+02 0.  0.
    5000000    2    1    2    0    0  0.22320841138E+03 -0.13648624719E+03  0.27043224506E+03  0.70819937252E+03  0.59996855041E+03 0.  0.
        -24    2    4    4    0    0 -0.96726526707E+02  0.16344194979E+03  0.11409223535E+03  0.23553228940E+03  0.79932029024E+02 0.  0.
         24    2    4    4    0    0  0.31993493808E+03 -0.29992819697E+03  0.15634000971E+03  0.47266708312E+03  0.81588509483E+02 0.  0.
         13    1    5    5    0    0 -0.38293846681E+02  0.74042323236E+01  0.27770447745E+02  0.47879422698E+02  0.00000000000E+00 0. -1.
        -14    1    5    5    0    0 -0.58432680026E+02  0.15603771746E+03  0.86321787608E+02  0.18765286670E+03  0.00000000000E+00 0.  1.
         15    1    3    3    0    0 -0.12794741797E+03  0.12191712487E+03  0.27309980603E+03  0.32530138162E+03  0.17770000000E+01 0. -1.
        -16    1    3    3    0    0 -0.95260993412E+02  0.14569122318E+02  0.13128458595E+03  0.16285747971E+03  0.00000000000E+00 0.  1.
          2    1    6    6  502    0  0.14768943983E+03 -0.18976519484E+03  0.10127436595E+03  0.26092048024E+03  0.00000000000E+00 0. -1.
         -3    1    6    6    0  502  0.17224549825E+03 -0.11016300214E+03  0.55065643759E+02  0.21174660288E+03  0.00000000000E+00 0.  1.
<mgrwt>
<rscale>  0 0.46182909E+03</rscale>
<asrwt>0</asrwt>
<pdfrwt beam="1">  1        1 0.40118585E-01 0.46182909E+03</pdfrwt>
<pdfrwt beam="2">  1       -2 0.14393653E+00 0.46182909E+03</pdfrwt>
<totfact> 0.31929464E+01</totfact>
</mgrwt>
</event>
<event>
12    3  0.1845172E-007  0.1301745E+04  0.7818608E-02  0.9028182E-01
         -2   -1    0    0    0  501 -0.00000000000E+00  0.00000000000E+00  0.12468172603E+04  0.12468172603E+04  0.00000000000E+00 0.  1.
          1   -1    0    0  501    0  0.00000000000E+00 -0.00000000000E+00 -0.14950025900E+04  0.14950025900E+04  0.00000000000E+00 0. -1.
        -24    2    1    2    0    0 -0.73587798252E+03 -0.10684034329E+04 -0.16187460989E+03  0.13098332649E+04  0.80358520492E+02 0.  0.
    5000000    2    1    2    0    0  0.73587798252E+03  0.10684034329E+04 -0.86310719870E+02  0.14319865855E+04  0.60011143960E+03 0.  0.
        -24    2    4    4    0    0  0.52541229741E+03  0.63738069232E+03  0.21866210530E+03  0.85821279403E+03  0.80024085903E+02 0.  0.
         24    2    4    4    0    0  0.21046568511E+03  0.43102274059E+03 -0.30497282517E+03  0.57377379142E+03  0.78304100260E+02 0.  0.
         13    1    5    5    0    0  0.24484689141E+03  0.28301082786E+03  0.58980813694E+02  0.37884543723E+03  0.00000000000E+00 0. -1.
        -14    1    5    5    0    0  0.28056540600E+03  0.35436986446E+03  0.15968129161E+03  0.47936735680E+03  0.00000000000E+00 0.  1.
         15    1    3    3    0    0 -0.40904725414E+03 -0.58382215223E+03 -0.49054657601E+02  0.71454704444E+03  0.17770000000E+01 0. -1.
        -16    1    3    3    0    0 -0.32683072839E+03 -0.48458128067E+03 -0.11281995229E+03  0.59528622043E+03  0.00000000000E+00 0.  1.
          2    1    6    6  502    0  0.17318301030E+03  0.34036210427E+03 -0.20366166281E+03  0.43280109748E+03  0.00000000000E+00 0. -1.
         -1    1    6    6    0  502  0.37282674807E+02  0.90660636317E+02 -0.10131116237E+03  0.14097269394E+03  0.00000000000E+00 0.  1.
<mgrwt>
<rscale>  0 0.13017452E+04</rscale>
<asrwt>0</asrwt>
<pdfrwt beam="1">  1        1 0.23000040E+00 0.13017452E+04</pdfrwt>
<pdfrwt beam="2">  1       -2 0.19181804E+00 0.13017452E+04</pdfrwt>
<totfact> 0.83949093E-01</totfact>
</mgrwt>
</event>
<event>
12    3  0.1176505E-007  0.5891886E+03  0.7818608E-02  0.9928094E-01
          1   -1    0    0  501    0  0.00000000000E+00  0.00000000000E+00  0.16184469479E+04  0.16184469479E+04  0.00000000000E+00 0. -1.
         -2   -1    0    0    0  501 -0.00000000000E+00 -0.00000000000E+00 -0.31003562507E+03  0.31003562507E+03  0.00000000000E+00 0.  1.
        -24    2    1    2    0    0 -0.65073927856E+02 -0.44424272282E+03  0.43434652067E+02  0.45815248143E+03  0.80192982054E+02 0.  0.
    5000000    2    1    2    0    0  0.65073927856E+02  0.44424272282E+03  0.12649766708E+04  0.14703300915E+04  0.60009864826E+03 0.  0.
        -24    2    4    4    0    0 -0.15364387215E+02 -0.13267907359E+03  0.35639885784E+03  0.38821013641E+03  0.76466745526E+02 0.  0.
         24    2    4    4    0    0  0.80438315071E+02  0.57692179641E+03  0.90857781292E+03  0.10821199551E+04  0.78491231736E+02 0.  0.
         13    1    5    5    0    0 -0.23144057756E+02 -0.62105736884E+02  0.26103548132E+03  0.26931819930E+03  0.00000000000E+00 0. -1.
        -14    1    5    5    0    0  0.77796705404E+01 -0.70573336707E+02  0.95363376522E+02  0.11889193711E+03  0.00000000000E+00 0.  1.
         15    1    3    3    0    0 -0.58518839512E+02 -0.18573586600E+03  0.43586241783E+02  0.19956248320E+03  0.17770000000E+01 0. -1.
        -16    1    3    3    0    0 -0.65550883441E+01 -0.25850685682E+03 -0.15158971538E+00  0.25858999823E+03  0.00000000000E+00 0.  1.
          2    1    6    6  502    0  0.15951746812E+02  0.38436326880E+03  0.59633302527E+03  0.70964967249E+03  0.00000000000E+00 0. -1.
         -1    1    6    6    0  502  0.64486568259E+02  0.19255852762E+03  0.31224478765E+03  0.37247028265E+03  0.00000000000E+00 0.  1.
<mgrwt>
<rscale>  0 0.58918856E+03</rscale>
<asrwt>0</asrwt>
<pdfrwt beam="1">  1        1 0.24899183E+00 0.58918856E+03</pdfrwt>
<pdfrwt beam="2">  1       -2 0.47697789E-01 0.58918856E+03</pdfrwt>
<totfact> 0.20914955E+01</totfact>
</mgrwt>
</event>
<event>
12    3  0.1176505E-007  0.6223611E+03  0.7818608E-02  0.9860070E-01
         -2   -1    0    0    0  501 -0.00000000000E+00  0.00000000000E+00  0.78551040274E+03  0.78551040274E+03  0.00000000000E+00 0.  1.
          1   -1    0    0  501    0  0.00000000000E+00 -0.00000000000E+00 -0.60763815445E+03  0.60763815445E+03  0.00000000000E+00 0. -1.
        -24    2    1    2    0    0 -0.49680011589E+03 -0.25128067624E+03  0.96588597269E+02  0.57055342670E+03  0.79053919560E+02 0.  0.
    5000000    2    1    2    0    0  0.49680011589E+03  0.25128067624E+03  0.81283651021E+02  0.82259513049E+03  0.60008614664E+03 0.  0.
        -24    2    4    4    0    0  0.13212560331E+03  0.28330980332E+03  0.25342431470E+03  0.41037860048E+03  0.80405800454E+02 0.  0.
         24    2    4    4    0    0  0.36467451257E+03 -0.32029127074E+02 -0.17214066368E+03  0.41221653001E+03  0.79225591917E+02 0.  0.
         13    1    5    5    0    0  0.10761441517E+03  0.25119601072E+03  0.24905931253E+03  0.36974428909E+03  0.00000000000E+00 0. -1.
        -14    1    5    5    0    0  0.24511188140E+02  0.32113792593E+02  0.43650021772E+01  0.40634311397E+02  0.00000000000E+00 0.  1.
         15    1    3    3    0    0 -0.16387973572E+03 -0.95705712276E+02 -0.30339351405E+01  0.18981178475E+03  0.17770000000E+01 0. -1.
        -16    1    3    3    0    0 -0.33292038017E+03 -0.15557496397E+03  0.99622532410E+02  0.38074164194E+03  0.00000000000E+00 0.  1.
          2    1    6    6  502    0  0.19479938505E+03 -0.54864777992E+02 -0.10635301006E+03  0.22862175538E+03  0.00000000000E+00 0. -1.
         -1    1    6    6    0  502  0.16987512752E+03  0.22835650918E+02 -0.65787653620E+02  0.18359477463E+03  0.00000000000E+00 0.  1.
<mgrwt>
<rscale>  0 0.62236114E+03</rscale>
<asrwt>0</asrwt>
<pdfrwt beam="1">  1        1 0.93482793E-01 0.62236114E+03</pdfrwt>
<pdfrwt beam="2">  1       -2 0.12084775E+00 0.62236114E+03</pdfrwt>
<totfact> 0.15867515E+01</totfact>
</mgrwt>
</event>
<event>
12    3  0.1176505E-007  0.8222013E+03  0.7818608E-02  0.9528426E-01
         -2   -1    0    0    0  501 -0.00000000000E+00  0.00000000000E+00  0.18131529186E+04  0.18131529186E+04  0.00000000000E+00 0.  1.
          1   -1    0    0  501    0  0.00000000000E+00 -0.00000000000E+00 -0.64731741719E+03  0.64731741719E+03  0.00000000000E+00 0. -1.
        -24    2    1    2    0    0  0.23497634323E+03 -0.75404624812E+03  0.12321892615E+04  0.14661392519E+04  0.86454055576E+02 0.  0.
    5000000    2    1    2    0    0 -0.23497634323E+03  0.75404624812E+03 -0.66353760089E+02  0.99433108387E+03  0.60040974067E+03 0.  0.
        -24    2    4    4    0    0 -0.62854068108E+02  0.26754297196E+02 -0.20470592796E+03  0.23019573608E+03  0.80119496186E+02 0.  0.
         24    2    4    4    0    0 -0.17212227512E+03  0.72729195092E+03  0.13835216787E+03  0.76413534779E+03  0.78624728432E+02 0.  0.
         11    1    5    5    0    0  0.33023139083E+01  0.37584667130E+02 -0.84992642123E+02  0.92990653807E+02  0.00000000000E+00 0. -1.
        -12    1    5    5    0    0 -0.66156382016E+02 -0.10830369934E+02 -0.11971328584E+03  0.13720508227E+03  0.00000000000E+00 0.  1.
         15    1    3    3    0    0  0.59253305921E+02 -0.12205527887E+03  0.26118663194E+03  0.29432984863E+03  0.17770000000E+01 0. -1.
        -16    1    3    3    0    0  0.17572303731E+03 -0.63199096925E+03  0.97100262955E+03  0.11718094033E+04  0.00000000000E+00 0.  1.
          4    1    6    6  502    0 -0.72852223179E+02  0.37280154456E+03  0.33291026467E+02  0.38130923210E+03  0.00000000000E+00 0. -1.
         -3    1    6    6    0  502 -0.99270051941E+02  0.35449040636E+03  0.10506114141E+03  0.38282611569E+03  0.00000000000E+00 0.  1.
<mgrwt>
<rscale>  0 0.82220128E+03</rscale>
<asrwt>0</asrwt>
<pdfrwt beam="1">  1        1 0.99587296E-01 0.82220128E+03</pdfrwt>
<pdfrwt beam="2">  1       -2 0.27894660E+00 0.82220128E+03</pdfrwt>
<totfact> 0.11832882E+00</totfact>
</mgrwt>
</event>
<event>
12    3  0.1176505E-007  0.7815263E+03  0.7818608E-02  0.9587149E-01
          1   -1    0    0  501    0  0.00000000000E+00  0.00000000000E+00  0.39082471278E+03  0.39082471278E+03  0.00000000000E+00 0. -1.
         -2   -1    0    0    0  501 -0.00000000000E+00 -0.00000000000E+00 -0.16624516057E+04  0.16624516057E+04  0.00000000000E+00 0.  1.
        -24    2    1    2    0    0  0.66410357605E+03  0.13095440210E+03 -0.36725530872E+03  0.77418942985E+03  0.79436744336E+02 0.  0.
    5000000    2    1    2    0    0 -0.66410357605E+03 -0.13095440210E+03 -0.90437158417E+03  0.12790868886E+04  0.59999390928E+03 0.  0.
        -24    2    4    4    0    0 -0.45722163245E+02 -0.24348727802E+03 -0.35644616889E+03  0.44142196177E+03  0.80143036137E+02 0.  0.
         24    2    4    4    0    0 -0.61838141280E+03  0.11253287592E+03 -0.54792541528E+03  0.83766492683E+03  0.80006556407E+02 0.  0.
         13    1    5    5    0    0 -0.33517794494E+02 -0.24241012924E+03 -0.35130073989E+03  0.42813353426E+03  0.00000000000E+00 0. -1.
        -14    1    5    5    0    0 -0.12204368751E+02 -0.10771487796E+01 -0.51454290035E+01  0.13288427512E+02  0.00000000000E+00 0.  1.
         15    1    3    3    0    0  0.51457906279E+03  0.10981225060E+03 -0.24757851940E+03  0.58150547998E+03  0.17770000000E+01 0. -1.
        -16    1    3    3    0    0  0.14952451326E+03  0.21142151495E+02 -0.11967678932E+03  0.19268394987E+03  0.00000000000E+00 0.  1.
          2    1    6    6  502    0 -0.53504604210E+03  0.10477305511E+03 -0.43712393928E+03  0.69880540820E+03  0.00000000000E+00 0. -1.
         -1    1    6    6    0  502 -0.83335370705E+02  0.77598208089E+01 -0.11080147600E+03  0.13885951863E+03  0.00000000000E+00 0.  1.
<mgrwt>
<rscale>  0 0.78152625E+03</rscale>
<asrwt>0</asrwt>
<pdfrwt beam="1">  1        1 0.60126879E-01 0.78152625E+03</pdfrwt>
<pdfrwt beam="2">  1       -2 0.25576178E+00 0.78152625E+03</pdfrwt>
<totfact> 0.33029201E+00</totfact>
</mgrwt>
</event>
<event>
12    3  0.1176505E-007  0.1696532E+04  0.7818608E-02  0.8763345E-01
         -2   -1    0    0    0  501 -0.00000000000E+00  0.00000000000E+00  0.89198199572E+03  0.89198199572E+03  0.00000000000E+00 0.  1.
          1   -1    0    0  501    0  0.00000000000E+00 -0.00000000000E+00 -0.32656173081E+04  0.32656173081E+04  0.00000000000E+00 0. -1.
        -24    2    1    2    0    0 -0.16215226993E+04  0.27481888515E+03 -0.13507889176E+04  0.21300283259E+04  0.86767997769E+02 0.  0.
    5000000    2    1    2    0    0  0.16215226993E+04 -0.27481888515E+03 -0.10228463948E+04  0.20275709779E+04  0.59997336526E+03 0.  0.
        -24    2    4    4    0    0 -0.41033658578E+01 -0.73418632461E+02 -0.40968228606E+02  0.11610133950E+03  0.79962441658E+02 0.  0.
         24    2    4    4    0    0  0.16256260652E+04 -0.20140025269E+03 -0.98187816615E+03  0.19114696384E+04  0.80057977111E+02 0.  0.
         11    1    5    5    0    0  0.13734183340E+02  0.13751871496E+02 -0.45572708510E+01  0.19962727250E+02  0.00000000000E+00 0. -1.
        -12    1    5    5    0    0 -0.17837549198E+02 -0.87170503957E+02 -0.36410957755E+02  0.96138612254E+02  0.00000000000E+00 0.  1.
         15    1    3    3    0    0 -0.10533558511E+04  0.18324229769E+03 -0.93074334967E+03  0.14175410503E+04  0.17770000000E+01 0. -1.
        -16    1    3    3    0    0 -0.56816684821E+03  0.91576587454E+02 -0.42004556794E+03  0.71248727562E+03  0.00000000000E+00 0.  1.
          2    1    6    6  502    0  0.54282935740E+03 -0.29626425263E+02 -0.33139456439E+03  0.63668186219E+03  0.00000000000E+00 0. -1.
         -1    1    6    6    0  502  0.10827967078E+04 -0.17177382742E+03 -0.65048360176E+03  0.12747877762E+04  0.00000000000E+00 0.  1.
<mgrwt>
<rscale>  0 0.16965317E+04</rscale>
<asrwt>0</asrwt>
<pdfrwt beam="1">  1        1 0.50240267E+00 0.16965317E+04</pdfrwt>
<pdfrwt beam="2">  1       -2 0.13722800E+00 0.16965317E+04</pdfrwt>
<totfact> 0.11727555E-01</totfact>
</mgrwt>
</event>
<event>
12    3  0.1176505E-007  0.1504577E+04  0.7818608E-02  0.8881415E-01
          1   -1    0    0  501    0  0.00000000000E+00  0.00000000000E+00  0.29909816910E+04  0.29909816910E+04  0.00000000000E+00 0. -1.
         -2   -1    0    0    0  501 -0.00000000000E+00 -0.00000000000E+00 -0.80929605589E+03  0.80929605589E+03  0.00000000000E+00 0.  1.
        -24    2    1    2    0    0 -0.12850271723E+03  0.14902264687E+04  0.98013970689E+03  0.17900534691E+04  0.79559417232E+02 0.  0.
    5000000    2    1    2    0    0  0.12850271723E+03 -0.14902264687E+04  0.12015459282E+04  0.20102242778E+04  0.60000096103E+03 0.  0.
        -24    2    4    4    0    0 -0.38389983321E+02 -0.47030158915E+03  0.72641570860E+03  0.86991920974E+03  0.80139092771E+02 0.  0.
         24    2    4    4    0    0  0.16689270055E+03 -0.10199248795E+04  0.47513021963E+03  0.11403050681E+04  0.80293146183E+02 0.  0.
         11    1    5    5    0    0 -0.16259852449E+02 -0.43961967546E+03  0.65354482117E+03  0.78781385817E+03  0.00000000000E+00 0. -1.
        -12    1    5    5    0    0 -0.22130130872E+02 -0.30681913687E+02  0.72870887437E+02  0.82105351566E+02  0.00000000000E+00 0.  1.
         15    1    3    3    0    0 -0.47124194227E+02  0.98476656844E+03  0.64252232706E+03  0.11767854445E+04  0.17770000000E+01 0. -1.
        -16    1    3    3    0    0 -0.81378523005E+02  0.50545990024E+03  0.33761737983E+03  0.61326802454E+03  0.00000000000E+00 0.  1.
          2    1    6    6  502    0  0.14695296183E+03 -0.87627772453E+03  0.43797971177E+03  0.99059782527E+03  0.00000000000E+00 0. -1.
         -1    1    6    6    0  502  0.19939738722E+02 -0.14364715500E+03  0.37150507859E+02  0.14970724282E+03  0.00000000000E+00 0.  1.
<mgrwt>
<rscale>  0 0.15045766E+04</rscale>
<asrwt>0</asrwt>
<pdfrwt beam="1">  1        1 0.46015102E+00 0.15045766E+04</pdfrwt>
<pdfrwt beam="2">  1       -2 0.12450709E+00 0.15045766E+04</pdfrwt>
<totfact> 0.24552419E-01</totfact>
</mgrwt>
</event>
<event>
12    3  0.1176505E-007  0.8715308E+03  0.7818608E-02  0.9461886E-01
         -2   -1    0    0    0  501 -0.00000000000E+00  0.00000000000E+00  0.78082342570E+03  0.78082342570E+03  0.00000000000E+00 0.  1.
          1   -1    0    0  501    0  0.00000000000E+00 -0.00000000000E+00 -0.12129214693E+04  0.12129214693E+04  0.00000000000E+00 0. -1.
        -24    2    1    2    0    0 -0.73280151416E+03  0.30844041202E+03  0.18744189088E+03  0.82074509605E+03  0.79715138484E+02 0.  0.
    5000000    2    1    2    0    0  0.73280151416E+03 -0.30844041202E+03 -0.61953993445E+03  0.11729997989E+04  0.59997104174E+03 0.  0.
        -24    2    4    4    0    0  0.67981122549E+03 -0.43075967696E+03 -0.61926939704E+03  0.10177484026E+04  0.67970753425E+02 0.  0.
         24    2    4    4    0    0  0.52990288673E+02  0.12231926493E+03 -0.27053740918E+00  0.15525139629E+03  0.79579831570E+02 0.  0.
         13    1    5    5    0    0  0.50040767537E+03 -0.34140034344E+03 -0.49121726165E+03  0.77990796522E+03  0.00000000000E+00 0. -1.
        -14    1    5    5    0    0  0.17940355012E+03 -0.89359333518E+02 -0.12805213539E+03  0.23784043740E+03  0.00000000000E+00 0.  1.
         15    1    3    3    0    0 -0.94498097858E+02  0.48655097904E+02  0.52312180686E+02  0.11847755495E+03  0.17770000000E+01 0. -1.
        -16    1    3    3    0    0 -0.63830341630E+03  0.25978531412E+03  0.13512971020E+03  0.70226754109E+03  0.00000000000E+00 0.  1.
          2    1    6    6  502    0  0.27530310049E+02  0.10950189101E+03 -0.27089447374E+02  0.11611382460E+03  0.00000000000E+00 0. -1.
         -1    1    6    6    0  502  0.25459978624E+02  0.12817373928E+02  0.26818909964E+02  0.39137571688E+02  0.00000000000E+00 0.  1.
<mgrwt>
<rscale>  0 0.87153077E+03</rscale>
<asrwt>0</asrwt>
<pdfrwt beam="1">  1        1 0.18660330E+00 0.87153077E+03</pdfrwt>
<pdfrwt beam="2">  1       -2 0.12012668E+00 0.87153077E+03</pdfrwt>
<totfact> 0.49150473E+00</totfact>
</mgrwt>
</event>
<event>
12    3  0.1176505E-007  0.7172263E+03  0.7818608E-02  0.9688218E-01
         -2   -1    0    0    0  501 -0.00000000000E+00  0.00000000000E+00  0.35810207326E+03  0.35810207326E+03  0.00000000000E+00 0.  1.
          1   -1    0    0  501    0  0.00000000000E+00 -0.00000000000E+00 -0.21318916290E+04  0.21318916290E+04  0.00000000000E+00 0. -1.
        -24    2    1    2    0    0 -0.59225551904E+03  0.13766895359E+03 -0.11430415501E+03  0.62354871275E+03  0.77641591389E+02 0.  0.
    5000000    2    1    2    0    0  0.59225551904E+03 -0.13766895359E+03 -0.16594854007E+04  0.18664449895E+04  0.60000480243E+03 0.  0.
        -24    2    4    4    0    0  0.64652867901E+03  0.13713997777E+02 -0.10981809633E+04  0.12768235169E+04  0.78034984607E+02 0.  0.
         24    2    4    4    0    0 -0.54273159970E+02 -0.15138295137E+03 -0.56130443744E+03  0.58962147252E+03  0.82027041357E+02 0.  0.
         11    1    5    5    0    0  0.31857294579E+03  0.21526277502E+02 -0.47097286574E+03  0.56900574925E+03  0.00000000000E+00 0. -1.
        -12    1    5    5    0    0  0.32795573322E+03 -0.78122797251E+01 -0.62720809751E+03  0.70781776768E+03  0.00000000000E+00 0.  1.
         15    1    3    3    0    0 -0.46112387614E+03  0.13192672080E+03 -0.68319776369E+02  0.48446944009E+03  0.17770000000E+01 0. -1.
        -16    1    3    3    0    0 -0.13113164289E+03  0.57422327842E+01 -0.45984378636E+02  0.13907927266E+03  0.00000000000E+00 0.  1.
          2    1    6    6  502    0 -0.68517719330E+02 -0.89490729132E+02 -0.29369818097E+03  0.31458208780E+03  0.00000000000E+00 0. -1.
         -3    1    6    6    0  502  0.14244559360E+02 -0.61892222234E+02 -0.26760625647E+03  0.27503938472E+03  0.00000000000E+00 0.  1.
<mgrwt>
<rscale>  0 0.71722627E+03</rscale>
<asrwt>0</asrwt>
<pdfrwt beam="1">  1        1 0.32798333E+00 0.71722627E+03</pdfrwt>
<pdfrwt beam="2">  1       -2 0.55092626E-01 0.71722627E+03</pdfrwt>
<totfact> 0.69299178E+00</totfact>
</mgrwt>
</event>
<event>
12    3  0.1176505E-007  0.4346391E+03  0.7818608E-02  0.1032404E+00
          3   -1    0    0  501    0  0.00000000000E+00  0.00000000000E+00  0.11347266229E+04  0.11347266229E+04  0.00000000000E+00 0. -1.
         -4   -1    0    0    0  501 -0.00000000000E+00 -0.00000000000E+00 -0.20252422632E+03  0.20252422632E+03  0.00000000000E+00 0.  1.
        -24    2    1    2    0    0  0.12768650321E+03  0.23008038606E+03  0.13812061909E+03  0.30775680157E+03  0.79975723437E+02 0.  0.
    5000000    2    1    2    0    0 -0.12768650321E+03 -0.23008038606E+03  0.79408177746E+03  0.10294940476E+04  0.60004274651E+03 0.  0.
        -24    2    4    4    0    0  0.20735083133E+03 -0.12068138763E+03  0.51466607676E+03  0.57335190962E+03  0.79327656756E+02 0.  0.
         24    2    4    4    0    0 -0.33503733454E+03 -0.10939899843E+03  0.27941570070E+03  0.45614213800E+03  0.75989208888E+02 0.  0.
         13    1    5    5    0    0  0.17043423400E+03 -0.13021193807E+03  0.43177436162E+03  0.48211209929E+03  0.00000000000E+00 0. -1.
        -14    1    5    5    0    0  0.36916597329E+02  0.95305504310E+01  0.82891715144E+02  0.91239810332E+02  0.00000000000E+00 0.  1.
         15    1    3    3    0    0  0.48972618897E+02  0.69400823724E+02  0.56787869812E+01  0.85148095022E+02  0.17770000000E+01 0. -1.
        -16    1    3    3    0    0  0.78713884313E+02  0.16067956234E+03  0.13244183211E+03  0.22260870654E+03  0.00000000000E+00 0.  1.
          4    1    6    6  502    0 -0.11087191877E+03 -0.43905043085E+02  0.51741302125E+02  0.12998999010E+03  0.00000000000E+00 0. -1.
         -1    1    6    6    0  502 -0.22416541577E+03 -0.65493955345E+02  0.22767439857E+03  0.32615214790E+03  0.00000000000E+00 0.  1.
<mgrwt>
<rscale>  0 0.43463915E+03</rscale>
<asrwt>0</asrwt>
<pdfrwt beam="1">  1        3 0.17457332E+00 0.43463915E+03</pdfrwt>
<pdfrwt beam="2">  1       -4 0.31157574E-01 0.43463915E+03</pdfrwt>
<totfact> 0.49121764E+00</totfact>
</mgrwt>
</event>
<event>
12    3  0.1176505E-007  0.5234547E+03  0.7818608E-02  0.1007832E+00
         -2   -1    0    0    0  501 -0.00000000000E+00  0.00000000000E+00  0.62694417756E+03  0.62694417756E+03  0.00000000000E+00 0.  1.
          1   -1    0    0  501    0  0.00000000000E+00 -0.00000000000E+00 -0.86697252296E+03  0.86697252296E+03  0.00000000000E+00 0. -1.
        -24    2    1    2    0    0 -0.31301479072E+03 -0.27419420543E+03 -0.55513896856E+03  0.69865666648E+03  0.82347687879E+02 0.  0.
    5000000    2    1    2    0    0  0.31301479072E+03  0.27419420543E+03  0.31511062316E+03  0.79526003404E+03  0.59998591268E+03 0.  0.
        -24    2    4    4    0    0  0.38616312040E+03  0.32807167091E+03  0.39615666802E+03  0.64850151668E+03  0.82831966696E+02 0.  0.
         24    2    4    4    0    0 -0.73148329672E+02 -0.53877465480E+02 -0.81046044862E+02  0.14675851737E+03  0.81952068991E+02 0.  0.
         13    1    5    5    0    0  0.21589889472E+03  0.17043131118E+03  0.16386772753E+03  0.32017463469E+03  0.00000000000E+00 0. -1.
        -14    1    5    5    0    0  0.17026422567E+03  0.15764035972E+03  0.23228894050E+03  0.32832688199E+03  0.00000000000E+00 0.  1.
         15    1    3    3    0    0 -0.49348040519E+02 -0.10183454153E+02 -0.79300022556E+02  0.93971182540E+02  0.17770000000E+01 0. -1.
        -16    1    3    3    0    0 -0.26366675020E+03 -0.26401075127E+03 -0.47583894601E+03  0.60468548394E+03  0.00000000000E+00 0.  1.
          4    1    6    6  502    0 -0.66535732071E+02 -0.47577558582E+01 -0.68540744476E+02  0.95642425400E+02  0.00000000000E+00 0. -1.
         -3    1    6    6    0  502 -0.66125976019E+01 -0.49119709621E+02 -0.12505300385E+02  0.51116091968E+02  0.00000000000E+00 0.  1.
<mgrwt>
<rscale>  0 0.52345471E+03</rscale>
<asrwt>0</asrwt>
<pdfrwt beam="1">  1        1 0.13338039E+00 0.52345471E+03</pdfrwt>
<pdfrwt beam="2">  1       -2 0.96452951E-01 0.52345471E+03</pdfrwt>
<totfact> 0.16063396E+01</totfact>
</mgrwt>
</event>
<event>
12    3  0.1176505E-007  0.8884958E+03  0.7818608E-02  0.9440078E-01
          1   -1    0    0  501    0  0.00000000000E+00  0.00000000000E+00  0.21040336372E+04  0.21040336372E+04  0.00000000000E+00 0. -1.
         -2   -1    0    0    0  501 -0.00000000000E+00 -0.00000000000E+00 -0.42007206666E+03  0.42007206666E+03  0.00000000000E+00 0.  1.
        -24    2    1    2    0    0  0.21620694637E+03 -0.80216316892E+03  0.94007094656E+03  0.12578021752E+04  0.90120663631E+02 0.  0.
    5000000    2    1    2    0    0 -0.21620694637E+03  0.80216316892E+03  0.74389062397E+03  0.12663035287E+04  0.59995014221E+03 0.  0.
        -24    2    4    4    0    0 -0.22988905656E+03  0.14378999309E+03  0.17024659807E+02  0.28235466990E+03  0.76875094390E+02 0.  0.
         24    2    4    4    0    0  0.13682110189E+02  0.65837317583E+03  0.72686596416E+03  0.98394885880E+03  0.78605267493E+02 0.  0.
         11    1    5    5    0    0 -0.13716690680E+03  0.12160585204E+03 -0.89876770244E+01  0.18353071108E+03  0.00000000000E+00 0. -1.
        -12    1    5    5    0    0 -0.92722149757E+02  0.22184141045E+02  0.26012336831E+02  0.98823958820E+02  0.00000000000E+00 0.  1.
         15    1    3    3    0    0  0.18481749883E+03 -0.53223438231E+03  0.65442474548E+03  0.86354261667E+03  0.17770000000E+01 0. -1.
        -16    1    3    3    0    0  0.31389447542E+02 -0.26992878661E+03  0.28564620108E+03  0.39425955848E+03  0.00000000000E+00 0.  1.
          2    1    6    6  502    0  0.41101377232E+02  0.54468377446E+03  0.60060760557E+03  0.81184926757E+03  0.00000000000E+00 0. -1.
         -1    1    6    6    0  502 -0.27419267044E+02  0.11368940137E+03  0.12625835859E+03  0.17209959123E+03  0.00000000000E+00 0.  1.
<mgrwt>
<rscale>  0 0.88849583E+03</rscale>
<asrwt>0</asrwt>
<pdfrwt beam="1">  1        1 0.32369748E+00 0.88849583E+03</pdfrwt>
<pdfrwt beam="2">  1       -2 0.64626473E-01 0.88849583E+03</pdfrwt>
<totfact> 0.50341912E+00</totfact>
</mgrwt>
</event>
<event>
12    3  0.1176505E-007  0.3538171E+03  0.7818608E-02  0.1061059E+00
          1   -1    0    0  501    0  0.00000000000E+00  0.00000000000E+00  0.22782814819E+04  0.22782814819E+04  0.00000000000E+00 0. -1.
         -2   -1    0    0    0  501 -0.00000000000E+00 -0.00000000000E+00 -0.67754336213E+02  0.67754336213E+02  0.00000000000E+00 0.  1.
        -24    2    1    2    0    0 -0.14236358983E+03 -0.30877667612E+02  0.38303679204E+03  0.41713557784E+03  0.77872229854E+02 0.  0.
    5000000    2    1    2    0    0  0.14236358983E+03  0.30877667612E+02  0.18274903537E+04  0.19289002403E+04  0.59976188789E+03 0.  0.
        -24    2    4    4    0    0  0.34720268770E+03  0.21242749709E+02  0.76794381515E+03  0.84684065779E+03  0.80002723046E+02 0.  0.
         24    2    4    4    0    0 -0.20483909787E+03  0.96349179037E+01  0.10595465385E+04  0.10820595825E+04  0.78499586864E+02 0.  0.
         13    1    5    5    0    0  0.22257346805E+03 -0.20829004864E+02  0.44085388376E+03  0.49429236586E+03  0.00000000000E+00 0. -1.
        -14    1    5    5    0    0  0.12462921965E+03  0.42071754572E+02  0.32708993139E+03  0.35254829193E+03  0.00000000000E+00 0.  1.
         15    1    3    3    0    0 -0.12594226622E+03 -0.19955167194E+02  0.37455058201E+03  0.39566521117E+03  0.17770000000E+01 0. -1.
        -16    1    3    3    0    0 -0.16421323611E+02 -0.10922500418E+02  0.84862100307E+01  0.21470366676E+02  0.00000000000E+00 0.  1.
          4    1    6    6  502    0 -0.68674803224E+02 -0.14168490361E+01  0.19406768049E+03  0.20586524882E+03  0.00000000000E+00 0. -1.
         -3    1    6    6    0  502 -0.13616429464E+03  0.11051766940E+02  0.86547885804E+03  0.87619433370E+03  0.00000000000E+00 0.  1.
<mgrwt>
<rscale>  0 0.35381709E+03</rscale>
<asrwt>0</asrwt>
<pdfrwt beam="1">  1        1 0.35050479E+00 0.35381709E+03</pdfrwt>
<pdfrwt beam="2">  1       -2 0.10423746E-01 0.35381709E+03</pdfrwt>
<totfact> 0.11911994E+02</totfact>
</mgrwt>
</event>
<event>
12    3  0.1176505E-007  0.8422606E+03  0.7818608E-02  0.9500784E-01
         -2   -1    0    0    0  501 -0.00000000000E+00  0.00000000000E+00  0.12673703970E+04  0.12673703970E+04  0.00000000000E+00 0.  1.
          1   -1    0    0  501    0  0.00000000000E+00 -0.00000000000E+00 -0.58854746027E+03  0.58854746027E+03  0.00000000000E+00 0. -1.
        -24    2    1    2    0    0  0.68409551130E+03  0.29512915785E+03  0.44471658826E+03  0.87126030981E+03  0.78954386752E+02 0.  0.
    5000000    2    1    2    0    0 -0.68409551130E+03 -0.29512915785E+03  0.23410634849E+03  0.98465754748E+03  0.59971394431E+03 0.  0.
        -24    2    4    4    0    0 -0.60582844035E+03  0.16713370036E+02  0.23080535123E+03  0.65338411494E+03  0.79575471261E+02 0.  0.
         24    2    4    4    0    0 -0.78267070953E+02 -0.31184252789E+03  0.33009972672E+01  0.33127343254E+03  0.79747689173E+02 0.  0.
         11    1    5    5    0    0 -0.58235054412E+03  0.81241125330E+01  0.20494242693E+03  0.61741360189E+03  0.00000000000E+00 0. -1.
        -12    1    5    5    0    0 -0.23477896225E+02  0.85892575029E+01  0.25862924299E+02  0.35970513048E+02  0.00000000000E+00 0.  1.
         15    1    3    3    0    0  0.51973992549E+03  0.24607634495E+03  0.37249315536E+03  0.68515506728E+03  0.17770000000E+01 0. -1.
        -16    1    3    3    0    0  0.16435558580E+03  0.49052812899E+02  0.72223432892E+02  0.18610524253E+03  0.00000000000E+00 0.  1.
          2    1    6    6  502    0 -0.65773900915E+02 -0.31115346363E+03 -0.10356220190E+01  0.31803106213E+03  0.00000000000E+00 0. -1.
         -1    1    6    6    0  502 -0.12493170038E+02 -0.68906426160E+00  0.43366192862E+01  0.13242370407E+02  0.00000000000E+00 0.  1.
<mgrwt>
<rscale>  0 0.84226065E+03</rscale>
<asrwt>0</asrwt>
<pdfrwt beam="1">  1        1 0.90545763E-01 0.84226065E+03</pdfrwt>
<pdfrwt beam="2">  1       -2 0.19498006E+00 0.84226065E+03</pdfrwt>
<totfact> 0.44890803E+00</totfact>
</mgrwt>
</event>
<event>
12    3  0.1176505E-007  0.4132773E+03  0.7818608E-02  0.1039277E+00
          1   -1    0    0  501    0  0.00000000000E+00  0.00000000000E+00  0.14043881334E+03  0.14043881334E+03  0.00000000000E+00 0. -1.
         -4   -1    0    0    0  501 -0.00000000000E+00 -0.00000000000E+00 -0.14960628519E+04  0.14960628519E+04  0.00000000000E+00 0.  1.
        -24    2    1    2    0    0  0.12182368341E+03  0.21900578915E+03 -0.43732270903E+03  0.51126791933E+03  0.85669060763E+02 0.  0.
    5000000    2    1    2    0    0 -0.12182368341E+03 -0.21900578915E+03 -0.91830132949E+03  0.11252337459E+04  0.60005758524E+03 0.  0.
        -24    2    4    4    0    0 -0.72770176046E+02 -0.38143266721E+03 -0.35765062726E+03  0.53408520122E+03  0.80911388857E+02 0.  0.
         24    2    4    4    0    0 -0.49053507369E+02  0.16242687806E+03 -0.56065070223E+03  0.59114854466E+03  0.79615668300E+02 0.  0.
         13    1    5    5    0    0 -0.25467890954E+01 -0.88841435735E+02 -0.43059200837E+02  0.98759210278E+02  0.00000000000E+00 0. -1.
        -14    1    5    5    0    0 -0.70223386951E+02 -0.29259123148E+03 -0.31459142642E+03  0.43532599094E+03  0.00000000000E+00 0.  1.
         15    1    3    3    0    0  0.87064025439E+02  0.15739323404E+03 -0.22861033523E+03  0.29089279426E+03  0.17770000000E+01 0. -1.
        -16    1    3    3    0    0  0.34759657976E+02  0.61612555107E+02 -0.20871237380E+03  0.22037512507E+03  0.00000000000E+00 0.  1.
          4    1    6    6  502    0 -0.53157765413E+02  0.16968650749E+03 -0.51745857136E+03  0.54715868989E+03  0.00000000000E+00 0. -1.
         -3    1    6    6    0  502  0.41042580439E+01 -0.72596294277E+01 -0.43192130873E+02  0.43989854772E+02  0.00000000000E+00 0.  1.
<mgrwt>
<rscale>  0 0.41327731E+03</rscale>
<asrwt>0</asrwt>
<pdfrwt beam="1">  1        1 0.21605971E-01 0.41327731E+03</pdfrwt>
<pdfrwt beam="2">  1       -4 0.23016352E+00 0.41327731E+03</pdfrwt>
<totfact> 0.97501047E+00</totfact>
</mgrwt>
</event>
<event>
12    3  0.1176505E-007  0.8590899E+03  0.7818608E-02  0.9478217E-01
         -2   -1    0    0    0  501 -0.00000000000E+00  0.00000000000E+00  0.38634272482E+04  0.38634272482E+04  0.00000000000E+00 0.  1.
          1   -1    0    0  501    0  0.00000000000E+00 -0.00000000000E+00 -0.19930427127E+03  0.19930427127E+03  0.00000000000E+00 0. -1.
        -24    2    1    2    0    0 -0.43295451216E+02  0.76024437368E+03  0.19261060139E+04  0.20726006352E+04  0.77090935111E+02 0.  0.
    5000000    2    1    2    0    0  0.43295451216E+02 -0.76024437368E+03  0.17380169630E+04  0.19901308843E+04  0.60005997122E+03 0.  0.
        -24    2    4    4    0    0 -0.83181399376E+02 -0.79901181367E+03  0.15329222724E+04  0.17324494008E+04  0.78684239696E+02 0.  0.
         24    2    4    4    0    0  0.12647685059E+03  0.38767439997E+02  0.20509469061E+03  0.25768148347E+03  0.82683775104E+02 0.  0.
         13    1    5    5    0    0 -0.57400048710E+02 -0.21811779525E+03  0.44424544621E+03  0.49822098979E+03  0.00000000000E+00 0. -1.
        -14    1    5    5    0    0 -0.25781350667E+02 -0.58089401843E+03  0.10886768262E+04  0.12342284110E+04  0.00000000000E+00 0.  1.
         15    1    3    3    0    0 -0.50180482213E+02  0.62962489194E+03  0.15221433729E+04  0.16479894389E+04  0.17770000000E+01 0. -1.
        -16    1    3    3    0    0  0.68850309974E+01  0.13061948174E+03  0.40396264103E+03  0.42461119628E+03  0.00000000000E+00 0.  1.
          4    1    6    6  502    0  0.97552070854E+01  0.30169182357E+02  0.81572160871E+02  0.87517775672E+02  0.00000000000E+00 0. -1.
         -3    1    6    6    0  502  0.11672164351E+03  0.85982576397E+01  0.12352252974E+03  0.17016370780E+03  0.00000000000E+00 0.  1.
<mgrwt>
<rscale>  0 0.85908986E+03</rscale>
<asrwt>0</asrwt>
<pdfrwt beam="1">  1        1 0.30662198E-01 0.85908986E+03</pdfrwt>
<pdfrwt beam="2">  1       -2 0.59437337E+00 0.85908986E+03</pdfrwt>
<totfact> 0.70230974E-02</totfact>
</mgrwt>
</event>
<event>
12    3  0.1176505E-007  0.1742413E+04  0.7818608E-02  0.8737538E-01
         -2   -1    0    0    0  501 -0.00000000000E+00  0.00000000000E+00  0.97720850691E+03  0.97720850691E+03  0.00000000000E+00 0.  1.
          1   -1    0    0  501    0  0.00000000000E+00 -0.00000000000E+00 -0.31657509794E+04  0.31657509794E+04  0.00000000000E+00 0. -1.
        -24    2    1    2    0    0  0.16976820700E+02 -0.17064107975E+04 -0.10262458874E+04  0.19928726528E+04  0.78960537878E+02 0.  0.
    5000000    2    1    2    0    0 -0.16976820700E+02  0.17064107975E+04 -0.11622965851E+04  0.21500868335E+04  0.59984499458E+03 0.  0.
        -24    2    4    4    0    0  0.14975049028E+03  0.14810200142E+04 -0.10985646680E+04  0.18517529188E+04  0.79366559406E+02 0.  0.
         24    2    4    4    0    0 -0.16672731098E+03  0.22539078338E+03 -0.63731917115E+02  0.29833391474E+03  0.79638972666E+02 0.  0.
         13    1    5    5    0    0  0.57725621682E+02  0.69829014764E+03 -0.47053624148E+03  0.84400576552E+03  0.00000000000E+00 0. -1.
        -14    1    5    5    0    0  0.92024868601E+02  0.78272986652E+03 -0.62802842650E+03  0.10077471533E+04  0.00000000000E+00 0.  1.
         15    1    3    3    0    0 -0.16652619947E+02 -0.13792035744E+04 -0.82076848728E+03  0.16050370329E+04  0.17770000000E+01 0. -1.
        -16    1    3    3    0    0  0.33629440648E+02 -0.32720722314E+03 -0.20547740014E+03  0.38783561998E+03  0.00000000000E+00 0.  1.
          4    1    6    6  502    0 -0.14532923284E+03  0.22312256485E+03 -0.71068986694E+02  0.27559946613E+03  0.00000000000E+00 0. -1.
         -3    1    6    6    0  502 -0.21398078147E+02  0.22682185277E+01  0.73370695791E+01  0.22734448612E+02  0.00000000000E+00 0.  1.
<mgrwt>
<rscale>  0 0.17424128E+04</rscale>
<asrwt>0</asrwt>
<pdfrwt beam="1">  1        1 0.48703861E+00 0.17424128E+04</pdfrwt>
<pdfrwt beam="2">  1       -2 0.15033977E+00 0.17424128E+04</pdfrwt>
<totfact> 0.10892069E-01</totfact>
</mgrwt>
</event>
<event>
12    3  0.1176505E-007  0.5692157E+03  0.7818608E-02  0.9971416E-01
          1   -1    0    0  501    0  0.00000000000E+00  0.00000000000E+00  0.92982587656E+03  0.92982587656E+03  0.00000000000E+00 0. -1.
         -2   -1    0    0    0  501 -0.00000000000E+00 -0.00000000000E+00 -0.62334662021E+03  0.62334662021E+03  0.00000000000E+00 0.  1.
        -24    2    1    2    0    0  0.32548202028E+03 -0.45041636575E+03  0.45260711677E+03  0.72261493057E+03  0.92226285225E+02 0.  0.
    5000000    2    1    2    0    0 -0.32548202028E+03  0.45041636575E+03 -0.14612786042E+03  0.83055756619E+03  0.59971582530E+03 0.  0.
        -24    2    4    4    0    0 -0.27320853483E+03  0.28760244900E+03 -0.36391377060E+03  0.54768210484E+03  0.10081856651E+03 0.  0.
         24    2    4    4    0    0 -0.52273485443E+02  0.16281391674E+03  0.21778591018E+03  0.28287546135E+03  0.57852702587E+02 0.  0.
         11    1    5    5    0    0 -0.71890320173E+02  0.92949487048E+02 -0.17157868431E+03  0.20795929935E+03  0.00000000000E+00 0. -1.
        -12    1    5    5    0    0 -0.20131821466E+03  0.19465296196E+03 -0.19233508629E+03  0.33972280549E+03  0.00000000000E+00 0.  1.
         15    1    3    3    0    0  0.12409657006E+03 -0.10868452651E+03  0.15894211348E+03  0.22908085509E+03  0.17770000000E+01 0. -1.
        -16    1    3    3    0    0  0.20138545022E+03 -0.34173183924E+03  0.29366500329E+03  0.49353407549E+03  0.00000000000E+00 0.  1.
          4    1    6    6  502    0 -0.34882840488E+02  0.15714754005E+03  0.18415020081E+03  0.24458834470E+03  0.00000000000E+00 0. -1.
         -3    1    6    6    0  502 -0.17390644955E+02  0.56663766920E+01  0.33635709367E+02  0.38287116650E+02  0.00000000000E+00 0.  1.
<mgrwt>
<rscale>  0 0.56921566E+03</rscale>
<asrwt>0</asrwt>
<pdfrwt beam="1">  1        1 0.14305014E+00 0.56921566E+03</pdfrwt>
<pdfrwt beam="2">  1       -2 0.95899480E-01 0.56921566E+03</pdfrwt>
<totfact> 0.14387359E+01</totfact>
</mgrwt>
</event>
<event>
12    3  0.1176505E-007  0.2449131E+03  0.7818608E-02  0.1116562E+00
          3   -1    0    0  501    0  0.00000000000E+00  0.00000000000E+00  0.16847026160E+03  0.16847026160E+03  0.00000000000E+00 0. -1.
         -4   -1    0    0    0  501 -0.00000000000E+00 -0.00000000000E+00 -0.10081322126E+04  0.10081322126E+04  0.00000000000E+00 0.  1.
        -24    2    1    2    0    0 -0.72027100359E+02  0.11586536915E+03 -0.36795846863E+03  0.40122938498E+03  0.83539797587E+02 0.  0.
    5000000    2    1    2    0    0  0.72027100359E+02 -0.11586536915E+03 -0.47170348234E+03  0.77537308918E+03  0.60007213334E+03 0.  0.
        -24    2    4    4    0    0  0.69165818110E+02  0.76432737900E+02  0.10246308607E+03  0.16486277369E+03  0.77815013482E+02 0.  0.
         24    2    4    4    0    0  0.28612822489E+01 -0.19229810705E+03 -0.57416656840E+03  0.61051031549E+03  0.77902812120E+02 0.  0.
         13    1    5    5    0    0  0.60365802156E+01  0.56973194442E+02  0.72283800114E+02  0.92235204476E+02  0.00000000000E+00 0. -1.
        -14    1    5    5    0    0  0.63129237895E+02  0.19459543457E+02  0.30179285952E+02  0.72627569210E+02  0.00000000000E+00 0.  1.
         15    1    3    3    0    0  0.57263159947E+01  0.67661300403E+02 -0.17362721974E+03  0.18644144236E+03  0.17770000000E+01 0. -1.
        -16    1    3    3    0    0 -0.77753416354E+02  0.48204068750E+02 -0.19433124890E+03  0.21478794262E+03  0.00000000000E+00 0.  1.
          2    1    6    6  502    0  0.72421573430E+01 -0.19895932199E+03 -0.54326009262E+03  0.57859207468E+03  0.00000000000E+00 0. -1.
         -1    1    6    6    0  502 -0.43808750941E+01  0.66612149381E+01 -0.30906475783E+02  0.31918240809E+02  0.00000000000E+00 0.  1.
<mgrwt>
<rscale>  0 0.24491309E+03</rscale>
<asrwt>0</asrwt>
<pdfrwt beam="1">  1        3 0.25918501E-01 0.24491309E+03</pdfrwt>
<pdfrwt beam="2">  1       -4 0.15509727E+00 0.24491309E+03</pdfrwt>
<totfact> 0.86016185E+00</totfact>
</mgrwt>
</event>
<event>
12    3  0.1176505E-007  0.5999813E+03  0.7818608E-02  0.9905445E-01
         -2   -1    0    0    0  501 -0.00000000000E+00  0.00000000000E+00  0.65010079495E+03  0.65010079495E+03  0.00000000000E+00 0.  1.
          1   -1    0    0  501    0  0.00000000000E+00 -0.00000000000E+00 -0.65557959809E+03  0.65557959809E+03  0.00000000000E+00 0. -1.
        -24    2    1    2    0    0 -0.46706365087E+03  0.20216540340E+03 -0.51878180884E+02  0.51753654787E+03  0.78316207963E+02 0.  0.
    5000000    2    1    2    0    0  0.46706365087E+03 -0.20216540340E+03  0.46399377739E+02  0.78814384518E+03  0.59999876178E+03 0.  0.
        -24    2    4    4    0    0  0.42213760270E+03 -0.33432002551E+03  0.18642821878E+03  0.57547769170E+03  0.80306026047E+02 0.  0.
         24    2    4    4    0    0  0.44926048175E+02  0.13215462211E+03 -0.14002884104E+03  0.21266615348E+03  0.78330214877E+02 0.  0.
         13    1    5    5    0    0  0.11774182335E+03 -0.13972260522E+03  0.73646978749E+02  0.19700106815E+03  0.00000000000E+00 0. -1.
        -14    1    5    5    0    0  0.30439577934E+03 -0.19459742029E+03  0.11278124003E+03  0.37847662354E+03  0.00000000000E+00 0.  1.
         15    1    3    3    0    0 -0.21876004264E+03  0.13710891125E+03 -0.21963561654E+02  0.25911458000E+03  0.17770000000E+01 0. -1.
        -16    1    3    3    0    0 -0.24830360823E+03  0.65056492147E+02 -0.29914619230E+02  0.25842196787E+03  0.00000000000E+00 0.  1.
          4    1    6    6  502    0  0.32415407073E+02  0.63328014835E+02 -0.20270780745E+02  0.73973648218E+02  0.00000000000E+00 0. -1.
         -3    1    6    6    0  502  0.12510641102E+02  0.68826607276E+02 -0.11975806030E+03  0.13869250526E+03  0.00000000000E+00 0.  1.
<mgrwt>
<rscale>  0 0.59998135E+03</rscale>
<asrwt>0</asrwt>
<pdfrwt beam="1">  1        1 0.10085840E+00 0.59998135E+03</pdfrwt>
<pdfrwt beam="2">  1       -2 0.10001551E+00 0.59998135E+03</pdfrwt>
<totfact> 0.22501866E+01</totfact>
</mgrwt>
</event>
<event>
12    3  0.1176505E-007  0.7692933E+03  0.7818608E-02  0.9605559E-01
         -2   -1    0    0    0  501 -0.00000000000E+00  0.00000000000E+00  0.39716755645E+03  0.39716755645E+03  0.00000000000E+00 0.  1.
          1   -1    0    0  501    0  0.00000000000E+00 -0.00000000000E+00 -0.16069088737E+04  0.16069088737E+04  0.00000000000E+00 0. -1.
        -24    2    1    2    0    0  0.40315027267E+03  0.51815238111E+03 -0.75958520549E+03  0.10072968022E+04  0.81640252415E+02 0.  0.
    5000000    2    1    2    0    0 -0.40315027267E+03 -0.51815238111E+03 -0.45015611172E+03  0.99677962795E+03  0.59993088716E+03 0.  0.
        -24    2    4    4    0    0 -0.47041406849E+03 -0.14289299302E+03 -0.22689898778E+03  0.54746045729E+03  0.80758890237E+02 0.  0.
         24    2    4    4    0    0  0.67263795811E+02 -0.37525938809E+03 -0.22325712394E+03  0.44931917067E+03  0.81853204952E+02 0.  0.
         11    1    5    5    0    0 -0.45395018884E+03 -0.12378363235E+03 -0.22657461745E+03  0.52223483114E+03  0.00000000000E+00 0. -1.
        -12    1    5    5    0    0 -0.16463879651E+02 -0.19109360675E+02 -0.32437033213E+00  0.25225626150E+02  0.00000000000E+00 0.  1.
         15    1    3    3    0    0  0.17386845951E+03  0.15985456402E+03 -0.27138716269E+03  0.35977475266E+03  0.17770000000E+01 0. -1.
        -16    1    3    3    0    0  0.22928181316E+03  0.35829781710E+03 -0.48819804279E+03  0.64752204949E+03  0.00000000000E+00 0.  1.
          4    1    6    6  502    0  0.48179238238E+02 -0.25685921025E+03 -0.19509451374E+03  0.32612844429E+03  0.00000000000E+00 0. -1.
         -3    1    6    6    0  502  0.19084557573E+02 -0.11840017784E+03 -0.28162610204E+02  0.12319072638E+03  0.00000000000E+00 0.  1.
<mgrwt>
<rscale>  0 0.76929331E+03</rscale>
<asrwt>0</asrwt>
<pdfrwt beam="1">  1        1 0.24721675E+00 0.76929331E+03</pdfrwt>
<pdfrwt beam="2">  1       -2 0.61102701E-01 0.76929331E+03</pdfrwt>
<totfact> 0.12445821E+01</totfact>
</mgrwt>
</event>
<event>
12    3  0.1176505E-007  0.7710943E+03  0.7818608E-02  0.9602826E-01
          1   -1    0    0  501    0  0.00000000000E+00  0.00000000000E+00  0.19473123042E+04  0.19473123042E+04  0.00000000000E+00 0. -1.
         -2   -1    0    0    0  501 -0.00000000000E+00 -0.00000000000E+00 -0.31499359721E+03  0.31499359721E+03  0.00000000000E+00 0.  1.
        -24    2    1    2    0    0  0.13107267331E+03  0.65096358966E+03  0.63108271103E+03  0.91951831544E+03  0.79466367170E+02 0.  0.
    5000000    2    1    2    0    0 -0.13107267331E+03 -0.65096358966E+03  0.10012359959E+04  0.13427875859E+04  0.59972605466E+03 0.  0.
        -24    2    4    4    0    0  0.36045764154E+02 -0.68883478296E+03  0.69161826486E+03  0.98014275277E+03  0.80940324819E+02 0.  0.
         24    2    4    4    0    0 -0.16711843746E+03  0.37871193298E+02  0.30961773107E+03  0.36264483316E+03  0.79280112320E+02 0.  0.
         13    1    5    5    0    0 -0.17002952996E+02 -0.56237323071E+02  0.73605169244E+02  0.94177799168E+02  0.00000000000E+00 0. -1.
        -14    1    5    5    0    0  0.53048717150E+02 -0.63259745989E+03  0.61801309562E+03  0.88596495360E+03  0.00000000000E+00 0.  1.
         15    1    3    3    0    0  0.94071635454E+02  0.27133873476E+03  0.28085545888E+03  0.40169282803E+03  0.17770000000E+01 0. -1.
        -16    1    3    3    0    0  0.37001037851E+02  0.37962485490E+03  0.35022725215E+03  0.51782548741E+03  0.00000000000E+00 0.  1.
          4    1    6    6  502    0 -0.41143438934E+02 -0.14437976102E+02  0.12991301334E+03  0.13703513694E+03  0.00000000000E+00 0. -1.
         -3    1    6    6    0  502 -0.12597499853E+03  0.52309169401E+02  0.17970471772E+03  0.22560969622E+03  0.00000000000E+00 0.  1.
<mgrwt>
<rscale>  0 0.77109431E+03</rscale>
<asrwt>0</asrwt>
<pdfrwt beam="1">  1        1 0.29958650E+00 0.77109431E+03</pdfrwt>
<pdfrwt beam="2">  1       -2 0.48460555E-01 0.77109431E+03</pdfrwt>
<totfact> 0.11878872E+01</totfact>
</mgrwt>
</event>
<event>
12    3  0.1176505E-007  0.1050128E+04  0.7818608E-02  0.9255212E-01
         -4   -1    0    0    0  501 -0.00000000000E+00  0.00000000000E+00  0.86139584748E+03  0.86139584748E+03  0.00000000000E+00 0.  1.
          1   -1    0    0  501    0  0.00000000000E+00 -0.00000000000E+00 -0.14125895011E+04  0.14125895011E+04  0.00000000000E+00 0. -1.
        -24    2    1    2    0    0  0.92399292204E+02  0.10149355018E+04 -0.21845553926E+03  0.10454991833E+04  0.81939109726E+02 0.  0.
    5000000    2    1    2    0    0 -0.92399292204E+02 -0.10149355018E+04 -0.33273811438E+03  0.12284861653E+04  0.59985990330E+03 0.  0.
        -24    2    4    4    0    0  0.56151113625E+02 -0.82316186392E+03 -0.25878363399E+02  0.82913920660E+03  0.77805735443E+02 0.  0.
         24    2    4    4    0    0 -0.14855040583E+03 -0.19177363786E+03 -0.30685975099E+03  0.39934695869E+03  0.80440881345E+02 0.  0.
         11    1    5    5    0    0  0.33297445821E+02 -0.65831425066E+03  0.84566507317E+01  0.65921004806E+03  0.00000000000E+00 0. -1.
        -12    1    5    5    0    0  0.22853667805E+02 -0.16484761326E+03 -0.34335014130E+02  0.16992915854E+03  0.00000000000E+00 0.  1.
         15    1    3    3    0    0  0.75265301749E+02  0.91505491646E+03 -0.17243135533E+03  0.93419810309E+03  0.17770000000E+01 0. -1.
        -16    1    3    3    0    0  0.17133990456E+02  0.99880585322E+02 -0.46024183930E+02  0.11130108023E+03  0.00000000000E+00 0.  1.
          4    1    6    6  502    0 -0.11015393483E+02 -0.71923875116E+02 -0.97495827189E+02  0.12165450680E+03  0.00000000000E+00 0. -1.
         -3    1    6    6    0  502 -0.13753501235E+03 -0.11984976275E+03 -0.20936392380E+03  0.27769245190E+03  0.00000000000E+00 0.  1.
<mgrwt>
<rscale>  0 0.10501283E+04</rscale>
<asrwt>0</asrwt>
<pdfrwt beam="1">  1        1 0.21732146E+00 0.10501283E+04</pdfrwt>
<pdfrwt beam="2">  1       -4 0.13252244E+00 0.10501283E+04</pdfrwt>
<totfact> 0.14714566E+00</totfact>
</mgrwt>
</event>
<event>
12    3  0.1176505E-007  0.3406951E+03  0.7818608E-02  0.1066500E+00
         -2   -1    0    0    0  501 -0.00000000000E+00  0.00000000000E+00  0.52218703954E+03  0.52218703954E+03  0.00000000000E+00 0.  1.
          1   -1    0    0  501    0  0.00000000000E+00 -0.00000000000E+00 -0.52155853316E+03  0.52155853316E+03  0.00000000000E+00 0. -1.
        -24    2    1    2    0    0 -0.69537514324E+02 -0.25753243715E+03  0.21609240260E+03  0.35266935448E+03  0.80754721520E+02 0.  0.
    5000000    2    1    2    0    0  0.69537514324E+02  0.25753243715E+03 -0.21546389623E+03  0.69107621822E+03  0.60000268894E+03 0.  0.
        -24    2    4    4    0    0 -0.45783186939E+02 -0.32109932629E+02  0.16577576850E+03  0.19341450419E+03  0.82464641089E+02 0.  0.
         24    2    4    4    0    0  0.11532070126E+03  0.28964236978E+03 -0.38123966472E+03  0.49766171403E+03  0.71637512161E+02 0.  0.
         13    1    5    5    0    0 -0.67540403776E+02 -0.37286346369E+02  0.12438449900E+03  0.14636762402E+03  0.00000000000E+00 0. -1.
        -14    1    5    5    0    0  0.21757216837E+02  0.51764137396E+01  0.41391269492E+02  0.47046880171E+02  0.00000000000E+00 0.  1.
         15    1    3    3    0    0 -0.24640033827E+02 -0.14072530689E+03  0.16294003198E+03  0.21671030206E+03  0.17770000000E+01 0. -1.
        -16    1    3    3    0    0 -0.44897480497E+02 -0.11680713026E+03  0.53152370618E+02  0.13595905243E+03  0.00000000000E+00 0.  1.
          2    1    6    6  502    0  0.68504364171E+02  0.21594635921E+03 -0.31528978129E+03  0.38824389776E+03  0.00000000000E+00 0. -1.
         -1    1    6    6    0  502  0.46816337091E+02  0.73696010570E+02 -0.65949883431E+02  0.10941781627E+03  0.00000000000E+00 0.  1.
<mgrwt>
<rscale>  0 0.34069513E+03</rscale>
<asrwt>0</asrwt>
<pdfrwt beam="1">  1        1 0.80239775E-01 0.34069513E+03</pdfrwt>
<pdfrwt beam="2">  1       -2 0.80336467E-01 0.34069513E+03</pdfrwt>
<totfact> 0.53008286E+01</totfact>
</mgrwt>
</event>
<event>
12    3  0.1176505E-007  0.7870766E+03  0.7818608E-02  0.9578914E-01
          1   -1    0    0  501    0  0.00000000000E+00  0.00000000000E+00  0.66154164472E+03  0.66154164472E+03  0.00000000000E+00 0. -1.
         -2   -1    0    0    0  501 -0.00000000000E+00 -0.00000000000E+00 -0.10743203972E+04  0.10743203972E+04  0.00000000000E+00 0.  1.
        -24    2    1    2    0    0 -0.26838062741E+03 -0.66765318321E+03 -0.32467136391E+02  0.72457930082E+03  0.78562802944E+02 0.  0.
    5000000    2    1    2    0    0  0.26838062741E+03  0.66765318321E+03 -0.38031161612E+03  0.10112827411E+04  0.60022239459E+03 0.  0.
        -24    2    4    4    0    0  0.45638080975E+02  0.61004738521E+03 -0.44361065096E+03  0.75987432310E+03  0.79861947275E+02 0.  0.
         24    2    4    4    0    0  0.22274254644E+03  0.57605797999E+02  0.63299034835E+02  0.25140841805E+03  0.79162837866E+02 0.  0.
         13    1    5    5    0    0  0.12452967390E+02  0.41319826189E+03 -0.33833280633E+03  0.53418813902E+03  0.00000000000E+00 0. -1.
        -14    1    5    5    0    0  0.33185113585E+02  0.19684912332E+03 -0.10527784463E+03  0.22568618408E+03  0.00000000000E+00 0.  1.
         15    1    3    3    0    0 -0.13226211445E+03 -0.40791216395E+03  0.56915370177E+01  0.42886029396E+03  0.17770000000E+01 0. -1.
        -16    1    3    3    0    0 -0.13611851296E+03 -0.25974101926E+03 -0.38158673409E+02  0.29571900685E+03  0.00000000000E+00 0.  1.
          4    1    6    6  502    0  0.18556593271E+03  0.20750567117E+02  0.29350509593E+02  0.18901522116E+03  0.00000000000E+00 0. -1.
         -3    1    6    6    0  502  0.37176613726E+02  0.36855230882E+02  0.33948525242E+02  0.62393196886E+02  0.00000000000E+00 0.  1.
<mgrwt>
<rscale>  0 0.78707665E+03</rscale>
<asrwt>0</asrwt>
<pdfrwt beam="1">  1        1 0.10177564E+00 0.78707665E+03</pdfrwt>
<pdfrwt beam="2">  1       -2 0.16528006E+00 0.78707665E+03</pdfrwt>
<totfact> 0.60967194E+00</totfact>
</mgrwt>
</event>
<event>
12    3  0.1176505E-007  0.1102859E+04  0.7818608E-02  0.9202409E-01
          1   -1    0    0  501    0  0.00000000000E+00  0.00000000000E+00  0.26123888580E+04  0.26123888580E+04  0.00000000000E+00 0. -1.
         -2   -1    0    0    0  501 -0.00000000000E+00 -0.00000000000E+00 -0.53201047654E+03  0.53201047654E+03  0.00000000000E+00 0.  1.
        -24    2    1    2    0    0 -0.73467644532E+03  0.76873032053E+03  0.13555818113E+04  0.17246321670E+04  0.77834949648E+02 0.  0.
    5000000    2    1    2    0    0  0.73467644532E+03 -0.76873032053E+03  0.72479657020E+03  0.14197671675E+04  0.59976074967E+03 0.  0.
        -24    2    4    4    0    0 -0.21105032219E+02 -0.10257436060E+03  0.29033174122E+03  0.31943716483E+03  0.82344765940E+02 0.  0.
         24    2    4    4    0    0  0.75578147754E+03 -0.66615595993E+03  0.43446482899E+03  0.11003300027E+04  0.83648206829E+02 0.  0.
         11    1    5    5    0    0  0.31059992606E+02 -0.48468740376E+02  0.11242070878E+03  0.12630264327E+03  0.00000000000E+00 0. -1.
        -12    1    5    5    0    0 -0.52165024825E+02 -0.54105620222E+02  0.17791103243E+03  0.19313452155E+03  0.00000000000E+00 0.  1.
         15    1    3    3    0    0 -0.37750992405E+03  0.44052805752E+03  0.70159058310E+03  0.91039069429E+03  0.17770000000E+01 0. -1.
        -16    1    3    3    0    0 -0.35716652128E+03  0.32820226301E+03  0.65399122815E+03  0.81424147270E+03  0.00000000000E+00 0.  1.
          4    1    6    6  502    0  0.68035928634E+03 -0.60952094907E+03  0.36728356954E+03  0.98453124192E+03  0.00000000000E+00 0. -1.
         -3    1    6    6    0  502  0.75422191200E+02 -0.56635010863E+02  0.67181259451E+02  0.11579876080E+03  0.00000000000E+00 0.  1.
<mgrwt>
<rscale>  0 0.11028593E+04</rscale>
<asrwt>0</asrwt>
<pdfrwt beam="1">  1        1 0.40190597E+00 0.11028593E+04</pdfrwt>
<pdfrwt beam="2">  1       -2 0.81847767E-01 0.11028593E+04</pdfrwt>
<totfact> 0.13065546E+00</totfact>
</mgrwt>
</event>
<event>
12    3  0.1176505E-007  0.9018785E+03  0.7818608E-02  0.9423236E-01
          1   -1    0    0  501    0  0.00000000000E+00  0.00000000000E+00  0.12834184085E+04  0.12834184085E+04  0.00000000000E+00 0. -1.
         -2   -1    0    0    0  501 -0.00000000000E+00 -0.00000000000E+00 -0.93961656408E+03  0.93961656408E+03  0.00000000000E+00 0.  1.
        -24    2    1    2    0    0  0.70427210983E+03  0.39318986235E+03  0.78198993785E+03  0.11263512425E+04  0.81002382566E+02 0.  0.
    5000000    2    1    2    0    0 -0.70427210983E+03 -0.39318986235E+03 -0.43818809347E+03  0.10966837301E+04  0.60009076480E+03 0.  0.
        -24    2    4    4    0    0 -0.10093896892E+03 -0.36726574751E+03 -0.23443892927E+03  0.45426547763E+03  0.79515456798E+02 0.  0.
         24    2    4    4    0    0 -0.60333314091E+03 -0.25924114843E+02 -0.20374916420E+03  0.64241825244E+03  0.80650793563E+02 0.  0.
         13    1    5    5    0    0 -0.87418758363E+02 -0.16862063559E+03 -0.11834324265E+03  0.22378579298E+03  0.00000000000E+00 0. -1.
        -14    1    5    5    0    0 -0.13520210553E+02 -0.19864511192E+03 -0.11609568662E+03  0.23047968464E+03  0.00000000000E+00 0.  1.
         15    1    3    3    0    0  0.16418463949E+03  0.89800484071E+02  0.23101705829E+03  0.29730920224E+03  0.17770000000E+01 0. -1.
        -16    1    3    3    0    0  0.54008747033E+03  0.30338937828E+03  0.55097287956E+03  0.82904204023E+03  0.00000000000E+00 0.  1.
          2    1    6    6  502    0 -0.29864865212E+03  0.22931863941E+02 -0.12006428268E+03  0.32269539782E+03  0.00000000000E+00 0. -1.
         -1    1    6    6    0  502 -0.30468448879E+03 -0.48855978784E+02 -0.83684881527E+02  0.31972285462E+03  0.00000000000E+00 0.  1.
<mgrwt>
<rscale>  0 0.90187853E+03</rscale>
<asrwt>0</asrwt>
<pdfrwt beam="1">  1        1 0.19744899E+00 0.90187853E+03</pdfrwt>
<pdfrwt beam="2">  1       -2 0.14455639E+00 0.90187853E+03</pdfrwt>
<totfact> 0.27172046E+00</totfact>
</mgrwt>
</event>
<event>
12    3  0.1176505E-007  0.8879244E+03  0.7818608E-02  0.9440804E-01
         -2   -1    0    0    0  501 -0.00000000000E+00  0.00000000000E+00  0.22035331188E+03  0.22035331188E+03  0.00000000000E+00 0.  1.
          1   -1    0    0  501    0  0.00000000000E+00 -0.00000000000E+00 -0.36558142075E+04  0.36558142075E+04  0.00000000000E+00 0. -1.
        -24    2    1    2    0    0  0.34244325359E+03 -0.71755859344E+03 -0.15135721995E+04  0.17114909833E+04  0.78376437051E+02 0.  0.
    5000000    2    1    2    0    0 -0.34244325359E+03  0.71755859344E+03 -0.19218886960E+04  0.21646765360E+04  0.60000885707E+03 0.  0.
        -24    2    4    4    0    0 -0.49956195812E+03  0.52966390616E+03 -0.12896487452E+04  0.14834897055E+04  0.86265965221E+02 0.  0.
         24    2    4    4    0    0  0.15711870453E+03  0.18789468728E+03 -0.63223995084E+03  0.68118683053E+03  0.65554876366E+02 0.  0.
         13    1    5    5    0    0 -0.26294078201E+03  0.33423585130E+03 -0.78738609500E+03  0.89489011713E+03  0.00000000000E+00 0. -1.
        -14    1    5    5    0    0 -0.23662117610E+03  0.19542805486E+03 -0.50226265019E+03  0.58859958833E+03  0.00000000000E+00 0.  1.
         15    1    3    3    0    0  0.20313473432E+03 -0.33681926280E+03 -0.76325655723E+03  0.85864699729E+03  0.17770000000E+01 0. -1.
        -16    1    3    3    0    0  0.13930851927E+03 -0.38073933065E+03 -0.75031564231E+03  0.85284398605E+03  0.00000000000E+00 0.  1.
          4    1    6    6  502    0  0.10264300913E+03  0.12253761277E+03 -0.49030730042E+03  0.51570563572E+03  0.00000000000E+00 0. -1.
         -3    1    6    6    0  502  0.54475695397E+02  0.65357074517E+02 -0.14193265042E+03  0.16548119481E+03  0.00000000000E+00 0.  1.
<mgrwt>
<rscale>  0 0.88792442E+03</rscale>
<asrwt>0</asrwt>
<pdfrwt beam="1">  1        1 0.56243291E+00 0.88792442E+03</pdfrwt>
<pdfrwt beam="2">  1       -2 0.33900512E-01 0.88792442E+03</pdfrwt>
<totfact> 0.14219286E+00</totfact>
</mgrwt>
</event>
<event>
12    3  0.1176505E-007  0.6214922E+03  0.7818608E-02  0.9861793E-01
         -2   -1    0    0    0  501 -0.00000000000E+00  0.00000000000E+00  0.54513220135E+03  0.54513220135E+03  0.00000000000E+00 0.  1.
          1   -1    0    0  501    0  0.00000000000E+00 -0.00000000000E+00 -0.93168253629E+03  0.93168253629E+03  0.00000000000E+00 0. -1.
        -24    2    1    2    0    0 -0.45107140827E+03 -0.21435456997E+03 -0.47175062822E+03  0.69153477001E+03  0.79109960662E+02 0.  0.
    5000000    2    1    2    0    0  0.45107140827E+03  0.21435456997E+03  0.85200293284E+02  0.78527996764E+03  0.59999353377E+03 0.  0.
        -24    2    4    4    0    0 -0.18110167146E+02  0.25444641718E+03  0.14512522773E+03  0.30390091676E+03  0.78889024019E+02 0.  0.
         24    2    4    4    0    0  0.46918157542E+03 -0.40091847217E+02 -0.59924934450E+02  0.48137905088E+03  0.79975533322E+02 0.  0.
         11    1    5    5    0    0  0.22860866303E+02  0.15297235266E+03  0.10675625186E+03  0.18793631154E+03  0.00000000000E+00 0. -1.
        -12    1    5    5    0    0 -0.40971033449E+02  0.10147406452E+03  0.38368975878E+02  0.11596460522E+03  0.00000000000E+00 0.  1.
         15    1    3    3    0    0 -0.22290716768E+03 -0.80763189141E+02 -0.17910175839E+03  0.29713783958E+03  0.17770000000E+01 0. -1.
        -16    1    3    3    0    0 -0.22816424059E+03 -0.13359138083E+03 -0.29264886983E+03  0.39439693043E+03  0.00000000000E+00 0.  1.
          4    1    6    6  502    0  0.34903212425E+03  0.49716797548E+01 -0.50635038636E+02  0.35272092154E+03  0.00000000000E+00 0. -1.
         -3    1    6    6    0  502  0.12014945117E+03 -0.45063526972E+02 -0.92898958140E+01  0.12865812933E+03  0.00000000000E+00 0.  1.
<mgrwt>
<rscale>  0 0.62149225E+03</rscale>
<asrwt>0</asrwt>
<pdfrwt beam="1">  1        1 0.14333578E+00 0.62149225E+03</pdfrwt>
<pdfrwt beam="2">  1       -2 0.83866492E-01 0.62149225E+03</pdfrwt>
<totfact> 0.19374890E+01</totfact>
</mgrwt>
</event>
<event>
12    3  0.1176505E-007  0.1082296E+04  0.7818608E-02  0.9222621E-01
          1   -1    0    0  501    0  0.00000000000E+00  0.00000000000E+00  0.17280120491E+04  0.17280120491E+04  0.00000000000E+00 0. -1.
         -2   -1    0    0    0  501 -0.00000000000E+00 -0.00000000000E+00 -0.81279413512E+03  0.81279413512E+03  0.00000000000E+00 0.  1.
        -24    2    1    2    0    0 -0.76629396668E+03  0.69515265709E+03  0.49473334732E+01  0.10377674640E+04  0.80580227815E+02 0.  0.
    5000000    2    1    2    0    0  0.76629396668E+03 -0.69515265709E+03  0.91027058051E+03  0.15030387203E+04  0.60007433276E+03 0.  0.
        -24    2    4    4    0    0 -0.16891900529E+01 -0.22469257671E+03  0.39868857649E+03  0.46408552032E+03  0.77027149448E+02 0.  0.
         24    2    4    4    0    0  0.76798315673E+03 -0.47046008038E+03  0.51158200402E+03  0.10389531999E+04  0.81097401822E+02 0.  0.
         11    1    5    5    0    0 -0.11474194402E+02 -0.10545251536E+03  0.11636037070E+03  0.15745356776E+03  0.00000000000E+00 0. -1.
        -12    1    5    5    0    0  0.97850043489E+01 -0.11924006136E+03  0.28232820579E+03  0.30663195255E+03  0.00000000000E+00 0.  1.
         15    1    3    3    0    0 -0.59019348846E+03  0.55947192009E+03 -0.24004901609E+02  0.81358255649E+03  0.17770000000E+01 0. -1.
        -16    1    3    3    0    0 -0.17610047822E+03  0.13568073700E+03  0.28952235082E+02  0.22418490747E+03  0.00000000000E+00 0.  1.
          4    1    6    6  502    0  0.51781505342E+03 -0.35495411483E+03  0.33361146633E+03  0.71092999912E+03  0.00000000000E+00 0. -1.
         -3    1    6    6    0  502  0.25016810331E+03 -0.11550596555E+03  0.17797053769E+03  0.32802320082E+03  0.00000000000E+00 0.  1.
<mgrwt>
<rscale>  0 0.10822958E+04</rscale>
<asrwt>0</asrwt>
<pdfrwt beam="1">  1        1 0.26584801E+00 0.10822958E+04</pdfrwt>
<pdfrwt beam="2">  1       -2 0.12504525E+00 0.10822958E+04</pdfrwt>
<totfact> 0.19001973E+00</totfact>
</mgrwt>
</event>
<event>
12    3  0.1176505E-007  0.1175611E+04  0.7818608E-02  0.9134476E-01
         -2   -1    0    0    0  501 -0.00000000000E+00  0.00000000000E+00  0.47448972307E+03  0.47448972307E+03  0.00000000000E+00 0.  1.
          1   -1    0    0  501    0  0.00000000000E+00 -0.00000000000E+00 -0.39381498505E+04  0.39381498505E+04  0.00000000000E+00 0. -1.
        -24    2    1    2    0    0 -0.23621333164E+03  0.11400130883E+04 -0.25829632676E+04  0.28343392810E+04  0.79707835289E+02 0.  0.
    5000000    2    1    2    0    0  0.23621333164E+03 -0.11400130883E+04 -0.88069685991E+03  0.15783002926E+04  0.59998189553E+03 0.  0.
        -24    2    4    4    0    0  0.14675105868E+03 -0.10031008113E+04 -0.94219183440E+03  0.13862895931E+04  0.79537866708E+02 0.  0.
         24    2    4    4    0    0  0.89462272965E+02 -0.13691227698E+03  0.61494974495E+02  0.19201069948E+03  0.79611600618E+02 0.  0.
         13    1    5    5    0    0  0.67664430176E+02 -0.50731406966E+03 -0.42211301645E+03  0.66341950457E+03  0.00000000000E+00 0. -1.
        -14    1    5    5    0    0  0.79086628504E+02 -0.49578674163E+03 -0.52007881796E+03  0.72287008851E+03  0.00000000000E+00 0.  1.
         15    1    3    3    0    0 -0.15132200214E+03  0.86859178602E+03 -0.19044721335E+04  0.20986584534E+04  0.17770000000E+01 0. -1.
        -16    1    3    3    0    0 -0.84891329502E+02  0.27142130225E+03 -0.67849113406E+03  0.73568082763E+03  0.00000000000E+00 0.  1.
          4    1    6    6  502    0  0.96202553670E+02 -0.12826114425E+03  0.36093551854E+02  0.16434292483E+03  0.00000000000E+00 0. -1.
         -3    1    6    6    0  502 -0.67402807049E+01 -0.86511327298E+01  0.25401422642E+02  0.27667774643E+02  0.00000000000E+00 0.  1.
<mgrwt>
<rscale>  0 0.11756113E+04</rscale>
<asrwt>0</asrwt>
<pdfrwt beam="1">  1        1 0.60586921E+00 0.11756113E+04</pdfrwt>
<pdfrwt beam="2">  1       -2 0.72998418E-01 0.11756113E+04</pdfrwt>
<totfact> 0.16457665E-01</totfact>
</mgrwt>
</event>
<event>
12    3  0.1176505E-007  0.5282336E+03  0.7818608E-02  0.1006661E+00
         -2   -1    0    0    0  501 -0.00000000000E+00  0.00000000000E+00  0.11462087488E+04  0.11462087488E+04  0.00000000000E+00 0.  1.
          1   -1    0    0  501    0  0.00000000000E+00 -0.00000000000E+00 -0.44274366082E+03  0.44274366082E+03  0.00000000000E+00 0. -1.
        -24    2    1    2    0    0  0.10425886521E+03 -0.45800761885E+03  0.67536432081E+03  0.82648843214E+03  0.79531583229E+02 0.  0.
    5000000    2    1    2    0    0 -0.10425886521E+03  0.45800761885E+03  0.28100767157E+02  0.76246397748E+03  0.59993397465E+03 0.  0.
        -24    2    4    4    0    0 -0.21754571010E+03  0.22827452105E+03 -0.22534975793E+03  0.39525132253E+03  0.77496461991E+02 0.  0.
         24    2    4    4    0    0  0.11328684490E+03  0.22973309780E+03  0.25345052508E+03  0.36721265494E+03  0.70687762978E+02 0.  0.
         13    1    5    5    0    0 -0.15351744582E+03  0.14993886310E+03 -0.10776228582E+03  0.24012908838E+03  0.00000000000E+00 0. -1.
        -14    1    5    5    0    0 -0.64028264288E+02  0.78335657948E+02 -0.11758747211E+03  0.15512223416E+03  0.00000000000E+00 0.  1.
         15    1    3    3    0    0 -0.69183173795E+01 -0.12460997122E+03  0.16800307370E+03  0.20929333134E+03  0.17770000000E+01 0. -1.
        -16    1    3    3    0    0  0.11117718259E+03 -0.33339764763E+03  0.50736124711E+03  0.61719510079E+03  0.00000000000E+00 0.  1.
          4    1    6    6  502    0 -0.78805432507E+01  0.28277751905E+02  0.17692444721E+02  0.34274725600E+02  0.00000000000E+00 0. -1.
         -3    1    6    6    0  502  0.12116738815E+03  0.20145534589E+03  0.23575808036E+03  0.33293792934E+03  0.00000000000E+00 0.  1.
<mgrwt>
<rscale>  0 0.52823361E+03</rscale>
<asrwt>0</asrwt>
<pdfrwt beam="1">  1        1 0.68114410E-01 0.52823361E+03</pdfrwt>
<pdfrwt beam="2">  1       -2 0.17633981E+00 0.52823361E+03</pdfrwt>
<totfact> 0.92395103E+00</totfact>
</mgrwt>
</event>
<event>
12    3  0.1176505E-007  0.6238896E+03  0.7818608E-02  0.9857046E-01
          1   -1    0    0  501    0  0.00000000000E+00  0.00000000000E+00  0.22160506191E+04  0.22160506191E+04  0.00000000000E+00 0. -1.
         -2   -1    0    0    0  501 -0.00000000000E+00 -0.00000000000E+00 -0.28158541064E+03  0.28158541064E+03  0.00000000000E+00 0.  1.
        -24    2    1    2    0    0  0.21439346775E+03 -0.54818212697E+03  0.13469172385E+04  0.14720821779E+04  0.79822853774E+02 0.  0.
    5000000    2    1    2    0    0 -0.21439346775E+03  0.54818212697E+03  0.58754796999E+03  0.10255538518E+04  0.60006656510E+03 0.  0.
        -24    2    4    4    0    0 -0.89302389744E+02  0.48887186566E+03  0.10111490133E+03  0.51349210483E+03  0.80494102937E+02 0.  0.
         24    2    4    4    0    0 -0.12509107801E+03  0.59310261310E+02  0.48643306866E+03  0.51206174697E+03  0.80153711869E+02 0.  0.
         11    1    5    5    0    0 -0.85231441354E+02  0.45162227227E+03  0.11460221351E+03  0.47366733342E+03  0.00000000000E+00 0. -1.
        -12    1    5    5    0    0 -0.40709483897E+01  0.37249593388E+02 -0.13487312179E+02  0.39824771414E+02  0.00000000000E+00 0.  1.
         15    1    3    3    0    0  0.16116927248E+03 -0.30489720585E+03  0.76973082090E+03  0.84346104528E+03  0.17770000000E+01 0. -1.
        -16    1    3    3    0    0  0.53224195270E+02 -0.24328492112E+03  0.57718641757E+03  0.62862113266E+03  0.00000000000E+00 0.  1.
          4    1    6    6  502    0 -0.73511785287E+02  0.72823755843E+02  0.36614284523E+03  0.38048372515E+03  0.00000000000E+00 0. -1.
         -3    1    6    6    0  502 -0.51579292722E+02 -0.13513494533E+02  0.12029022343E+03  0.13157802181E+03  0.00000000000E+00 0.  1.
<mgrwt>
<rscale>  0 0.62388956E+03</rscale>
<asrwt>0</asrwt>
<pdfrwt beam="1">  1        1 0.34093085E+00 0.62388956E+03</pdfrwt>
<pdfrwt beam="2">  1       -2 0.43320834E-01 0.62388956E+03</pdfrwt>
<totfact> 0.10063157E+01</totfact>
</mgrwt>
</event>
<event>
12    3  0.1176505E-007  0.5737594E+03  0.7818608E-02  0.9961394E-01
          3   -1    0    0  501    0  0.00000000000E+00  0.00000000000E+00  0.88037248056E+03  0.88037248056E+03  0.00000000000E+00 0. -1.
         -4   -1    0    0    0  501 -0.00000000000E+00 -0.00000000000E+00 -0.43832288448E+03  0.43832288448E+03  0.00000000000E+00 0.  1.
        -24    2    1    2    0    0 -0.18685565476E+03  0.41026080874E+03  0.32178528210E+03  0.55883801350E+03  0.74331626166E+02 0.  0.
    5000000    2    1    2    0    0  0.18685565476E+03 -0.41026080874E+03  0.12026431398E+03  0.75985735155E+03  0.59974221344E+03 0.  0.
        -24    2    4    4    0    0  0.15049159657E+03 -0.52497072462E+03  0.20933644630E+03  0.59030387516E+03  0.79968337104E+02 0.  0.
         24    2    4    4    0    0  0.36364058196E+02  0.11470991588E+03 -0.89072132312E+02  0.16955347638E+03  0.79585344568E+02 0.  0.
         13    1    5    5    0    0  0.30538026627E+02 -0.73526243994E+02  0.30565241384E+01  0.79674474997E+02  0.00000000000E+00 0. -1.
        -14    1    5    5    0    0  0.11995356994E+03 -0.45144448063E+03  0.20627992216E+03  0.51062940017E+03  0.00000000000E+00 0.  1.
         15    1    3    3    0    0 -0.35979703695E+02  0.16358930433E+03  0.12667710368E+03  0.21001487065E+03  0.17770000000E+01 0. -1.
        -16    1    3    3    0    0 -0.15087595107E+03  0.24667150441E+03  0.19510817842E+03  0.34882314285E+03  0.00000000000E+00 0.  1.
          4    1    6    6  502    0  0.43023841706E+02  0.17106221770E+02 -0.32156531868E+02  0.56371236638E+02  0.00000000000E+00 0. -1.
         -3    1    6    6    0  502 -0.66597835099E+01  0.97603694108E+02 -0.56915600444E+02  0.11318223975E+03  0.00000000000E+00 0.  1.
<mgrwt>
<rscale>  0 0.57375937E+03</rscale>
<asrwt>0</asrwt>
<pdfrwt beam="1">  1        3 0.13544192E+00 0.57375937E+03</pdfrwt>
<pdfrwt beam="2">  1       -4 0.67434290E-01 0.57375937E+03</pdfrwt>
<totfact> 0.19335386E+00</totfact>
</mgrwt>
</event>
<event>
12    3  0.1176505E-007  0.6209882E+03  0.7818608E-02  0.9862794E-01
         -2   -1    0    0    0  501 -0.00000000000E+00  0.00000000000E+00  0.23417903328E+03  0.23417903328E+03  0.00000000000E+00 0.  1.
          1   -1    0    0  501    0  0.00000000000E+00 -0.00000000000E+00 -0.22638697703E+04  0.22638697703E+04  0.00000000000E+00 0. -1.
        -24    2    1    2    0    0 -0.33156342132E+03  0.38847264439E+03 -0.13903180050E+04  0.14833536552E+04  0.80675978253E+02 0.  0.
    5000000    2    1    2    0    0  0.33156342132E+03 -0.38847264439E+03 -0.63937273195E+03  0.10146951484E+04  0.59996954584E+03 0.  0.
        -24    2    4    4    0    0  0.22638327619E+03 -0.50990292340E+03 -0.31867287323E+03  0.64757237599E+03  0.80914788353E+02 0.  0.
         24    2    4    4    0    0  0.10518014513E+03  0.12143027901E+03 -0.32069985872E+03  0.36712277237E+03  0.78246757270E+02 0.  0.
         13    1    5    5    0    0  0.72494163720E+02 -0.87651537714E+02 -0.52866843655E+02  0.12543165069E+03  0.00000000000E+00 0. -1.
        -14    1    5    5    0    0  0.15388911247E+03 -0.42225138568E+03 -0.26580602958E+03  0.52214072529E+03  0.00000000000E+00 0.  1.
         15    1    3    3    0    0 -0.24835193104E+03  0.23403724329E+03 -0.89098288380E+03  0.95409945491E+03  0.17770000000E+01 0. -1.
        -16    1    3    3    0    0 -0.83211490277E+02  0.15443540110E+03 -0.49933512125E+03  0.52925420030E+03  0.00000000000E+00 0.  1.
          2    1    6    6  502    0  0.28527734474E+02  0.48826980597E+02 -0.19465107027E+03  0.20269914856E+03  0.00000000000E+00 0. -1.
         -1    1    6    6    0  502  0.76652410654E+02  0.72603298411E+02 -0.12604878845E+03  0.16442362382E+03  0.00000000000E+00 0.  1.
<mgrwt>
<rscale>  0 0.62098820E+03</rscale>
<asrwt>0</asrwt>
<pdfrwt beam="1">  1        1 0.34828765E+00 0.62098820E+03</pdfrwt>
<pdfrwt beam="2">  1       -2 0.36027544E-01 0.62098820E+03</pdfrwt>
<totfact> 0.13375496E+01</totfact>
</mgrwt>
</event>
<event>
12    3  0.1494506E-007  0.8517016E+03  0.7818608E-02  0.9488056E-01
         -2   -1    0    0    0  501 -0.00000000000E+00  0.00000000000E+00  0.68136079220E+03  0.68136079220E+03  0.00000000000E+00 0.  1.
          1   -1    0    0  501    0  0.00000000000E+00 -0.00000000000E+00 -0.13320241888E+04  0.13320241888E+04  0.00000000000E+00 0. -1.
        -24    2    1    2    0    0  0.61568179928E+03 -0.56048292926E+03 -0.50520030575E+03  0.97690416254E+03  0.76871333330E+02 0.  0.
    5000000    2    1    2    0    0 -0.61568179928E+03  0.56048292926E+03 -0.14546309083E+03  0.10364808184E+04  0.59993981719E+03 0.  0.
        -24    2    4    4    0    0 -0.44401610272E+02  0.41763963700E+02  0.17183468229E+03  0.19945552076E+03  0.80867886492E+02 0.  0.
         24    2    4    4    0    0 -0.57128018901E+03  0.51871896556E+03 -0.31729777312E+03  0.83702529769E+03  0.67104787799E+02 0.  0.
         13    1    5    5    0    0 -0.66389024011E+02  0.31694943759E+02  0.10360766417E+03  0.12706935132E+03  0.00000000000E+00 0. -1.
        -14    1    5    5    0    0  0.21987413739E+02  0.10069019941E+02  0.68227018119E+02  0.72386169445E+02  0.00000000000E+00 0.  1.
         15    1    3    3    0    0  0.33847464581E+03 -0.34062404054E+03 -0.25633071873E+03  0.54433300281E+03  0.17770000000E+01 0. -1.
        -16    1    3    3    0    0  0.27720715348E+03 -0.21985888872E+03 -0.24886958702E+03  0.43257115973E+03  0.00000000000E+00 0.  1.
          4    1    6    6  502    0 -0.33821925570E+03  0.30659469225E+03 -0.15184674580E+03  0.48109251132E+03  0.00000000000E+00 0. -1.
         -3    1    6    6    0  502 -0.23306093331E+03  0.21212427331E+03 -0.16545102733E+03  0.35593278636E+03  0.00000000000E+00 0.  1.
<mgrwt>
<rscale>  0 0.85170156E+03</rscale>
<asrwt>0</asrwt>
<pdfrwt beam="1">  1        1 0.20492680E+00 0.85170156E+03</pdfrwt>
<pdfrwt beam="2">  1       -2 0.10482474E+00 0.85170156E+03</pdfrwt>
<totfact> 0.56463306E+00</totfact>
</mgrwt>
</event>
<event>
12    3  0.1176505E-007  0.8633273E+03  0.7818608E-02  0.9472622E-01
         -2   -1    0    0    0  501 -0.00000000000E+00  0.00000000000E+00  0.43656944853E+03  0.43656944853E+03  0.00000000000E+00 0.  1.
          1   -1    0    0  501    0  0.00000000000E+00 -0.00000000000E+00 -0.20363549300E+04  0.20363549300E+04  0.00000000000E+00 0. -1.
        -24    2    1    2    0    0 -0.10422653898E+03 -0.83430204584E+03 -0.60574393073E+03  0.10393333242E+04  0.79780788163E+02 0.  0.
    5000000    2    1    2    0    0  0.10422653898E+03  0.83430204584E+03 -0.99404155071E+03  0.14335910543E+04  0.60011801438E+03 0.  0.
        -24    2    4    4    0    0  0.16001777015E+03  0.75052722423E+03 -0.49126993866E+03  0.91440924082E+03  0.76819958284E+02 0.  0.
         24    2    4    4    0    0 -0.55791231168E+02  0.83774821607E+02 -0.50277161205E+03  0.51918181344E+03  0.81483613750E+02 0.  0.
         11    1    5    5    0    0  0.24140929505E+02  0.26237929532E+03 -0.14577117813E+03  0.30112275814E+03  0.00000000000E+00 0. -1.
        -12    1    5    5    0    0  0.13587684064E+03  0.48814792890E+03 -0.34549876052E+03  0.61328648268E+03  0.00000000000E+00 0.  1.
         15    1    3    3    0    0 -0.78309146669E+02 -0.32146231377E+03 -0.24848648634E+03  0.41378621684E+03  0.17770000000E+01 0. -1.
        -16    1    3    3    0    0 -0.25917392310E+02 -0.51283973207E+03 -0.35725744440E+03  0.62554710741E+03  0.00000000000E+00 0.  1.
          4    1    6    6  502    0  0.93261839817E+01  0.11767694071E+02 -0.21402454920E+03  0.21455060939E+03  0.00000000000E+00 0. -1.
         -3    1    6    6    0  502 -0.65117415150E+02  0.72007127536E+02 -0.28874706285E+03  0.30463120405E+03  0.00000000000E+00 0.  1.
<mgrwt>
<rscale>  0 0.86332735E+03</rscale>
<asrwt>0</asrwt>
<pdfrwt beam="1">  1        1 0.31328538E+00 0.86332735E+03</pdfrwt>
<pdfrwt beam="2">  1       -2 0.67164530E-01 0.86332735E+03</pdfrwt>
<totfact> 0.51611823E+00</totfact>
</mgrwt>
</event>
<event>
12    3  0.1176505E-007  0.7065700E+03  0.7818608E-02  0.9706062E-01
         -2   -1    0    0    0  501 -0.00000000000E+00  0.00000000000E+00  0.67078038390E+03  0.67078038390E+03  0.00000000000E+00 0.  1.
          1   -1    0    0  501    0  0.00000000000E+00 -0.00000000000E+00 -0.82457188168E+03  0.82457188168E+03  0.00000000000E+00 0. -1.
        -24    2    1    2    0    0  0.28859833171E+02  0.60095216810E+03 -0.21592705968E+03  0.64345478770E+03  0.73710042744E+02 0.  0.
    5000000    2    1    2    0    0 -0.28859833171E+02 -0.60095216810E+03  0.62135561900E+02  0.85189747788E+03  0.59991006530E+03 0.  0.
        -24    2    4    4    0    0 -0.18780915425E+03 -0.20293870619E+02  0.12603724226E+03  0.24113106024E+03  0.81084413861E+02 0.  0.
         24    2    4    4    0    0  0.15894932108E+03 -0.58065829748E+03 -0.63901680358E+02  0.61076641765E+03  0.80766620976E+02 0.  0.
         11    1    5    5    0    0 -0.45082201061E+02  0.26976756160E+02  0.16353501763E+02  0.55023515385E+02  0.00000000000E+00 0. -1.
        -12    1    5    5    0    0 -0.14272695319E+03 -0.47270626779E+02  0.10968374049E+03  0.18610754485E+03  0.00000000000E+00 0.  1.
         15    1    3    3    0    0  0.44320946504E+02  0.20914125719E+03 -0.67669414761E+02  0.22424700484E+03  0.17770000000E+01 0. -1.
        -16    1    3    3    0    0 -0.15461113333E+02  0.39181091092E+03 -0.14825764492E+03  0.41920778287E+03  0.00000000000E+00 0.  1.
          4    1    6    6  502    0  0.81248737944E+02 -0.20072655493E+03  0.64411343823E+01  0.21664255233E+03  0.00000000000E+00 0. -1.
         -3    1    6    6    0  502  0.77700583131E+02 -0.37993174256E+03 -0.70342814740E+02  0.39412386531E+03  0.00000000000E+00 0.  1.
<mgrwt>
<rscale>  0 0.70656999E+03</rscale>
<asrwt>0</asrwt>
<pdfrwt beam="1">  1        1 0.12685721E+00 0.70656999E+03</pdfrwt>
<pdfrwt beam="2">  1       -2 0.10319698E+00 0.70656999E+03</pdfrwt>
<totfact> 0.14508372E+01</totfact>
</mgrwt>
</event>
<event>
12    3  0.1176505E-007  0.9668192E+03  0.7818608E-02  0.9345705E-01
          1   -1    0    0  501    0  0.00000000000E+00  0.00000000000E+00  0.30917606909E+04  0.30917606909E+04  0.00000000000E+00 0. -1.
         -2   -1    0    0    0  501 -0.00000000000E+00 -0.00000000000E+00 -0.46868419449E+03  0.46868419449E+03  0.00000000000E+00 0.  1.
        -24    2    1    2    0    0 -0.88466220084E+02  0.92465912485E+03  0.21766773452E+04  0.23679649376E+04  0.80702610151E+02 0.  0.
    5000000    2    1    2    0    0  0.88466220084E+02 -0.92465912485E+03  0.44639915125E+03  0.11924799478E+04  0.59992954128E+03 0.  0.
        -24    2    4    4    0    0  0.15643555791E+03 -0.13290400488E+03  0.32078512306E+03  0.38392452421E+03  0.48573519759E+02 0.  0.
         24    2    4    4    0    0 -0.67969337830E+02 -0.79175511997E+03  0.12561402819E+03  0.80855542363E+03  0.80541840778E+02 0.  0.
         13    1    5    5    0    0  0.95212514888E+02 -0.97787866247E+02  0.17479173581E+03  0.22176573379E+03  0.00000000000E+00 0. -1.
        -14    1    5    5    0    0  0.61223043026E+02 -0.35116138628E+02  0.14599338725E+03  0.16215879042E+03  0.00000000000E+00 0.  1.
         15    1    3    3    0    0 -0.44979156348E+01  0.27518049132E+03  0.57078071530E+03  0.63367051118E+03  0.17770000000E+01 0. -1.
        -16    1    3    3    0    0 -0.83968304449E+02  0.64947863353E+03  0.16058966299E+04  0.17342944264E+04  0.00000000000E+00 0.  1.
          2    1    6    6  502    0 -0.69752488891E+02 -0.51443423483E+03  0.11079693060E+03  0.53083326149E+03  0.00000000000E+00 0. -1.
         -1    1    6    6    0  502  0.17831510613E+01 -0.27732088514E+03  0.14817097591E+02  0.27772216214E+03  0.00000000000E+00 0.  1.
<mgrwt>
<rscale>  0 0.96681919E+03</rscale>
<asrwt>0</asrwt>
<pdfrwt beam="1">  1        1 0.47565548E+00 0.96681919E+03</pdfrwt>
<pdfrwt beam="2">  1       -2 0.72105262E-01 0.96681919E+03</pdfrwt>
<totfact> 0.80794323E-01</totfact>
</mgrwt>
</event>
<event>
12    3  0.1176505E-007  0.7165425E+03  0.7818608E-02  0.9689353E-01
          1   -1    0    0  501    0  0.00000000000E+00  0.00000000000E+00  0.26023015885E+04  0.26023015885E+04  0.00000000000E+00 0. -1.
         -2   -1    0    0    0  501 -0.00000000000E+00 -0.00000000000E+00 -0.33531314328E+03  0.33531314328E+03  0.00000000000E+00 0.  1.
        -24    2    1    2    0    0 -0.49320864759E+03 -0.41381631822E+03  0.18112553659E+03  0.67366803029E+03  0.80767813890E+02 0.  0.
    5000000    2    1    2    0    0  0.49320864759E+03  0.41381631822E+03  0.20858629087E+04  0.22639467015E+04  0.60010988854E+03 0.  0.
        -24    2    4    4    0    0  0.27554498349E+03 -0.36671944803E+02  0.12854961941E+04  0.13175470664E+04  0.78485269783E+02 0.  0.
         24    2    4    4    0    0  0.21766366409E+03  0.45048826302E+03  0.80036671454E+03  0.94639963514E+03  0.69052486259E+02 0.  0.
         11    1    5    5    0    0  0.46108815205E+02  0.22509377931E+02  0.26264346937E+03  0.26760845827E+03  0.00000000000E+00 0. -1.
        -12    1    5    5    0    0  0.22943616829E+03 -0.59181322733E+02  0.10228527248E+04  0.10499386081E+04  0.00000000000E+00 0.  1.
         15    1    3    3    0    0 -0.40214462015E+03 -0.33044387950E+03  0.17824031212E+03  0.55016926451E+03  0.17770000000E+01 0. -1.
        -16    1    3    3    0    0 -0.91064027435E+02 -0.83372438718E+02  0.28852244636E+01  0.12349876579E+03  0.00000000000E+00 0.  1.
          4    1    6    6  502    0  0.16646220520E+03  0.32031090269E+03  0.62861790914E+03  0.72489255469E+03  0.00000000000E+00 0. -1.
         -3    1    6    6    0  502  0.51201458891E+02  0.13017736033E+03  0.17174880539E+03  0.22150708045E+03  0.00000000000E+00 0.  1.
<mgrwt>
<rscale>  0 0.71654252E+03</rscale>
<asrwt>0</asrwt>
<pdfrwt beam="1">  1        1 0.40035408E+00 0.71654252E+03</pdfrwt>
<pdfrwt beam="2">  1       -2 0.51586639E-01 0.71654252E+03</pdfrwt>
<totfact> 0.38128942E+00</totfact>
</mgrwt>
</event>
<event>
12    3  0.1176505E-007  0.3646939E+03  0.7818608E-02  0.1056741E+00
          1   -1    0    0  501    0  0.00000000000E+00  0.00000000000E+00  0.44244421545E+04  0.44244421545E+04  0.00000000000E+00 0. -1.
         -2   -1    0    0    0  501 -0.00000000000E+00 -0.00000000000E+00 -0.71817917677E+02  0.71817917677E+02  0.00000000000E+00 0.  1.
        -24    2    1    2    0    0 -0.24603718290E+03 -0.16901380281E+03  0.51499492547E+03  0.60054456302E+03  0.79586669732E+02 0.  0.
    5000000    2    1    2    0    0  0.24603718290E+03  0.16901380281E+03  0.38376293113E+04  0.38957155091E+04  0.60008385752E+03 0.  0.
        -24    2    4    4    0    0  0.18555721129E+03  0.23482057193E+03  0.37011889628E+04  0.37140324102E+04  0.75265037147E+02 0.  0.
         24    2    4    4    0    0  0.60479971617E+02 -0.65806769124E+02  0.13644034849E+03  0.18168309892E+03  0.80027632158E+02 0.  0.
         11    1    5    5    0    0  0.10222984261E+03  0.87851627529E+02  0.19754350802E+04  0.19800284355E+04  0.00000000000E+00 0. -1.
        -12    1    5    5    0    0  0.83327368675E+02  0.14696894440E+03  0.17257538826E+04  0.17340039747E+04  0.00000000000E+00 0.  1.
         15    1    3    3    0    0 -0.21230637987E+03 -0.11089713585E+03  0.42978688540E+03  0.49202855432E+03  0.17770000000E+01 0. -1.
        -16    1    3    3    0    0 -0.33730803033E+02 -0.58116666956E+02  0.85208040071E+02  0.10851600870E+03  0.00000000000E+00 0.  1.
          2    1    6    6  502    0  0.72861874177E+02 -0.74176008553E+02  0.12643928300E+03  0.16370041307E+03  0.00000000000E+00 0. -1.
         -3    1    6    6    0  502 -0.12381902560E+02  0.83692394284E+01  0.10001065491E+02  0.17982685855E+02  0.00000000000E+00 0.  1.
<mgrwt>
<rscale>  0 0.36469393E+03</rscale>
<asrwt>0</asrwt>
<pdfrwt beam="1">  1        1 0.68068319E+00 0.36469393E+03</pdfrwt>
<pdfrwt beam="2">  1       -2 0.11048914E-01 0.36469393E+03</pdfrwt>
<totfact> 0.24784115E+00</totfact>
</mgrwt>
</event>
<event>
12    3  0.1176505E-007  0.1476229E+04  0.7818608E-02  0.8900416E-01
          1   -1    0    0  501    0  0.00000000000E+00  0.00000000000E+00  0.15382660007E+04  0.15382660007E+04  0.00000000000E+00 0. -1.
         -2   -1    0    0    0  501 -0.00000000000E+00 -0.00000000000E+00 -0.16471419603E+04  0.16471419603E+04  0.00000000000E+00 0.  1.
        -24    2    1    2    0    0 -0.89377153554E+03  0.11717693174E+04 -0.47878337006E+03  0.15517406679E+04  0.82429934646E+02 0.  0.
    5000000    2    1    2    0    0  0.89377153554E+03 -0.11717693174E+04  0.36990741049E+03  0.16336672931E+04  0.60013868495E+03 0.  0.
        -24    2    4    4    0    0  0.44218968952E+03 -0.55774229583E+03  0.47625751654E+03  0.85995838416E+03  0.78096160995E+02 0.  0.
         24    2    4    4    0    0  0.45158184603E+03 -0.61402702154E+03 -0.10635010605E+03  0.77370890889E+03  0.79748252596E+02 0.  0.
         11    1    5    5    0    0  0.16129146997E+03 -0.25361828919E+03  0.17324236139E+03  0.34691510587E+03  0.00000000000E+00 0. -1.
        -12    1    5    5    0    0  0.28089821954E+03 -0.30412400664E+03  0.30301515515E+03  0.51304327830E+03  0.00000000000E+00 0.  1.
         15    1    3    3    0    0 -0.43916730651E+03  0.54525034789E+03 -0.18878168592E+03  0.72512588400E+03  0.17770000000E+01 0. -1.
        -16    1    3    3    0    0 -0.45460422903E+03  0.62651896948E+03 -0.29000168414E+03  0.82661478391E+03  0.00000000000E+00 0.  1.
          2    1    6    6  502    0  0.22322080917E+03 -0.34375752285E+03 -0.24916778060E+02  0.41063074653E+03  0.00000000000E+00 0. -1.
         -1    1    6    6    0  502  0.22836103686E+03 -0.27026949869E+03 -0.81433327991E+02  0.36307816236E+03  0.00000000000E+00 0.  1.
<mgrwt>
<rscale>  0 0.14762289E+04</rscale>
<asrwt>0</asrwt>
<pdfrwt beam="1">  1        1 0.23665631E+00 0.14762289E+04</pdfrwt>
<pdfrwt beam="2">  1       -2 0.25340645E+00 0.14762289E+04</pdfrwt>
<totfact> 0.31210476E-01</totfact>
</mgrwt>
</event>
<event>
12    3  0.1176505E-007  0.7404117E+03  0.7818608E-02  0.9650514E-01
         -2   -1    0    0    0  501 -0.00000000000E+00  0.00000000000E+00  0.38141420697E+03  0.38141420697E+03  0.00000000000E+00 0.  1.
          1   -1    0    0  501    0  0.00000000000E+00 -0.00000000000E+00 -0.16592236978E+04  0.16592236978E+04  0.00000000000E+00 0. -1.
        -24    2    1    2    0    0  0.55946022989E+03  0.37405047895E+03 -0.67003235138E+03  0.95313863814E+03  0.81365852711E+02 0.  0.
    5000000    2    1    2    0    0 -0.55946022989E+03 -0.37405047895E+03 -0.60777713946E+03  0.10874992666E+04  0.60029334002E+03 0.  0.
        -24    2    4    4    0    0 -0.10593364991E+03  0.93898360480E+02 -0.34390239348E+03  0.37993523807E+03  0.77737305072E+02 0.  0.
         24    2    4    4    0    0 -0.45352657998E+03 -0.46794883943E+03 -0.26387474598E+03  0.70756402857E+03  0.79715104543E+02 0.  0.
         11    1    5    5    0    0 -0.85834957974E+02  0.35511819543E+02 -0.14995378759E+03  0.17639406948E+03  0.00000000000E+00 0. -1.
        -12    1    5    5    0    0 -0.20098691937E+02  0.58386540938E+02 -0.19394860590E+03  0.20354116859E+03  0.00000000000E+00 0.  1.
         15    1    3    3    0    0  0.18846690284E+03  0.11111774832E+03 -0.26984730090E+03  0.34740128237E+03  0.17770000000E+01 0. -1.
        -16    1    3    3    0    0  0.37099332705E+03  0.26293273063E+03 -0.40018505048E+03  0.60573735577E+03  0.00000000000E+00 0.  1.
          2    1    6    6  502    0 -0.33867280830E+03 -0.37137665345E+03 -0.23463504697E+03  0.55468323850E+03  0.00000000000E+00 0. -1.
         -1    1    6    6    0  502 -0.11485377168E+03 -0.96572185986E+02 -0.29239699006E+02  0.15288079007E+03  0.00000000000E+00 0.  1.
<mgrwt>
<rscale>  0 0.74041165E+03</rscale>
<asrwt>0</asrwt>
<pdfrwt beam="1">  1        1 0.25526518E+00 0.74041165E+03</pdfrwt>
<pdfrwt beam="2">  1       -2 0.58679110E-01 0.74041165E+03</pdfrwt>
<totfact> 0.12543404E+01</totfact>
</mgrwt>
</event>
<event>
12    3  0.1176505E-007  0.6796296E+03  0.7818608E-02  0.9752717E-01
         -2   -1    0    0    0  501 -0.00000000000E+00  0.00000000000E+00  0.24536433291E+03  0.24536433291E+03  0.00000000000E+00 0.  1.
          1   -1    0    0  501    0  0.00000000000E+00 -0.00000000000E+00 -0.25471907523E+04  0.25471907523E+04  0.00000000000E+00 0. -1.
        -24    2    1    2    0    0  0.24682180415E+03  0.53787626280E+03 -0.41820549507E+03  0.72898689580E+03  0.79335874994E+02 0.  0.
    5000000    2    1    2    0    0 -0.24682180415E+03 -0.53787626280E+03 -0.18836209243E+04  0.20635681894E+04  0.60004500551E+03 0.  0.
        -24    2    4    4    0    0 -0.90376534758E+02  0.65749235646E+02 -0.92537056172E+02  0.16522452894E+03  0.79026313175E+02 0.  0.
         24    2    4    4    0    0 -0.15644526939E+03 -0.60362549845E+03 -0.17910838681E+04  0.18983436604E+04  0.82996179201E+02 0.  0.
         11    1    5    5    0    0 -0.68340040855E+02  0.82222830374E+02 -0.85304201378E+02  0.13677632029E+03  0.00000000000E+00 0. -1.
        -12    1    5    5    0    0 -0.22036493902E+02 -0.16473594728E+02 -0.72328547942E+01  0.28448208647E+02  0.00000000000E+00 0.  1.
         15    1    3    3    0    0  0.12657271015E+03  0.36590584643E+03 -0.26576744490E+03  0.46962030610E+03  0.17770000000E+01 0. -1.
        -16    1    3    3    0    0  0.12024909400E+03  0.17197041637E+03 -0.15243805017E+03  0.25936658970E+03  0.00000000000E+00 0.  1.
          2    1    6    6  502    0 -0.55431505660E+02 -0.10179644900E+03 -0.37967499611E+03  0.39697389275E+03  0.00000000000E+00 0. -1.
         -1    1    6    6    0  502 -0.10101376373E+03 -0.50182904945E+03 -0.14114088720E+04  0.15013697677E+04  0.00000000000E+00 0.  1.
<mgrwt>
<rscale>  0 0.67962960E+03</rscale>
<asrwt>0</asrwt>
<pdfrwt beam="1">  1        1 0.39187548E+00 0.67962960E+03</pdfrwt>
<pdfrwt beam="2">  1       -2 0.37748361E-01 0.67962960E+03</pdfrwt>
<totfact> 0.77853885E+00</totfact>
</mgrwt>
</event>
<event>
12    3  0.1176505E-007  0.1395195E+04  0.7818608E-02  0.8957304E-01
         -2   -1    0    0    0  501 -0.00000000000E+00  0.00000000000E+00  0.14198971170E+04  0.14198971170E+04  0.00000000000E+00 0.  1.
          1   -1    0    0  501    0  0.00000000000E+00 -0.00000000000E+00 -0.21114463975E+04  0.21114463975E+04  0.00000000000E+00 0. -1.
        -24    2    1    2    0    0 -0.13681702440E+04  0.17053933960E+03 -0.13118375083E+04  0.19048022654E+04  0.79878276639E+02 0.  0.
    5000000    2    1    2    0    0  0.13681702440E+04 -0.17053933960E+03  0.62028822779E+03  0.16265412491E+04  0.59992121714E+03 0.  0.
        -24    2    4    4    0    0  0.66554883526E+03 -0.23389746551E+03  0.58047741433E+03  0.91700696134E+03  0.79274599449E+02 0.  0.
         24    2    4    4    0    0  0.70262140870E+03  0.63358125911E+02  0.39810813457E+02  0.70953428778E+03  0.64520605910E+02 0.  0.
         11    1    5    5    0    0  0.23221714802E+02 -0.13188197392E+02  0.58286581926E+01  0.27334041873E+02  0.00000000000E+00 0. -1.
        -12    1    5    5    0    0  0.64232712046E+03 -0.22070926812E+03  0.57464875614E+03  0.88967291947E+03  0.00000000000E+00 0.  1.
         15    1    3    3    0    0 -0.10117584958E+04  0.13795093544E+03 -0.10159394583E+04  0.14404241928E+04  0.17770000000E+01 0. -1.
        -16    1    3    3    0    0 -0.35641174813E+03  0.32588404160E+02 -0.29589805000E+03  0.46437807257E+03  0.00000000000E+00 0.  1.
          4    1    6    6  502    0  0.39886831697E+01  0.17771226810E+00  0.60371442577E+01  0.72379752602E+01  0.00000000000E+00 0. -1.
         -3    1    6    6    0  502  0.69863272553E+03  0.63180413643E+02  0.33773669199E+02  0.70229631252E+03  0.00000000000E+00 0.  1.
<mgrwt>
<rscale>  0 0.13951950E+04</rscale>
<asrwt>0</asrwt>
<pdfrwt beam="1">  1        1 0.32483790E+00 0.13951950E+04</pdfrwt>
<pdfrwt beam="2">  1       -2 0.21844571E+00 0.13951950E+04</pdfrwt>
<totfact> 0.21132988E-01</totfact>
</mgrwt>
</event>
<event>
12    3  0.1176505E-007  0.1237184E+04  0.7818608E-02  0.9080918E-01
          1   -1    0    0  501    0  0.00000000000E+00  0.00000000000E+00  0.39214601719E+04  0.39214601719E+04  0.00000000000E+00 0. -1.
         -2   -1    0    0    0  501 -0.00000000000E+00 -0.00000000000E+00 -0.45496097439E+03  0.45496097439E+03  0.00000000000E+00 0.  1.
        -24    2    1    2    0    0  0.40875974889E+03  0.11586153069E+04  0.21529336828E+04  0.24803854837E+04  0.87833612271E+02 0.  0.
    5000000    2    1    2    0    0 -0.40875974889E+03 -0.11586153069E+04  0.13135655147E+04  0.18960356626E+04  0.60001909200E+03 0.  0.
        -24    2    4    4    0    0 -0.29705093866E+03 -0.61528652457E+03  0.32735781479E+03  0.76175281240E+03  0.79293384484E+02 0.  0.
         24    2    4    4    0    0 -0.11170881023E+03 -0.54332878232E+03  0.98620769988E+03  0.11342828502E+04  0.79416200605E+02 0.  0.
         11    1    5    5    0    0 -0.18688751542E+03 -0.45598544165E+03  0.21327537556E+03  0.53696932151E+03  0.00000000000E+00 0. -1.
        -12    1    5    5    0    0 -0.11016342324E+03 -0.15930108292E+03  0.11408243923E+03  0.22478349090E+03  0.00000000000E+00 0.  1.
         15    1    3    3    0    0  0.21160315323E+03  0.63091186630E+03  0.12510957968E+04  0.14170636994E+04  0.17770000000E+01 0. -1.
        -16    1    3    3    0    0  0.19715659566E+03  0.52770344059E+03  0.90183788603E+03  0.10633217844E+04  0.00000000000E+00 0.  1.
          2    1    6    6  502    0 -0.82745130585E+02 -0.22985906879E+03  0.46869695997E+03  0.52854402695E+03  0.00000000000E+00 0. -1.
         -1    1    6    6    0  502 -0.28963679647E+02 -0.31346971352E+03  0.51751073991E+03  0.60573882322E+03  0.00000000000E+00 0.  1.
<mgrwt>
<rscale>  0 0.12371843E+04</rscale>
<asrwt>0</asrwt>
<pdfrwt beam="1">  1        1 0.60330154E+00 0.12371843E+04</pdfrwt>
<pdfrwt beam="2">  1       -2 0.69993999E-01 0.12371843E+04</pdfrwt>
<totfact> 0.18482964E-01</totfact>
</mgrwt>
</event>
<event>
12    3  0.1176505E-007  0.1663889E+04  0.7818608E-02  0.8782232E-01
         -2   -1    0    0    0  501 -0.00000000000E+00  0.00000000000E+00  0.65842903490E+03  0.65842903490E+03  0.00000000000E+00 0.  1.
          1   -1    0    0  501    0  0.00000000000E+00 -0.00000000000E+00 -0.43661437833E+04  0.43661437833E+04  0.00000000000E+00 0. -1.
        -24    2    1    2    0    0  0.15123222729E+04  0.55833332734E+03 -0.13398262431E+04  0.20977521185E+04  0.81085308457E+02 0.  0.
    5000000    2    1    2    0    0 -0.15123222729E+04 -0.55833332734E+03 -0.23678885053E+04  0.29268206997E+04  0.60044039968E+03 0.  0.
        -24    2    4    4    0    0 -0.10845414714E+04 -0.10918277154E+03 -0.15490702632E+04  0.18958624563E+04  0.80775566589E+02 0.  0.
         24    2    4    4    0    0 -0.42778080152E+03 -0.44915055580E+03 -0.81881824206E+03  0.10309582434E+04  0.87629619739E+02 0.  0.
         13    1    5    5    0    0 -0.79539153345E+03 -0.59381181523E+02 -0.10803145583E+04  0.13428526952E+04  0.00000000000E+00 0. -1.
        -14    1    5    5    0    0 -0.28914993792E+03 -0.49801590016E+02 -0.46875570488E+03  0.55300976106E+03  0.00000000000E+00 0.  1.
         15    1    3    3    0    0  0.81251954793E+03  0.32546571540E+03 -0.76931745888E+03  0.11653190370E+04  0.17770000000E+01 0. -1.
        -16    1    3    3    0    0  0.69980272494E+03  0.23286761193E+03 -0.57050878425E+03  0.93243308148E+03  0.00000000000E+00 0.  1.
          2    1    6    6  502    0 -0.22392890377E+03 -0.28358270847E+03 -0.42847599304E+03  0.56049530158E+03  0.00000000000E+00 0. -1.
         -1    1    6    6    0  502 -0.20385189775E+03 -0.16556784733E+03 -0.39034224902E+03  0.47046294185E+03  0.00000000000E+00 0.  1.
<mgrwt>
<rscale>  0 0.16638894E+04</rscale>
<asrwt>0</asrwt>
<pdfrwt beam="1">  1        1 0.67171441E+00 0.16638894E+04</pdfrwt>
<pdfrwt beam="2">  1       -2 0.10129678E+00 0.16638894E+04</pdfrwt>
<totfact> 0.29400412E-02</totfact>
</mgrwt>
</event>
<event>
12    3  0.1176505E-007  0.3620375E+03  0.7818608E-02  0.1057780E+00
         -2   -1    0    0    0  501 -0.00000000000E+00  0.00000000000E+00  0.22120088646E+03  0.22120088646E+03  0.00000000000E+00 0.  1.
          1   -1    0    0  501    0  0.00000000000E+00 -0.00000000000E+00 -0.86979488204E+03  0.86979488204E+03  0.00000000000E+00 0. -1.
        -24    2    1    2    0    0 -0.11426794863E+03 -0.81324829060E+02  0.40285701793E+02  0.16657921478E+03  0.80341801825E+02 0.  0.
    5000000    2    1    2    0    0  0.11426794863E+03  0.81324829060E+02 -0.68887969737E+03  0.92441655373E+03  0.60026647037E+03 0.  0.
        -24    2    4    4    0    0  0.33984121992E+03  0.45625269953E+02 -0.52570105984E+03  0.63262434900E+03  0.79235362221E+02 0.  0.
         24    2    4    4    0    0 -0.22557327129E+03  0.35699559108E+02 -0.16317863753E+03  0.29179220472E+03  0.79734959402E+02 0.  0.
         13    1    5    5    0    0  0.27085670990E+03  0.60141243506E+02 -0.37732304839E+03  0.46835137377E+03  0.00000000000E+00 0. -1.
        -14    1    5    5    0    0  0.68984510018E+02 -0.14515973554E+02 -0.14837801145E+03  0.16427297523E+03  0.00000000000E+00 0.  1.
         15    1    3    3    0    0 -0.80821025497E+02 -0.70927388431E+02 -0.69559476183E+01  0.10776954824E+03  0.17770000000E+01 0. -1.
        -16    1    3    3    0    0 -0.33446923134E+02 -0.10397440629E+02  0.47241649411E+02  0.58809666534E+02  0.00000000000E+00 0.  1.
          2    1    6    6  502    0 -0.14741803883E+03 -0.51268166364E+00 -0.64797308168E+02  0.16103115276E+03  0.00000000000E+00 0. -1.
         -1    1    6    6    0  502 -0.78155232461E+02  0.36212240771E+02 -0.98381329365E+02  0.13076105196E+03  0.00000000000E+00 0.  1.
<mgrwt>
<rscale>  0 0.36203746E+03</rscale>
<asrwt>0</asrwt>
<pdfrwt beam="1">  1        1 0.13381460E+00 0.36203746E+03</pdfrwt>
<pdfrwt beam="2">  1       -2 0.34030905E-01 0.36203746E+03</pdfrwt>
<totfact> 0.14334341E+02</totfact>
</mgrwt>
</event>
<event>
12    3  0.1176505E-007  0.5276764E+03  0.7818608E-02  0.1006797E+00
          1   -1    0    0  501    0  0.00000000000E+00  0.00000000000E+00  0.12277512581E+04  0.12277512581E+04  0.00000000000E+00 0. -1.
         -2   -1    0    0    0  501 -0.00000000000E+00 -0.00000000000E+00 -0.41271422007E+03  0.41271422007E+03  0.00000000000E+00 0.  1.
        -24    2    1    2    0    0 -0.47333101576E+03 -0.75252139928E+02 -0.43298376767E+02  0.48867901433E+03  0.85013496385E+02 0.  0.
    5000000    2    1    2    0    0  0.47333101576E+03  0.75252139928E+02  0.85833541483E+03  0.11517864639E+04  0.60013934963E+03 0.  0.
        -24    2    4    4    0    0  0.46645217303E+03  0.34242370684E+01  0.25215429401E+03  0.53620788156E+03  0.79672762855E+02 0.  0.
         24    2    4    4    0    0  0.68788427342E+01  0.71827902859E+02  0.60618112082E+03  0.61557858231E+03  0.79214100123E+02 0.  0.
         11    1    5    5    0    0  0.23849048950E+03  0.40261563631E+02  0.14049408468E+03  0.27970930431E+03  0.00000000000E+00 0. -1.
        -12    1    5    5    0    0  0.22796168353E+03 -0.36837326563E+02  0.11166020934E+03  0.25649857725E+03  0.00000000000E+00 0.  1.
         15    1    3    3    0    0 -0.34705842576E+03 -0.82419680449E+02 -0.57825156540E+02  0.36137163844E+03  0.17770000000E+01 0. -1.
        -16    1    3    3    0    0 -0.12627259000E+03  0.71675405215E+01  0.14526779772E+02  0.12730737588E+03  0.00000000000E+00 0.  1.
          2    1    6    6  502    0  0.26922368377E+02  0.74445499835E+02  0.36162904799E+03  0.37019253736E+03  0.00000000000E+00 0. -1.
         -1    1    6    6    0  502 -0.20043525643E+02 -0.26175969750E+01  0.24455207283E+03  0.24538604495E+03  0.00000000000E+00 0.  1.
<mgrwt>
<rscale>  0 0.52767635E+03</rscale>
<asrwt>0</asrwt>
<pdfrwt beam="1">  1        1 0.18888481E+00 0.52767635E+03</pdfrwt>
<pdfrwt beam="2">  1       -2 0.63494496E-01 0.52767635E+03</pdfrwt>
<totfact> 0.21715786E+01</totfact>
</mgrwt>
</event>
<event>
12    3  0.1176505E-007  0.9884609E+03  0.7818608E-02  0.9321292E-01
         -2   -1    0    0    0  501 -0.00000000000E+00  0.00000000000E+00  0.44386287585E+03  0.44386287585E+03  0.00000000000E+00 0.  1.
          1   -1    0    0  501    0  0.00000000000E+00 -0.00000000000E+00 -0.23565282629E+04  0.23565282629E+04  0.00000000000E+00 0. -1.
        -24    2    1    2    0    0 -0.86092122352E+03  0.34762811746E+03 -0.99879425944E+03  0.13661043451E+04  0.81366134938E+02 0.  0.
    5000000    2    1    2    0    0  0.86092122352E+03 -0.34762811746E+03 -0.91387112760E+03  0.14342867936E+04  0.59998958938E+03 0.  0.
        -24    2    4    4    0    0  0.69943633598E+03 -0.47370550481E+02 -0.79820501032E+03  0.10653112740E+04  0.79383340957E+02 0.  0.
         24    2    4    4    0    0  0.16148488754E+03 -0.30025756698E+03 -0.11566611729E+03  0.36897551966E+03  0.80822694739E+02 0.  0.
         13    1    5    5    0    0  0.20506086614E+02  0.11604011551E+02 -0.20149595569E+02  0.31002562376E+02  0.00000000000E+00 0. -1.
        -14    1    5    5    0    0  0.67893024937E+03 -0.58974562032E+02 -0.77805541475E+03  0.10343087116E+04  0.00000000000E+00 0.  1.
         15    1    3    3    0    0 -0.43991624638E+03  0.18875603580E+03 -0.45710648663E+03  0.66189473689E+03  0.17770000000E+01 0. -1.
        -16    1    3    3    0    0 -0.42100497714E+03  0.15887208166E+03 -0.54168777282E+03  0.70420960823E+03  0.00000000000E+00 0.  1.
          2    1    6    6  502    0  0.93061204628E+02 -0.21187070631E+03 -0.42219130579E+02  0.23522763228E+03  0.00000000000E+00 0. -1.
         -1    1    6    6    0  502  0.68423682913E+02 -0.88386860668E+02 -0.73446986707E+02  0.13374788738E+03  0.00000000000E+00 0.  1.
<mgrwt>
<rscale>  0 0.98846090E+03</rscale>
<asrwt>0</asrwt>
<pdfrwt beam="1">  1        1 0.36254281E+00 0.98846090E+03</pdfrwt>
<pdfrwt beam="2">  1       -2 0.68286596E-01 0.98846090E+03</pdfrwt>
<totfact> 0.29759383E+00</totfact>
</mgrwt>
</event>
<event>
12    3  0.1176505E-007  0.1207871E+04  0.7818608E-02  0.9105995E-01
          1   -1    0    0  501    0  0.00000000000E+00  0.00000000000E+00  0.19763035305E+04  0.19763035305E+04  0.00000000000E+00 0. -1.
         -2   -1    0    0    0  501 -0.00000000000E+00 -0.00000000000E+00 -0.76506912759E+03  0.76506912759E+03  0.00000000000E+00 0.  1.
        -24    2    1    2    0    0  0.11058611365E+04  0.32050272972E+03  0.67194134808E+03  0.13354705006E+04  0.79532569881E+02 0.  0.
    5000000    2    1    2    0    0 -0.11058611365E+04 -0.32050272972E+03  0.53929305485E+03  0.14059021575E+04  0.60006085062E+03 0.  0.
        -24    2    4    4    0    0 -0.30622177911E+02  0.94116438751E+02  0.12542105986E+03  0.17882881298E+03  0.80334801129E+02 0.  0.
         24    2    4    4    0    0 -0.10752389586E+04 -0.41461916847E+03  0.41387199498E+03  0.12270733445E+04  0.79819118157E+02 0.  0.
         13    1    5    5    0    0  0.12491347209E+02  0.18589826685E+02 -0.41504658186E+01  0.22778098643E+02  0.00000000000E+00 0. -1.
        -14    1    5    5    0    0 -0.43113525120E+02  0.75526612066E+02  0.12957152568E+03  0.15605071434E+03  0.00000000000E+00 0.  1.
         15    1    3    3    0    0  0.54055610008E+03  0.18930377499E+03  0.30549335732E+03  0.64912723379E+03  0.17770000000E+01 0. -1.
        -16    1    3    3    0    0  0.56530503644E+03  0.13119895473E+03  0.36644799077E+03  0.68634326680E+03  0.00000000000E+00 0.  1.
          2    1    6    6  502    0 -0.11104534729E+03 -0.57923698118E+02  0.23704639695E+02  0.12746816819E+03  0.00000000000E+00 0. -1.
         -1    1    6    6    0  502 -0.96419361133E+03 -0.35669547035E+03  0.39016735529E+03  0.10996051763E+04  0.00000000000E+00 0.  1.
<mgrwt>
<rscale>  0 0.12078709E+04</rscale>
<asrwt>0</asrwt>
<pdfrwt beam="1">  1        1 0.30404669E+00 0.12078709E+04</pdfrwt>
<pdfrwt beam="2">  1       -2 0.11770294E+00 0.12078709E+04</pdfrwt>
<totfact> 0.14805207E+00</totfact>
</mgrwt>
</event>
<event>
12    3  0.1176505E-007  0.7572365E+03  0.7818608E-02  0.9624065E-01
          1   -1    0    0  501    0  0.00000000000E+00  0.00000000000E+00  0.12154037024E+04  0.12154037024E+04  0.00000000000E+00 0. -1.
         -2   -1    0    0    0  501 -0.00000000000E+00 -0.00000000000E+00 -0.50290409984E+03  0.50290409984E+03  0.00000000000E+00 0.  1.
        -24    2    1    2    0    0 -0.53622089630E+03  0.39152342455E+03  0.31455440934E+03  0.73897721555E+03  0.79494698321E+02 0.  0.
    5000000    2    1    2    0    0  0.53622089630E+03 -0.39152342455E+03  0.39794519317E+03  0.97933058664E+03  0.59992047771E+03 0.  0.
        -24    2    4    4    0    0  0.47851966842E+03 -0.37455249155E+02  0.36795020855E+03  0.60990791710E+03  0.78843786130E+02 0.  0.
         24    2    4    4    0    0  0.57701227881E+02 -0.35406817539E+03  0.29994984620E+02  0.36942266955E+03  0.82943988025E+02 0.  0.
         11    1    5    5    0    0  0.95222103247E+02  0.13114983151E+02  0.10494397347E+03  0.14231124094E+03  0.00000000000E+00 0. -1.
        -12    1    5    5    0    0  0.38329756517E+03 -0.50570232306E+02  0.26300623508E+03  0.46759667616E+03  0.00000000000E+00 0.  1.
         15    1    3    3    0    0 -0.19051785612E+03  0.12730054225E+03  0.14955875164E+03  0.27363015090E+03  0.17770000000E+01 0. -1.
        -16    1    3    3    0    0 -0.34570304018E+03  0.26422288230E+03  0.16499565771E+03  0.46534706465E+03  0.00000000000E+00 0.  1.
          2    1    6    6  502    0 -0.87066160753E+01 -0.19380550181E+03  0.42611357256E+01  0.19404776467E+03  0.00000000000E+00 0. -1.
         -1    1    6    6    0  502  0.66407843956E+02 -0.16026267358E+03  0.25733848894E+02  0.17537490488E+03  0.00000000000E+00 0.  1.
<mgrwt>
<rscale>  0 0.75723649E+03</rscale>
<asrwt>0</asrwt>
<pdfrwt beam="1">  1        1 0.18698518E+00 0.75723649E+03</pdfrwt>
<pdfrwt beam="2">  1       -2 0.77369862E-01 0.75723649E+03</pdfrwt>
<totfact> 0.13962086E+01</totfact>
</mgrwt>
</event>
<event>
12    3  0.1710564E-007  0.1105859E+04  0.7818608E-02  0.9199500E-01
         -4   -1    0    0    0  501 -0.00000000000E+00  0.00000000000E+00  0.17811782085E+04  0.17811782085E+04  0.00000000000E+00 0.  1.
          1   -1    0    0  501    0  0.00000000000E+00 -0.00000000000E+00 -0.87981973903E+03  0.87981973903E+03  0.00000000000E+00 0. -1.
        -24    2    1    2    0    0 -0.10519430270E+04 -0.11906439438E+03  0.97534051195E+03  0.14416724092E+04  0.79810769462E+02 0.  0.
    5000000    2    1    2    0    0  0.10519430270E+04  0.11906439438E+03 -0.73982042470E+02  0.12193255384E+04  0.60043397953E+03 0.  0.
        -24    2    4    4    0    0  0.90198702923E+03 -0.69183053951E+02  0.97432032771E+02  0.91329190617E+03  0.79007651600E+02 0.  0.
         24    2    4    4    0    0  0.14995599781E+03  0.18824744833E+03 -0.17141407524E+03  0.30603363220E+03  0.79686233228E+02 0.  0.
         11    1    5    5    0    0  0.41367960581E+03 -0.27073435328E+02  0.83994356569E+02  0.42298798931E+03  0.00000000000E+00 0. -1.
        -12    1    5    5    0    0  0.48830742342E+03 -0.42109618623E+02  0.13437676203E+02  0.49030391686E+03  0.00000000000E+00 0.  1.
         15    1    3    3    0    0 -0.79750322013E+03 -0.90322447795E+02  0.78445496740E+03  0.11222933147E+04  0.17770000000E+01 0. -1.
        -16    1    3    3    0    0 -0.25443980692E+03 -0.28741946587E+02  0.19088554455E+03  0.31937909443E+03  0.00000000000E+00 0.  1.
          2    1    6    6  502    0  0.27819110725E+02  0.81652915735E+02 -0.31304966025E+02  0.91766565084E+02  0.00000000000E+00 0. -1.
         -1    1    6    6    0  502  0.12213688709E+03  0.10659453260E+03 -0.14010910922E+03  0.21426706712E+03  0.00000000000E+00 0.  1.
<mgrwt>
<rscale>  0 0.11058592E+04</rscale>
<asrwt>0</asrwt>
<pdfrwt beam="1">  1        1 0.13535688E+00 0.11058592E+04</pdfrwt>
<pdfrwt beam="2">  1       -4 0.27402742E+00 0.11058592E+04</pdfrwt>
<totfact> 0.39769585E-01</totfact>
</mgrwt>
</event>
<event>
12    3  0.1176505E-007  0.4429031E+03  0.7818608E-02  0.1029860E+00
          1   -1    0    0  501    0  0.00000000000E+00  0.00000000000E+00  0.29923012251E+03  0.29923012251E+03  0.00000000000E+00 0. -1.
         -2   -1    0    0    0  501 -0.00000000000E+00 -0.00000000000E+00 -0.89934520425E+03  0.89934520425E+03  0.00000000000E+00 0.  1.
        -24    2    1    2    0    0 -0.32295136055E+03  0.74984307206E+02 -0.28399023565E+03  0.44363226984E+03  0.78986766539E+02 0.  0.
    5000000    2    1    2    0    0  0.32295136055E+03 -0.74984307206E+02 -0.31612484609E+03  0.75494305692E+03  0.60006989031E+03 0.  0.
        -24    2    4    4    0    0  0.30613795914E+03 -0.21883096197E+03 -0.41216615426E+03  0.56355760487E+03  0.78158782887E+02 0.  0.
         24    2    4    4    0    0  0.16813401409E+02  0.14384665477E+03  0.96041308164E+02  0.19138545205E+03  0.80186706050E+02 0.  0.
         11    1    5    5    0    0  0.22146317843E+03 -0.19719054516E+03 -0.32904824052E+03  0.44294784692E+03  0.00000000000E+00 0. -1.
        -12    1    5    5    0    0  0.84674780710E+02 -0.21640416815E+02 -0.83117913738E+02  0.12060975795E+03  0.00000000000E+00 0.  1.
         15    1    3    3    0    0 -0.26463800155E+03  0.33827324368E+02 -0.20016459097E+03  0.33353647619E+03  0.17770000000E+01 0. -1.
        -16    1    3    3    0    0 -0.58313359001E+02  0.41156982838E+02 -0.83825644676E+02  0.11009579365E+03  0.00000000000E+00 0.  1.
          4    1    6    6  502    0 -0.29494199847E+02  0.76391117325E+02  0.62248003197E+02  0.10286070451E+03  0.00000000000E+00 0. -1.
         -3    1    6    6    0  502  0.46307601256E+02  0.67455537443E+02  0.33793304967E+02  0.88524747537E+02  0.00000000000E+00 0.  1.
<mgrwt>
<rscale>  0 0.44290310E+03</rscale>
<asrwt>0</asrwt>
<pdfrwt beam="1">  1        1 0.46035404E-01 0.44290310E+03</pdfrwt>
<pdfrwt beam="2">  1       -2 0.13836080E+00 0.44290310E+03</pdfrwt>
<totfact> 0.29706138E+01</totfact>
</mgrwt>
</event>
<event>
12    3  0.1176505E-007  0.3675797E+03  0.7818608E-02  0.1055622E+00
          3   -1    0    0  501    0  0.00000000000E+00  0.00000000000E+00  0.67914096521E+03  0.67914096521E+03  0.00000000000E+00 0. -1.
         -4   -1    0    0    0  501 -0.00000000000E+00 -0.00000000000E+00 -0.66180357327E+03  0.66180357327E+03  0.00000000000E+00 0.  1.
        -24    2    1    2    0    0 -0.14689014353E+03 -0.24550469227E+02 -0.50440903767E+03  0.53195406646E+03  0.79794810221E+02 0.  0.
    5000000    2    1    2    0    0  0.14689014353E+03  0.24550469227E+02  0.52174642960E+03  0.80899047202E+03  0.60005567010E+03 0.  0.
        -24    2    4    4    0    0  0.35031572177E+03 -0.25934113571E+02  0.44313602125E+03  0.57097657326E+03  0.79063460068E+02 0.  0.
         24    2    4    4    0    0 -0.20342557824E+03  0.50484582797E+02  0.78610408348E+02  0.23801389876E+03  0.80872496669E+02 0.  0.
         11    1    5    5    0    0  0.82453837454E+02  0.12643570311E+02  0.15269638126E+03  0.17399620695E+03  0.00000000000E+00 0. -1.
        -12    1    5    5    0    0  0.26786188432E+03 -0.38577683882E+02  0.29043963999E+03  0.39698036632E+03  0.00000000000E+00 0.  1.
         15    1    3    3    0    0 -0.53858612147E+02 -0.39141494705E+02 -0.13236126999E+03  0.14817378389E+03  0.17770000000E+01 0. -1.
        -16    1    3    3    0    0 -0.93031531384E+02  0.14591025478E+02 -0.37204776768E+03  0.38378028257E+03  0.00000000000E+00 0.  1.
          2    1    6    6  502    0 -0.15581559045E+03  0.67468887641E+02  0.79436133510E+02  0.18745839094E+03  0.00000000000E+00 0. -1.
         -1    1    6    6    0  502 -0.47609987796E+02 -0.16984304844E+02 -0.82572516136E+00  0.50555507820E+02  0.00000000000E+00 0.  1.
<mgrwt>
<rscale>  0 0.36757972E+03</rscale>
<asrwt>0</asrwt>
<pdfrwt beam="1">  1        3 0.10448323E+00 0.36757972E+03</pdfrwt>
<pdfrwt beam="2">  1       -4 0.10181593E+00 0.36757972E+03</pdfrwt>
<totfact> 0.14102696E+00</totfact>
</mgrwt>
</event>
<event>
12    3  0.1176505E-007  0.7510579E+03  0.7818608E-02  0.9633692E-01
         -2   -1    0    0    0  501 -0.00000000000E+00  0.00000000000E+00  0.59950632913E+03  0.59950632913E+03  0.00000000000E+00 0.  1.
          1   -1    0    0  501    0  0.00000000000E+00 -0.00000000000E+00 -0.20675563022E+04  0.20675563022E+04  0.00000000000E+00 0. -1.
        -24    2    1    2    0    0 -0.53199912617E+03  0.38128627726E+03 -0.16355850883E+04  0.17634663239E+04  0.79199739613E+02 0.  0.
    5000000    2    1    2    0    0  0.53199912617E+03 -0.38128627726E+03  0.16753511521E+03  0.90359630752E+03  0.60001331373E+03 0.  0.
        -24    2    4    4    0    0 -0.84637020034E+02 -0.16280097302E+03 -0.58539653766E+02  0.20705263889E+03  0.76002119895E+02 0.  0.
         24    2    4    4    0    0  0.61663614621E+03 -0.21848530423E+03  0.22607476898E+03  0.69654366863E+03  0.78021254592E+02 0.  0.
         11    1    5    5    0    0 -0.79854510138E+02 -0.16564781707E+03 -0.68012786623E+02  0.19606550240E+03  0.00000000000E+00 0. -1.
        -12    1    5    5    0    0 -0.47825098963E+01  0.28468440446E+01  0.94731328569E+01  0.10987136481E+02  0.00000000000E+00 0.  1.
         15    1    3    3    0    0 -0.43129178144E+03  0.33351490705E+03 -0.12943919639E+04  0.14045278594E+04  0.17770000000E+01 0. -1.
        -16    1    3    3    0    0 -0.10070734474E+03  0.47771370208E+02 -0.34119312442E+03  0.35893846443E+03  0.00000000000E+00 0.  1.
          4    1    6    6  502    0  0.23963776262E+03 -0.11011386204E+03  0.59377409966E+02  0.27032757296E+03  0.00000000000E+00 0. -1.
         -3    1    6    6    0  502  0.37699838359E+03 -0.10837144219E+03  0.16669735901E+03  0.42621609567E+03  0.00000000000E+00 0.  1.
<mgrwt>
<rscale>  0 0.75105794E+03</rscale>
<asrwt>0</asrwt>
<pdfrwt beam="1">  1        1 0.31808559E+00 0.75105794E+03</pdfrwt>
<pdfrwt beam="2">  1       -2 0.92231741E-01 0.75105794E+03</pdfrwt>
<totfact> 0.24577129E+00</totfact>
</mgrwt>
</event>
<event>
12    3  0.1176505E-007  0.2693315E+03  0.7818608E-02  0.1101663E+00
          1   -1    0    0  501    0  0.00000000000E+00  0.00000000000E+00  0.20784048507E+03  0.20784048507E+03  0.00000000000E+00 0. -1.
         -2   -1    0    0    0  501 -0.00000000000E+00 -0.00000000000E+00 -0.83946953413E+03  0.83946953413E+03  0.00000000000E+00 0.  1.
        -24    2    1    2    0    0  0.84542129573E+02  0.55871313279E+02 -0.35736972393E+03  0.37992082844E+03  0.79735443681E+02 0.  0.
    5000000    2    1    2    0    0 -0.84542129573E+02 -0.55871313279E+02 -0.27425932513E+03  0.66738919076E+03  0.59993431241E+03 0.  0.
        -24    2    4    4    0    0  0.13837142347E+03  0.47375365142E+02  0.11341066759E+03  0.20164499121E+03  0.80047778849E+02 0.  0.
         24    2    4    4    0    0 -0.22291355305E+03 -0.10324667842E+03 -0.38766999273E+03  0.46574419955E+03  0.79242081117E+02 0.  0.
         11    1    5    5    0    0  0.48721238936E+02  0.50215423856E+02  0.79119545854E+02  0.10561841910E+03  0.00000000000E+00 0. -1.
        -12    1    5    5    0    0  0.89650184538E+02 -0.28400587137E+01  0.34291121740E+02  0.96026572111E+02  0.00000000000E+00 0.  1.
         15    1    3    3    0    0  0.34541923885E+02  0.68872262348E+02 -0.20314814123E+03  0.21727599509E+03  0.17770000000E+01 0. -1.
        -16    1    3    3    0    0  0.50000205688E+02 -0.13000949069E+02 -0.15422158270E+03  0.16264483335E+03  0.00000000000E+00 0.  1.
          2    1    6    6  502    0 -0.56564915558E+02 -0.50307313365E+02 -0.17452542445E+03  0.19023548363E+03  0.00000000000E+00 0. -1.
         -1    1    6    6    0  502 -0.16634863749E+03 -0.52939365056E+02 -0.21314456827E+03  0.27550871593E+03  0.00000000000E+00 0.  1.
<mgrwt>
<rscale>  0 0.26933147E+03</rscale>
<asrwt>0</asrwt>
<pdfrwt beam="1">  1        1 0.31975459E-01 0.26933147E+03</pdfrwt>
<pdfrwt beam="2">  1       -2 0.12914916E+00 0.26933147E+03</pdfrwt>
<totfact> 0.57324728E+01</totfact>
</mgrwt>
</event>
<event>
12    3  0.1176505E-007  0.5337439E+03  0.7818608E-02  0.1005328E+00
         -2   -1    0    0    0  501 -0.00000000000E+00  0.00000000000E+00  0.10253563280E+03  0.10253563280E+03  0.00000000000E+00 0.  1.
          1   -1    0    0  501    0  0.00000000000E+00 -0.00000000000E+00 -0.30678369973E+04  0.30678369973E+04  0.00000000000E+00 0. -1.
        -24    2    1    2    0    0 -0.31533775881E+03  0.21617248112E+03 -0.13510153005E+04  0.14062934361E+04  0.79059738794E+02 0.  0.
    5000000    2    1    2    0    0  0.31533775881E+03 -0.21617248112E+03 -0.16142860639E+04  0.17640791940E+04  0.59990621168E+03 0.  0.
        -24    2    4    4    0    0  0.46582984976E+03 -0.12033501425E+03 -0.13513312490E+04  0.14366606502E+04  0.80123121955E+02 0.  0.
         24    2    4    4    0    0 -0.15049209094E+03 -0.95837466870E+02 -0.26295481491E+03  0.32741854381E+03  0.78898533919E+02 0.  0.
         13    1    5    5    0    0  0.44847317843E+03 -0.12997456563E+03 -0.12756963485E+04  0.13584633794E+04  0.00000000000E+00 0. -1.
        -14    1    5    5    0    0  0.17356671321E+02  0.96395513752E+01 -0.75634900491E+02  0.78197270811E+02  0.00000000000E+00 0.  1.
         15    1    3    3    0    0 -0.26486787093E+03  0.20230712242E+03 -0.12317982959E+04  0.12760930061E+04  0.17770000000E+01 0. -1.
        -16    1    3    3    0    0 -0.50469887881E+02  0.13865358700E+02 -0.11921700464E+03  0.13020042991E+03  0.00000000000E+00 0.  1.
          2    1    6    6  502    0 -0.10143788546E+03 -0.10407233667E+03 -0.19757603136E+03  0.24526920727E+03  0.00000000000E+00 0. -1.
         -1    1    6    6    0  502 -0.49054205482E+02  0.82348697954E+01 -0.65378783541E+02  0.82149336536E+02  0.00000000000E+00 0.  1.
<mgrwt>
<rscale>  0 0.53374392E+03</rscale>
<asrwt>0</asrwt>
<pdfrwt beam="1">  1        1 0.47197497E+00 0.53374392E+03</pdfrwt>
<pdfrwt beam="2">  1       -2 0.15774711E-01 0.53374392E+03</pdfrwt>
<totfact> 0.16634591E+01</totfact>
</mgrwt>
</event>
<event>
12    3  0.1176505E-007  0.6843672E+03  0.7818608E-02  0.9744346E-01
         -2   -1    0    0    0  501 -0.00000000000E+00  0.00000000000E+00  0.24130578586E+04  0.24130578586E+04  0.00000000000E+00 0.  1.
          1   -1    0    0  501    0  0.00000000000E+00 -0.00000000000E+00 -0.19856008762E+03  0.19856008762E+03  0.00000000000E+00 0. -1.
        -24    2    1    2    0    0 -0.10401949793E+03  0.54773806592E+03  0.97619451951E+03  0.11269321120E+04  0.78633327785E+02 0.  0.
    5000000    2    1    2    0    0  0.10401949793E+03 -0.54773806592E+03  0.12383032515E+04  0.14846858343E+04  0.60005003045E+03 0.  0.
        -24    2    4    4    0    0  0.34205778052E+03 -0.29420695657E+03  0.77406681260E+03  0.89922690439E+03  0.76605069701E+02 0.  0.
         24    2    4    4    0    0 -0.23803828259E+03 -0.25353110936E+03  0.46423643892E+03  0.58545892991E+03  0.79413097157E+02 0.  0.
         13    1    5    5    0    0  0.11450940567E+03 -0.66558813469E+02  0.27716099291E+03  0.30718186083E+03  0.00000000000E+00 0. -1.
        -14    1    5    5    0    0  0.22754837486E+03 -0.22764814310E+03  0.49690581970E+03  0.59204504356E+03  0.00000000000E+00 0.  1.
         15    1    3    3    0    0 -0.36961869051E+01  0.17662597199E+03  0.26519167824E+03  0.31865369873E+03  0.17770000000E+01 0. -1.
        -16    1    3    3    0    0 -0.10032331103E+03  0.37111209393E+03  0.71100284127E+03  0.80827841323E+03  0.00000000000E+00 0.  1.
          4    1    6    6  502    0 -0.64737643957E+02 -0.11282092848E+03  0.13310419915E+03  0.18610817360E+03  0.00000000000E+00 0. -1.
         -3    1    6    6    0  502 -0.17330063863E+03 -0.14071018088E+03  0.33113223976E+03  0.39935075631E+03  0.00000000000E+00 0.  1.
<mgrwt>
<rscale>  0 0.68436719E+03</rscale>
<asrwt>0</asrwt>
<pdfrwt beam="1">  1        1 0.30547708E-01 0.68436719E+03</pdfrwt>
<pdfrwt beam="2">  1       -2 0.37123965E+00 0.68436719E+03</pdfrwt>
<totfact> 0.15992699E+00</totfact>
</mgrwt>
</event>
<event>
12    3  0.1176505E-007  0.5199155E+03  0.7818608E-02  0.1008708E+00
         -2   -1    0    0    0  501 -0.00000000000E+00  0.00000000000E+00  0.60436994266E+03  0.60436994266E+03  0.00000000000E+00 0.  1.
          1   -1    0    0  501    0  0.00000000000E+00 -0.00000000000E+00 -0.68172597931E+03  0.68172597931E+03  0.00000000000E+00 0. -1.
        -24    2    1    2    0    0 -0.25437783080E+03 -0.41591731564E+03 -0.12866315287E+03  0.51139373443E+03  0.85288044021E+02 0.  0.
    5000000    2    1    2    0    0  0.25437783080E+03  0.41591731564E+03  0.51307116218E+02  0.77470218755E+03  0.59986312186E+03 0.  0.
        -24    2    4    4    0    0  0.18893855589E+03  0.85288732129E+02  0.28001278154E+03  0.35748653024E+03  0.80109398627E+02 0.  0.
         24    2    4    4    0    0  0.65439274914E+02  0.33062858351E+03 -0.22870566533E+03  0.41721565731E+03  0.90360745976E+02 0.  0.
         13    1    5    5    0    0  0.95328290462E+02  0.20836789847E+02  0.18578834708E+03  0.20985462750E+03  0.00000000000E+00 0. -1.
        -14    1    5    5    0    0  0.93610265426E+02  0.64451942282E+02  0.94224434466E+02  0.14763190274E+03  0.00000000000E+00 0.  1.
         15    1    3    3    0    0 -0.11841557127E+03 -0.25185500440E+03 -0.42419991739E+02  0.28152407390E+03  0.17770000000E+01 0. -1.
        -16    1    3    3    0    0 -0.13596225954E+03 -0.16406231124E+03 -0.86243161128E+02  0.22986966052E+03  0.00000000000E+00 0.  1.
          2    1    6    6  502    0  0.27068833494E+02  0.11073879707E+03 -0.13071205215E+03  0.17344002855E+03  0.00000000000E+00 0. -1.
         -1    1    6    6    0  502  0.38370441420E+02  0.21988978644E+03 -0.97993613171E+02  0.24377562876E+03  0.00000000000E+00 0.  1.
<mgrwt>
<rscale>  0 0.51991547E+03</rscale>
<asrwt>0</asrwt>
<pdfrwt beam="1">  1        1 0.10488092E+00 0.51991547E+03</pdfrwt>
<pdfrwt beam="2">  1       -2 0.92979991E-01 0.51991547E+03</pdfrwt>
<totfact> 0.25427655E+01</totfact>
</mgrwt>
</event>
<event>
12    3  0.1176505E-007  0.5326068E+03  0.7818608E-02  0.1005602E+00
         -2   -1    0    0    0  501 -0.00000000000E+00  0.00000000000E+00  0.51387367409E+03  0.51387367409E+03  0.00000000000E+00 0.  1.
          1   -1    0    0  501    0  0.00000000000E+00 -0.00000000000E+00 -0.13033358081E+04  0.13033358081E+04  0.00000000000E+00 0. -1.
        -24    2    1    2    0    0 -0.24932310328E+03  0.42396499599E+03 -0.90505795313E+03  0.10328884996E+04  0.76291718658E+02 0.  0.
    5000000    2    1    2    0    0  0.24932310328E+03 -0.42396499599E+03  0.11559581913E+03  0.78432098264E+03  0.59990722845E+03 0.  0.
        -24    2    4    4    0    0 -0.18685696008E+02 -0.28003403289E+02 -0.19094425191E+03  0.20922816507E+03  0.78634419249E+02 0.  0.
         24    2    4    4    0    0  0.26800879929E+03 -0.39596159270E+03  0.30654007103E+03  0.57509281757E+03  0.90280863294E+02 0.  0.
         11    1    5    5    0    0 -0.42758087965E+02 -0.38299161856E+02 -0.10882816353E+03  0.12303921758E+03  0.00000000000E+00 0. -1.
        -12    1    5    5    0    0  0.24072391957E+02  0.10295758567E+02 -0.82116088372E+02  0.86188947484E+02  0.00000000000E+00 0.  1.
         15    1    3    3    0    0 -0.85488175791E+02  0.81931739191E+02 -0.20903623251E+03  0.24025058234E+03  0.17770000000E+01 0. -1.
        -16    1    3    3    0    0 -0.16383492749E+03  0.34203325680E+03 -0.69602172062E+03  0.79263791721E+03  0.00000000000E+00 0.  1.
          2    1    6    6  502    0  0.11206740891E+03 -0.10364807278E+03  0.12505364526E+03  0.19733332543E+03  0.00000000000E+00 0. -1.
         -1    1    6    6    0  502  0.15594139037E+03 -0.29231351992E+03  0.18148642578E+03  0.37775949214E+03  0.00000000000E+00 0.  1.
<mgrwt>
<rscale>  0 0.53260683E+03</rscale>
<asrwt>0</asrwt>
<pdfrwt beam="1">  1        1 0.20051320E+00 0.53260683E+03</pdfrwt>
<pdfrwt beam="2">  1       -2 0.79057490E-01 0.53260683E+03</pdfrwt>
<totfact> 0.11905069E+01</totfact>
</mgrwt>
</event>
<event>
12    3  0.1176505E-007  0.7006754E+03  0.7818608E-02  0.9716078E-01
          1   -1    0    0  501    0  0.00000000000E+00  0.00000000000E+00  0.19668529901E+04  0.19668529901E+04  0.00000000000E+00 0. -1.
         -2   -1    0    0    0  501 -0.00000000000E+00 -0.00000000000E+00 -0.35648488684E+03  0.35648488684E+03  0.00000000000E+00 0.  1.
        -24    2    1    2    0    0 -0.55266174675E+02  0.68955626209E+03  0.39175509168E+03  0.79900890262E+03  0.80006161986E+02 0.  0.
    5000000    2    1    2    0    0  0.55266174675E+02 -0.68955626209E+03  0.12186130116E+04  0.15243289743E+04  0.60001580090E+03 0.  0.
        -24    2    4    4    0    0 -0.79163344222E+01 -0.30823766724E+03  0.10461872475E+04  0.10935855008E+04  0.79676614402E+02 0.  0.
         24    2    4    4    0    0  0.63182509098E+02 -0.38131859485E+03  0.17242576404E+03  0.43074347349E+03  0.80083678786E+02 0.  0.
         11    1    5    5    0    0  0.25946947592E+02 -0.23925589100E+03  0.75490450277E+03  0.79233669217E+03  0.00000000000E+00 0. -1.
        -12    1    5    5    0    0 -0.33863282014E+02 -0.68981776237E+02  0.29128274476E+03  0.30124880865E+03  0.00000000000E+00 0.  1.
         15    1    3    3    0    0 -0.45685571764E+02  0.38668664594E+03  0.17772161452E+03  0.42802086820E+03  0.17770000000E+01 0. -1.
        -16    1    3    3    0    0 -0.95806029117E+01  0.30286961615E+03  0.21403347716E+03  0.37098803443E+03  0.00000000000E+00 0.  1.
          4    1    6    6  502    0  0.45196664322E+02 -0.10219880459E+03  0.24755938429E+02  0.11445606412E+03  0.00000000000E+00 0. -1.
         -3    1    6    6    0  502  0.17985844775E+02 -0.27911979026E+03  0.14766982561E+03  0.31628740937E+03  0.00000000000E+00 0.  1.
<mgrwt>
<rscale>  0 0.70067537E+03</rscale>
<asrwt>0</asrwt>
<pdfrwt beam="1">  1        1 0.30259276E+00 0.70067537E+03</pdfrwt>
<pdfrwt beam="2">  1       -2 0.54843830E-01 0.70067537E+03</pdfrwt>
<totfact> 0.90409905E+00</totfact>
</mgrwt>
</event>
<event>
12    3  0.1176505E-007  0.5619273E+03  0.7818608E-02  0.9987703E-01
          1   -1    0    0  501    0  0.00000000000E+00  0.00000000000E+00  0.41772084132E+03  0.41772084132E+03  0.00000000000E+00 0. -1.
         -2   -1    0    0    0  501 -0.00000000000E+00 -0.00000000000E+00 -0.10303019717E+04  0.10303019717E+04  0.00000000000E+00 0.  1.
        -24    2    1    2    0    0  0.46095374605E+03  0.19009458356E+03 -0.38805958033E+03  0.63629572652E+03  0.75284175020E+02 0.  0.
    5000000    2    1    2    0    0 -0.46095374605E+03 -0.19009458356E+03 -0.22452155005E+03  0.81172708650E+03  0.59989718271E+03 0.  0.
        -24    2    4    4    0    0 -0.15917104211E+03  0.99429121687E+02  0.14267952801E+03  0.24939891320E+03  0.81368294226E+02 0.  0.
         24    2    4    4    0    0 -0.30178270395E+03 -0.28952370525E+03 -0.36720107806E+03  0.56232817330E+03  0.80495754298E+02 0.  0.
         11    1    5    5    0    0 -0.15108213149E+03  0.10643040387E+03  0.11012039864E+03  0.21512727284E+03  0.00000000000E+00 0. -1.
        -12    1    5    5    0    0 -0.80889106190E+01 -0.70012821835E+01  0.32559129375E+02  0.34271640359E+02  0.00000000000E+00 0.  1.
         15    1    3    3    0    0  0.54218473495E+02  0.94020868660E+00 -0.27761909246E+02  0.60945944857E+02  0.17770000000E+01 0. -1.
        -16    1    3    3    0    0  0.40673527256E+03  0.18915437487E+03 -0.36029767108E+03  0.57534978167E+03  0.00000000000E+00 0.  1.
          2    1    6    6  502    0 -0.78583923100E+02 -0.32291332469E+02 -0.64307948129E+02  0.10655362648E+03  0.00000000000E+00 0. -1.
         -1    1    6    6    0  502 -0.22319878085E+03 -0.25723237278E+03 -0.30289312993E+03  0.45577454683E+03  0.00000000000E+00 0.  1.
<mgrwt>
<rscale>  0 0.56192732E+03</rscale>
<asrwt>0</asrwt>
<pdfrwt beam="1">  1        1 0.64264745E-01 0.56192732E+03</pdfrwt>
<pdfrwt beam="2">  1       -2 0.15850799E+00 0.56192732E+03</pdfrwt>
<totfact> 0.13303521E+01</totfact>
</mgrwt>
</event>
<event>
12    3  0.1176505E-007  0.7258096E+03  0.7818608E-02  0.9674085E-01
          1   -1    0    0  501    0  0.00000000000E+00  0.00000000000E+00  0.11140048834E+04  0.11140048834E+04  0.00000000000E+00 0. -1.
         -2   -1    0    0    0  501 -0.00000000000E+00 -0.00000000000E+00 -0.11411364198E+04  0.11411364198E+04  0.00000000000E+00 0.  1.
        -24    2    1    2    0    0  0.66421310192E+03 -0.23522421096E+03 -0.78557056534E+03  0.10586807744E+04  0.84701799659E+02 0.  0.
    5000000    2    1    2    0    0 -0.66421310192E+03  0.23522421096E+03  0.75843902898E+03  0.11964605288E+04  0.59981544003E+03 0.  0.
        -24    2    4    4    0    0 -0.53498403897E+03  0.10889601380E+03  0.81987658661E+03  0.98841795838E+03  0.81891265777E+02 0.  0.
         24    2    4    4    0    0 -0.12922906296E+03  0.12632819716E+03 -0.61437557625E+02  0.20804257042E+03  0.82753691811E+02 0.  0.
         13    1    5    5    0    0 -0.10637749107E+03 -0.68248860147E+01  0.13118282093E+03  0.16903160113E+03  0.00000000000E+00 0. -1.
        -14    1    5    5    0    0 -0.42860654790E+03  0.11572089982E+03  0.68869376568E+03  0.81938635725E+03  0.00000000000E+00 0.  1.
         15    1    3    3    0    0  0.29390057238E+03 -0.97917746533E+02 -0.28389804894E+03  0.42019839535E+03  0.17770000000E+01 0. -1.
        -16    1    3    3    0    0  0.37031252955E+03 -0.13730646443E+03 -0.50167251640E+03  0.63848237910E+03  0.00000000000E+00 0.  1.
          4    1    6    6  502    0 -0.10572615461E+03  0.50925223076E+02 -0.20660841940E+02  0.11915648746E+03  0.00000000000E+00 0. -1.
         -3    1    6    6    0  502 -0.23502908347E+02  0.75402974086E+02 -0.40776715685E+02  0.88886082959E+02  0.00000000000E+00 0.  1.
<mgrwt>
<rscale>  0 0.72580956E+03</rscale>
<asrwt>0</asrwt>
<pdfrwt beam="1">  1        1 0.17138537E+00 0.72580956E+03</pdfrwt>
<pdfrwt beam="2">  1       -2 0.17555945E+00 0.72580956E+03</pdfrwt>
<totfact> 0.21852762E+00</totfact>
</mgrwt>
</event>
<event>
12    3  0.1176505E-007  0.1154519E+04  0.7818608E-02  0.9153625E-01
         -2   -1    0    0    0  501 -0.00000000000E+00  0.00000000000E+00  0.12557593125E+04  0.12557593125E+04  0.00000000000E+00 0.  1.
          1   -1    0    0  501    0  0.00000000000E+00 -0.00000000000E+00 -0.12442831829E+04  0.12442831829E+04  0.00000000000E+00 0. -1.
        -24    2    1    2    0    0 -0.89762615747E+03 -0.68908328826E+03  0.32788363569E+03  0.11806836667E+04  0.77056768326E+02 0.  0.
    5000000    2    1    2    0    0  0.89762615747E+03  0.68908328826E+03 -0.31640750603E+03  0.13193588287E+04  0.60002125984E+03 0.  0.
        -24    2    4    4    0    0  0.15409531323E+03 -0.74222387129E+01  0.11646580929E+03  0.20936263435E+03  0.80423707600E+02 0.  0.
         24    2    4    4    0    0  0.74353084425E+03  0.69650552697E+03 -0.43287331533E+03  0.11099961943E+04  0.82183811646E+02 0.  0.
         13    1    5    5    0    0  0.13220000287E+03 -0.11607364860E+02  0.54418968774E+02  0.14343289664E+03  0.00000000000E+00 0. -1.
        -14    1    5    5    0    0  0.21895310361E+02  0.41851261472E+01  0.62046840518E+02  0.65929737713E+02  0.00000000000E+00 0.  1.
         15    1    3    3    0    0 -0.29738405108E+03 -0.24701084049E+03  0.14690179113E+03  0.41356368690E+03  0.17770000000E+01 0. -1.
        -16    1    3    3    0    0 -0.60024210640E+03 -0.44207244777E+03  0.18098184457E+03  0.76711997981E+03  0.00000000000E+00 0.  1.
          4    1    6    6  502    0  0.20738192124E+03  0.24545384850E+03 -0.14446550799E+03  0.35231397361E+03  0.00000000000E+00 0. -1.
         -3    1    6    6    0  502  0.53614892301E+03  0.45105167847E+03 -0.28840780734E+03  0.75768222074E+03  0.00000000000E+00 0.  1.
<mgrwt>
<rscale>  0 0.11545187E+04</rscale>
<asrwt>0</asrwt>
<pdfrwt beam="1">  1        1 0.19142818E+00 0.11545187E+04</pdfrwt>
<pdfrwt beam="2">  1       -2 0.19319374E+00 0.11545187E+04</pdfrwt>
<totfact> 0.12568488E+00</totfact>
</mgrwt>
</event>
<event>
12    3  0.1176505E-007  0.8853582E+03  0.7818608E-02  0.9444072E-01
          1   -1    0    0  501    0  0.00000000000E+00  0.00000000000E+00  0.77252797368E+03  0.77252797368E+03  0.00000000000E+00 0. -1.
         -2   -1    0    0    0  501 -0.00000000000E+00 -0.00000000000E+00 -0.14395748128E+04  0.14395748128E+04  0.00000000000E+00 0.  1.
        -24    2    1    2    0    0  0.83594085001E+03  0.71775457518E+02 -0.81233015193E+03  0.11704652549E+04  0.78484496472E+02 0.  0.
    5000000    2    1    2    0    0 -0.83594085001E+03 -0.71775457518E+02  0.14528331279E+03  0.10416375316E+04  0.59996056971E+03 0.  0.
        -24    2    4    4    0    0 -0.60277527529E+03  0.13141844972E+03  0.29458475563E+03  0.68861958214E+03  0.82510055362E+02 0.  0.
         24    2    4    4    0    0 -0.23316557472E+03 -0.20319390724E+03 -0.14930144283E+03  0.35301794944E+03  0.81711704313E+02 0.  0.
         11    1    5    5    0    0 -0.47291735943E+03  0.11330645011E+03  0.19485946099E+03  0.52388871912E+03  0.00000000000E+00 0. -1.
        -12    1    5    5    0    0 -0.12985791586E+03  0.18111999612E+02  0.99725294635E+02  0.16473086302E+03  0.00000000000E+00 0.  1.
         15    1    3    3    0    0  0.33249764454E+03  0.39743403488E+02 -0.37580564340E+03  0.50335599836E+03  0.17770000000E+01 0. -1.
        -16    1    3    3    0    0  0.50344320547E+03  0.32032054030E+02 -0.43652450853E+03  0.66710925655E+03  0.00000000000E+00 0.  1.
          4    1    6    6  502    0 -0.94173702560E-02 -0.13212525351E+02 -0.23605039778E+02  0.27051225809E+02  0.00000000000E+00 0. -1.
         -3    1    6    6    0  502 -0.23315615735E+03 -0.18998138189E+03 -0.12569640306E+03  0.32596672364E+03  0.00000000000E+00 0.  1.
<mgrwt>
<rscale>  0 0.88535815E+03</rscale>
<asrwt>0</asrwt>
<pdfrwt beam="1">  1        1 0.11885046E+00 0.88535815E+03</pdfrwt>
<pdfrwt beam="2">  1       -2 0.22147305E+00 0.88535815E+03</pdfrwt>
<totfact> 0.20066989E+00</totfact>
</mgrwt>
</event>
<event>
12    3  0.1176505E-007  0.8033413E+03  0.7818608E-02  0.9555193E-01
          1   -1    0    0  501    0  0.00000000000E+00  0.00000000000E+00  0.28969724044E+03  0.28969724044E+03  0.00000000000E+00 0. -1.
         -2   -1    0    0    0  501 -0.00000000000E+00 -0.00000000000E+00 -0.22762474032E+04  0.22762474032E+04  0.00000000000E+00 0.  1.
        -24    2    1    2    0    0  0.36400523005E+03 -0.59114459421E+03 -0.98343115132E+03  0.12064651884E+04  0.80434336942E+02 0.  0.
    5000000    2    1    2    0    0 -0.36400523005E+03  0.59114459421E+03 -0.10031190114E+04  0.13594794552E+04  0.59998741607E+03 0.  0.
        -24    2    4    4    0    0  0.14958326198E+03  0.20800053693E+03 -0.34390576035E+03  0.43659434540E+03  0.81878414808E+02 0.  0.
         24    2    4    4    0    0 -0.51358849203E+03  0.38314405729E+03 -0.65921325104E+03  0.92288510984E+03  0.81131423233E+02 0.  0.
         13    1    5    5    0    0  0.37333530342E+02  0.11484318435E+03 -0.12744635909E+03  0.17557142115E+03  0.00000000000E+00 0. -1.
        -14    1    5    5    0    0  0.11224973164E+03  0.93157352571E+02 -0.21645940126E+03  0.26102292425E+03  0.00000000000E+00 0.  1.
         15    1    3    3    0    0  0.20230824008E+03 -0.37201078832E+03 -0.54242541270E+03  0.68814906575E+03  0.17770000000E+01 0. -1.
        -16    1    3    3    0    0  0.16169698997E+03 -0.21913380589E+03 -0.44100573862E+03  0.51831612260E+03  0.00000000000E+00 0.  1.
          2    1    6    6  502    0 -0.12280810198E+03  0.12894914630E+03 -0.15369281066E+03  0.23522583254E+03  0.00000000000E+00 0. -1.
         -1    1    6    6    0  502 -0.39078039004E+03  0.25419491098E+03 -0.50552044038E+03  0.68765927730E+03  0.00000000000E+00 0.  1.
<mgrwt>
<rscale>  0 0.80334131E+03</rscale>
<asrwt>0</asrwt>
<pdfrwt beam="1">  1        1 0.44568806E-01 0.80334131E+03</pdfrwt>
<pdfrwt beam="2">  1       -2 0.35019191E+00 0.80334131E+03</pdfrwt>
<totfact> 0.13032450E+00</totfact>
</mgrwt>
</event>
<event>
12    3  0.1176505E-007  0.6168676E+03  0.7818608E-02  0.9871016E-01
         -2   -1    0    0    0  501 -0.00000000000E+00  0.00000000000E+00  0.36206052652E+03  0.36206052652E+03  0.00000000000E+00 0.  1.
          1   -1    0    0  501    0  0.00000000000E+00 -0.00000000000E+00 -0.17757749210E+04  0.17757749210E+04  0.00000000000E+00 0. -1.
        -24    2    1    2    0    0 -0.56064924185E+03 -0.86015751864E+02 -0.92985417344E+02  0.58019250034E+03  0.79061796447E+02 0.  0.
    5000000    2    1    2    0    0  0.56064924185E+03  0.86015751864E+02 -0.13207289771E+04  0.15576429471E+04  0.60016684172E+03 0.  0.
        -24    2    4    4    0    0  0.20116228140E+03  0.19872770516E+03 -0.16682095197E+03  0.34024064494E+03  0.89305667217E+02 0.  0.
         24    2    4    4    0    0  0.35948696045E+03 -0.11271195330E+03 -0.11539080251E+04  0.12174023022E+04  0.92896586644E+02 0.  0.
         11    1    5    5    0    0  0.13915504417E+01 -0.35109336607E+01  0.63432018249E+01  0.73823625753E+01  0.00000000000E+00 0. -1.
        -12    1    5    5    0    0  0.19977073096E+03  0.20223863882E+03 -0.17316415379E+03  0.33285828237E+03  0.00000000000E+00 0.  1.
         15    1    3    3    0    0 -0.43523004113E+03 -0.84701037175E+02 -0.44138566936E+02  0.44559042317E+03  0.17770000000E+01 0. -1.
        -16    1    3    3    0    0 -0.12541920072E+03 -0.13147146887E+01 -0.48846850409E+02  0.13460207717E+03  0.00000000000E+00 0.  1.
          4    1    6    6  502    0  0.76077931735E+02 -0.27984531140E+02 -0.38756929233E+03  0.39595573243E+03  0.00000000000E+00 0. -1.
         -3    1    6    6    0  502  0.28340902871E+03 -0.84727422157E+02 -0.76633873279E+03  0.82144656977E+03  0.00000000000E+00 0.  1.
<mgrwt>
<rscale>  0 0.61686760E+03</rscale>
<asrwt>0</asrwt>
<pdfrwt beam="1">  1        1 0.27319614E+00 0.61686760E+03</pdfrwt>
<pdfrwt beam="2">  1       -2 0.55701619E-01 0.61686760E+03</pdfrwt>
<totfact> 0.11902673E+01</totfact>
</mgrwt>
</event>
<event>
12    3  0.1176505E-007  0.6780372E+03  0.7818608E-02  0.9755547E-01
         -2   -1    0    0    0  501 -0.00000000000E+00  0.00000000000E+00  0.46347516033E+03  0.46347516033E+03  0.00000000000E+00 0.  1.
          1   -1    0    0  501    0  0.00000000000E+00 -0.00000000000E+00 -0.10970082004E+04  0.10970082004E+04  0.00000000000E+00 0. -1.
        -24    2    1    2    0    0  0.21712847970E+03  0.53173133835E+03 -0.14872721792E+03  0.59868836229E+03  0.80155953654E+02 0.  0.
    5000000    2    1    2    0    0 -0.21712847970E+03 -0.53173133835E+03 -0.48480582212E+03  0.96179499841E+03  0.60010827434E+03 0.  0.
        -24    2    4    4    0    0  0.13841540230E+03 -0.34402111313E+03 -0.83236802266E+02  0.38825188500E+03  0.79383947267E+02 0.  0.
         24    2    4    4    0    0 -0.35554388200E+03 -0.18771022522E+03 -0.40156901986E+03  0.57354311341E+03  0.77765317193E+02 0.  0.
         11    1    5    5    0    0  0.13853330216E+03 -0.26079718640E+03 -0.74573655615E+02  0.30457819744E+03  0.00000000000E+00 0. -1.
        -12    1    5    5    0    0 -0.11789986800E+00 -0.83223926723E+02 -0.86631466509E+01  0.83673687557E+02  0.00000000000E+00 0.  1.
         15    1    3    3    0    0  0.89835769079E+02  0.18687135419E+03 -0.91561277749E+02  0.22666714304E+03  0.17770000000E+01 0. -1.
        -16    1    3    3    0    0  0.12729271062E+03  0.34485998416E+03 -0.57165940175E+02  0.37202121925E+03  0.00000000000E+00 0.  1.
          2    1    6    6  502    0 -0.32007128693E+03 -0.16167306698E+03 -0.31882385413E+03  0.47982544666E+03  0.00000000000E+00 0. -1.
         -1    1    6    6    0  502 -0.35472595070E+02 -0.26037158241E+02 -0.82745165729E+02  0.93717666754E+02  0.00000000000E+00 0.  1.
<mgrwt>
<rscale>  0 0.67803717E+03</rscale>
<asrwt>0</asrwt>
<pdfrwt beam="1">  1        1 0.16877049E+00 0.67803717E+03</pdfrwt>
<pdfrwt beam="2">  1       -2 0.71303872E-01 0.67803717E+03</pdfrwt>
<totfact> 0.20613050E+01</totfact>
</mgrwt>
</event>
<event>
12    3  0.1176505E-007  0.3748256E+03  0.7818608E-02  0.1052863E+00
         -2   -1    0    0    0  501 -0.00000000000E+00  0.00000000000E+00  0.11513254946E+04  0.11513254946E+04  0.00000000000E+00 0.  1.
          1   -1    0    0  501    0  0.00000000000E+00 -0.00000000000E+00 -0.31177735260E+03  0.31177735260E+03  0.00000000000E+00 0. -1.
        -24    2    1    2    0    0 -0.12468680118E+03 -0.19715450307E+03  0.77832521365E+03  0.81671548433E+03  0.82567231213E+02 0.  0.
    5000000    2    1    2    0    0  0.12468680118E+03  0.19715450307E+03  0.61222928360E+02  0.64638736288E+03  0.59970966264E+03 0.  0.
        -24    2    4    4    0    0  0.10231329264E+03  0.33329404830E+03  0.22113454951E+03  0.42057628784E+03  0.80193468683E+02 0.  0.
         24    2    4    4    0    0  0.22373508532E+02 -0.13613954523E+03 -0.15991162115E+03  0.22581107504E+03  0.79902223833E+02 0.  0.
         11    1    5    5    0    0 -0.12871309950E+02  0.27705135957E+02  0.26200913162E+02  0.40245906981E+02  0.00000000000E+00 0. -1.
        -12    1    5    5    0    0  0.11518460259E+03  0.30558891235E+03  0.19493363635E+03  0.38033038086E+03  0.00000000000E+00 0.  1.
         15    1    3    3    0    0 -0.39401871752E+02 -0.35450799954E+02  0.29986678849E+03  0.30452013937E+03  0.17770000000E+01 0. -1.
        -16    1    3    3    0    0 -0.85284929423E+02 -0.16170370312E+03  0.47845842517E+03  0.51219534496E+03  0.00000000000E+00 0.  1.
          2    1    6    6  502    0 -0.14280275681E+02 -0.11173257298E+03 -0.13263260207E+03  0.17401006083E+03  0.00000000000E+00 0. -1.
         -1    1    6    6    0  502  0.36653784213E+02 -0.24406972256E+02 -0.27279019078E+02  0.51801014215E+02  0.00000000000E+00 0.  1.
<mgrwt>
<rscale>  0 0.37482561E+03</rscale>
<asrwt>0</asrwt>
<pdfrwt beam="1">  1        1 0.47965747E-01 0.37482561E+03</pdfrwt>
<pdfrwt beam="2">  1       -2 0.17712700E+00 0.37482561E+03</pdfrwt>
<totfact> 0.14757439E+01</totfact>
</mgrwt>
</event>
<event>
12    3  0.1176505E-007  0.5017886E+03  0.7818608E-02  0.1013313E+00
          3   -1    0    0  501    0  0.00000000000E+00  0.00000000000E+00  0.21963140684E+04  0.21963140684E+04  0.00000000000E+00 0. -1.
         -2   -1    0    0    0  501 -0.00000000000E+00 -0.00000000000E+00 -0.18674339943E+03  0.18674339943E+03  0.00000000000E+00 0.  1.
        -24    2    1    2    0    0  0.22647699243E+03  0.30250462996E+03  0.13861105193E+04  0.14388781904E+04  0.79165624140E+02 0.  0.
    5000000    2    1    2    0    0 -0.22647699243E+03 -0.30250462996E+03  0.62346014974E+03  0.94417927743E+03  0.59997589149E+03 0.  0.
        -24    2    4    4    0    0  0.15552725343E+03 -0.12676322278E+03  0.35904606331E+02  0.21728113607E+03  0.75261611250E+02 0.  0.
         24    2    4    4    0    0 -0.38200424585E+03 -0.17574140718E+03  0.58755554341E+03  0.72689814136E+03  0.79668722063E+02 0.  0.
         11    1    5    5    0    0  0.12209277026E+03 -0.94679234334E+02 -0.62627413611E+01  0.15462866452E+03  0.00000000000E+00 0. -1.
        -12    1    5    5    0    0  0.33434483170E+02 -0.32083988444E+02  0.42167347692E+02  0.62652471545E+02  0.00000000000E+00 0.  1.
         15    1    3    3    0    0  0.13899577007E+03  0.21557433606E+03  0.10493413926E+04  0.10802373047E+04  0.17770000000E+01 0. -1.
        -16    1    3    3    0    0  0.87481222354E+02  0.86930293905E+02  0.33676912670E+03  0.35864088579E+03  0.00000000000E+00 0.  1.
          2    1    6    6  502    0 -0.12660619999E+03 -0.35287742106E+02  0.13349849107E+03  0.18733980286E+03  0.00000000000E+00 0. -1.
         -1    1    6    6    0  502 -0.25539804587E+03 -0.14045366508E+03  0.45405705234E+03  0.53955833850E+03  0.00000000000E+00 0.  1.
<mgrwt>
<rscale>  0 0.50178864E+03</rscale>
<asrwt>0</asrwt>
<pdfrwt beam="1">  1        3 0.33789445E+00 0.50178864E+03</pdfrwt>
<pdfrwt beam="2">  1       -2 0.28729755E-01 0.50178864E+03</pdfrwt>
<totfact> 0.11633844E+00</totfact>
</mgrwt>
</event>
<event>
12    3  0.1176505E-007  0.1194473E+04  0.7818608E-02  0.9117708E-01
          1   -1    0    0  501    0  0.00000000000E+00  0.00000000000E+00  0.29958006573E+04  0.29958006573E+04  0.00000000000E+00 0. -1.
         -2   -1    0    0    0  501 -0.00000000000E+00 -0.00000000000E+00 -0.48264124264E+03  0.48264124264E+03  0.00000000000E+00 0.  1.
        -24    2    1    2    0    0 -0.17399674464E+03  0.11090322220E+04  0.13052595284E+04  0.17235414007E+04  0.81640595952E+02 0.  0.
    5000000    2    1    2    0    0  0.17399674464E+03 -0.11090322220E+04  0.12078998863E+04  0.17549004993E+04  0.60035513707E+03 0.  0.
        -24    2    4    4    0    0 -0.16725560471E+03 -0.73467279277E+03  0.77007075642E+03  0.10804963821E+04  0.82127413240E+02 0.  0.
         24    2    4    4    0    0  0.34125234935E+03 -0.37435942919E+03  0.43782912989E+03  0.67440411724E+03  0.80798627523E+02 0.  0.
         13    1    5    5    0    0 -0.73635329219E+02 -0.17349415203E+03  0.20929056406E+03  0.28164680489E+03  0.00000000000E+00 0. -1.
        -14    1    5    5    0    0 -0.93620275494E+02 -0.56117864074E+03  0.56078019236E+03  0.79884957717E+03  0.00000000000E+00 0.  1.
         15    1    3    3    0    0 -0.12633406076E+02  0.99912820823E+02  0.84341939473E+02  0.13137311444E+03  0.17770000000E+01 0. -1.
        -16    1    3    3    0    0 -0.16136333857E+03  0.10091194011E+04  0.12209175889E+04  0.15921682862E+04  0.00000000000E+00 0.  1.
          2    1    6    6  502    0  0.36161988449E+02 -0.64997388250E+02  0.36207828138E+02  0.82724583447E+02  0.00000000000E+00 0. -1.
         -1    1    6    6    0  502  0.30509036091E+03 -0.30936204094E+03  0.40162130175E+03  0.59167953379E+03  0.00000000000E+00 0.  1.
<mgrwt>
<rscale>  0 0.11944726E+04</rscale>
<asrwt>0</asrwt>
<pdfrwt beam="1">  1        1 0.46089240E+00 0.11944726E+04</pdfrwt>
<pdfrwt beam="2">  1       -2 0.74252501E-01 0.11944726E+04</pdfrwt>
<totfact> 0.86003349E-01</totfact>
</mgrwt>
</event>
<event>
12    3  0.1176505E-007  0.3935277E+03  0.7818608E-02  0.1046044E+00
          1   -1    0    0  501    0  0.00000000000E+00  0.00000000000E+00  0.11633957224E+04  0.11633957224E+04  0.00000000000E+00 0. -1.
         -2   -1    0    0    0  501 -0.00000000000E+00 -0.00000000000E+00 -0.29849830117E+03  0.29849830117E+03  0.00000000000E+00 0.  1.
        -24    2    1    2    0    0 -0.56772360051E+02 -0.16495026461E+03  0.81239761247E+03  0.83465851418E+03  0.78951022022E+02 0.  0.
    5000000    2    1    2    0    0  0.56772360051E+02  0.16495026461E+03  0.52499808715E+02  0.62723550935E+03  0.60019702066E+03 0.  0.
        -24    2    4    4    0    0 -0.20523934507E+03 -0.89765273103E+02 -0.46055975745E+02  0.24051346936E+03  0.74461956899E+02 0.  0.
         24    2    4    4    0    0  0.26201170512E+03  0.25471553772E+03  0.98555784460E+02  0.38672203999E+03  0.79439000429E+02 0.  0.
         11    1    5    5    0    0 -0.67743651538E+02 -0.30220705036E+02  0.19903352315E+02  0.76802583094E+02  0.00000000000E+00 0. -1.
        -12    1    5    5    0    0 -0.13749569353E+03 -0.59544568067E+02 -0.65959328060E+02  0.16371088627E+03  0.00000000000E+00 0.  1.
         15    1    3    3    0    0 -0.63273591448E+02 -0.66012623071E+02  0.42972472809E+03  0.43934919306E+03  0.17770000000E+01 0. -1.
        -16    1    3    3    0    0  0.65012313965E+01 -0.98937641542E+02  0.38267288438E+03  0.39530932112E+03  0.00000000000E+00 0.  1.
          4    1    6    6  502    0  0.13904776871E+03  0.85404726340E+02  0.25951235989E+02  0.16523230893E+03  0.00000000000E+00 0. -1.
         -3    1    6    6    0  502  0.12296393640E+03  0.16931081138E+03  0.72604548471E+02  0.22148973106E+03  0.00000000000E+00 0.  1.
<mgrwt>
<rscale>  0 0.39352771E+03</rscale>
<asrwt>0</asrwt>
<pdfrwt beam="1">  1        1 0.17898396E+00 0.39352771E+03</pdfrwt>
<pdfrwt beam="2">  1       -2 0.45922816E-01 0.39352771E+03</pdfrwt>
<totfact> 0.48022882E+01</totfact>
</mgrwt>
</event>
<event>
12    3  0.1176505E-007  0.5243856E+03  0.7818608E-02  0.1007603E+00
         -2   -1    0    0    0  501 -0.00000000000E+00  0.00000000000E+00  0.49772227322E+03  0.49772227322E+03  0.00000000000E+00 0.  1.
          1   -1    0    0  501    0  0.00000000000E+00 -0.00000000000E+00 -0.59301456500E+03  0.59301456500E+03  0.00000000000E+00 0. -1.
        -24    2    1    2    0    0  0.33894856703E+03 -0.14369260441E+03  0.22671487853E+02  0.37698079202E+03  0.77889829456E+02 0.  0.
    5000000    2    1    2    0    0 -0.33894856703E+03  0.14369260441E+03 -0.11796377964E+03  0.71375604620E+03  0.59999878710E+03 0.  0.
        -24    2    4    4    0    0 -0.60616695406E+02  0.32582868789E+03  0.29418987159E+02  0.34181015143E+03  0.78294222011E+02 0.  0.
         24    2    4    4    0    0 -0.27833187163E+03 -0.18213608348E+03 -0.14738276679E+03  0.37194589477E+03  0.77329716269E+02 0.  0.
         13    1    5    5    0    0  0.10626086626E+02  0.11137346068E+02  0.10435805503E+02  0.18597317842E+02  0.00000000000E+00 0. -1.
        -14    1    5    5    0    0 -0.71242782032E+02  0.31469134182E+03  0.18983181656E+02  0.32321283359E+03  0.00000000000E+00 0.  1.
         15    1    3    3    0    0  0.11644187635E+03 -0.85382147255E+02  0.27074435408E+02  0.14691835971E+03  0.17770000000E+01 0. -1.
        -16    1    3    3    0    0  0.22250669069E+03 -0.58310457155E+02 -0.44029475551E+01  0.23006243231E+03  0.00000000000E+00 0.  1.
          2    1    6    6  502    0 -0.82896224613E+02 -0.82416997197E+02 -0.21070520475E+02  0.11877841687E+03  0.00000000000E+00 0. -1.
         -1    1    6    6    0  502 -0.19543564701E+03 -0.99719086283E+02 -0.12631224632E+03  0.25316747789E+03  0.00000000000E+00 0.  1.
<mgrwt>
<rscale>  0 0.52438561E+03</rscale>
<asrwt>0</asrwt>
<pdfrwt beam="1">  1        1 0.91233009E-01 0.52438561E+03</pdfrwt>
<pdfrwt beam="2">  1       -2 0.76572658E-01 0.52438561E+03</pdfrwt>
<totfact> 0.48262167E+01</totfact>
</mgrwt>
</event>
<event>
12    3  0.1176505E-007  0.6836086E+03  0.7818608E-02  0.9745682E-01
         -2   -1    0    0    0  501 -0.00000000000E+00  0.00000000000E+00  0.40980368644E+03  0.40980368644E+03  0.00000000000E+00 0.  1.
          1   -1    0    0  501    0  0.00000000000E+00 -0.00000000000E+00 -0.14352797599E+04  0.14352797599E+04  0.00000000000E+00 0. -1.
        -24    2    1    2    0    0 -0.42274387609E+03 -0.36579727864E+03 -0.82662154943E+03  0.10010804759E+04  0.79617205120E+02 0.  0.
    5000000    2    1    2    0    0  0.42274387609E+03  0.36579727864E+03 -0.19885452406E+03  0.84400297050E+03  0.60023150420E+03 0.  0.
        -24    2    4    4    0    0 -0.12285235476E+03 -0.21381163908E+02 -0.28480525245E+02  0.14878835152E+03  0.76006433873E+02 0.  0.
         24    2    4    4    0    0  0.54559623084E+03  0.38717844255E+03 -0.17037399882E+03  0.69521461898E+03  0.81937009228E+02 0.  0.
         13    1    5    5    0    0 -0.51122294251E+02  0.84840116095E+01 -0.45825530953E+02  0.69176923244E+02  0.00000000000E+00 0. -1.
        -14    1    5    5    0    0 -0.71730060507E+02 -0.29865175518E+02  0.17345005707E+02  0.79611428276E+02  0.00000000000E+00 0.  1.
         15    1    3    3    0    0 -0.12879072815E+03 -0.16193606749E+03 -0.30836247460E+03  0.37135012466E+03  0.17770000000E+01 0. -1.
        -16    1    3    3    0    0 -0.29395314793E+03 -0.20386121115E+03 -0.51825907483E+03  0.62973035121E+03  0.00000000000E+00 0.  1.
          2    1    6    6  502    0  0.32532193795E+03  0.18600915408E+03 -0.11324340040E+03  0.39148159146E+03  0.00000000000E+00 0. -1.
         -1    1    6    6    0  502  0.22027429289E+03  0.20116928847E+03 -0.57130598416E+02  0.30373302752E+03  0.00000000000E+00 0.  1.
<mgrwt>
<rscale>  0 0.68360862E+03</rscale>
<asrwt>0</asrwt>
<pdfrwt beam="1">  1        1 0.22081227E+00 0.68360862E+03</pdfrwt>
<pdfrwt beam="2">  1       -2 0.63046722E-01 0.68360862E+03</pdfrwt>
<totfact> 0.15425874E+01</totfact>
</mgrwt>
</event>
<event>
12    3  0.1176505E-007  0.8115886E+03  0.7818608E-02  0.9543393E-01
         -2   -1    0    0    0  501 -0.00000000000E+00  0.00000000000E+00  0.14413497068E+04  0.14413497068E+04  0.00000000000E+00 0.  1.
          1   -1    0    0  501    0  0.00000000000E+00 -0.00000000000E+00 -0.72143253095E+03  0.72143253095E+03  0.00000000000E+00 0. -1.
        -24    2    1    2    0    0 -0.70442786966E+03 -0.84232708774E+01 -0.31373760275E+03  0.77544430801E+03  0.81197391553E+02 0.  0.
    5000000    2    1    2    0    0  0.70442786966E+03  0.84232708774E+01  0.10336547786E+04  0.13873379298E+04  0.59997896209E+03 0.  0.
        -24    2    4    4    0    0  0.76239168952E+03 -0.10741671902E+03  0.88491911782E+03  0.11754627011E+04  0.76493638904E+02 0.  0.
         24    2    4    4    0    0 -0.57963819855E+02  0.11583998990E+03  0.14873566081E+03  0.21187522869E+03  0.77395788405E+02 0.  0.
         11    1    5    5    0    0  0.53039528628E+03 -0.46994462011E+02  0.57564086726E+03  0.78414925061E+03  0.00000000000E+00 0. -1.
        -12    1    5    5    0    0  0.23199640324E+03 -0.60422257008E+02  0.30927825056E+03  0.39131345048E+03  0.00000000000E+00 0.  1.
         15    1    3    3    0    0 -0.48276181847E+03 -0.49703708576E+01 -0.25549870587E+03  0.54622927822E+03  0.17770000000E+01 0. -1.
        -16    1    3    3    0    0 -0.22166605120E+03 -0.34529000198E+01 -0.58238896884E+02  0.22921502979E+03  0.00000000000E+00 0.  1.
          4    1    6    6  502    0  0.45349438321E+01  0.67033997463E+02  0.93911839185E+02  0.11547101831E+03  0.00000000000E+00 0. -1.
         -3    1    6    6    0  502 -0.62498763687E+02  0.48805992432E+02  0.54823821626E+02  0.96404210372E+02  0.00000000000E+00 0.  1.
<mgrwt>
<rscale>  0 0.81158864E+03</rscale>
<asrwt>0</asrwt>
<pdfrwt beam="1">  1        1 0.11098962E+00 0.81158864E+03</pdfrwt>
<pdfrwt beam="2">  1       -2 0.22174611E+00 0.81158864E+03</pdfrwt>
<totfact> 0.22452994E+00</totfact>
</mgrwt>
</event>
<event>
12    3  0.1176505E-007  0.7008453E+03  0.7818608E-02  0.9715788E-01
          1   -1    0    0  501    0  0.00000000000E+00  0.00000000000E+00  0.11687158506E+04  0.11687158506E+04  0.00000000000E+00 0. -1.
         -2   -1    0    0    0  501 -0.00000000000E+00 -0.00000000000E+00 -0.45417449869E+03  0.45417449869E+03  0.00000000000E+00 0.  1.
        -24    2    1    2    0    0 -0.21874924936E+03 -0.54746469747E+03  0.16265769235E+03  0.61681698840E+03  0.80229939680E+02 0.  0.
    5000000    2    1    2    0    0  0.21874924936E+03  0.54746469747E+03  0.55188365960E+03  0.10060733609E+04  0.60003266975E+03 0.  0.
        -24    2    4    4    0    0  0.20282561965E+03  0.65799636790E+03  0.39482385325E+03  0.79783167032E+03  0.80944715159E+02 0.  0.
         24    2    4    4    0    0  0.15923629714E+02 -0.11053167043E+03  0.15705980635E+03  0.20824169062E+03  0.78905049184E+02 0.  0.
         11    1    5    5    0    0  0.15537306325E+03  0.37324228785E+03  0.24222470632E+03  0.47129969507E+03  0.00000000000E+00 0. -1.
        -12    1    5    5    0    0  0.47452556399E+02  0.28475408006E+03  0.15259914693E+03  0.32653197525E+03  0.00000000000E+00 0.  1.
         15    1    3    3    0    0 -0.37703124112E+02 -0.18788365430E+03  0.37966699480E+02  0.19536228172E+03  0.17770000000E+01 0. -1.
        -16    1    3    3    0    0 -0.18104612525E+03 -0.35958104317E+03  0.12469099287E+03  0.42145470668E+03  0.00000000000E+00 0.  1.
          2    1    6    6  502    0 -0.69581516724E+01 -0.23865254937E+02 -0.27495129793E+01  0.25010519578E+02  0.00000000000E+00 0. -1.
         -1    1    6    6    0  502  0.22881781386E+02 -0.86666415494E+02  0.15980931933E+03  0.18323117104E+03  0.00000000000E+00 0.  1.
<mgrwt>
<rscale>  0 0.70084533E+03</rscale>
<asrwt>0</asrwt>
<pdfrwt beam="1">  1        1 0.17980244E+00 0.70084533E+03</pdfrwt>
<pdfrwt beam="2">  1       -2 0.69873000E-01 0.70084533E+03</pdfrwt>
<totfact> 0.19026511E+01</totfact>
</mgrwt>
</event>
<event>
12    3  0.1176505E-007  0.4393186E+03  0.7818608E-02  0.1030956E+00
         -2   -1    0    0    0  501 -0.00000000000E+00  0.00000000000E+00  0.21519328839E+03  0.21519328839E+03  0.00000000000E+00 0.  1.
          1   -1    0    0  501    0  0.00000000000E+00 -0.00000000000E+00 -0.24378698011E+04  0.24378698011E+04  0.00000000000E+00 0. -1.
        -24    2    1    2    0    0  0.91568630032E+02  0.27342223761E+03 -0.18814263089E+04  0.19050689345E+04  0.79863353896E+02 0.  0.
    5000000    2    1    2    0    0 -0.91568630032E+02 -0.27342223761E+03 -0.34125020374E+03  0.74799415493E+03  0.59991584430E+03 0.  0.
        -24    2    4    4    0    0  0.15537793810E+03  0.48248654256E+02 -0.27452173199E+03  0.32998338090E+03  0.84003655008E+02 0.  0.
         24    2    4    4    0    0 -0.24694656813E+03 -0.32167089187E+03 -0.66728471748E+02  0.41801077403E+03  0.76325278090E+02 0.  0.
         13    1    5    5    0    0  0.67194846807E+02  0.60399450986E+02 -0.17140113060E+03  0.19375651908E+03  0.00000000000E+00 0. -1.
        -14    1    5    5    0    0  0.88183091291E+02 -0.12150796730E+02 -0.10312060139E+03  0.13622686182E+03  0.00000000000E+00 0.  1.
         15    1    3    3    0    0  0.72793797654E+02  0.19528613377E+03 -0.11040617470E+04  0.11235617962E+04  0.17770000000E+01 0. -1.
        -16    1    3    3    0    0  0.18774832378E+02  0.78136103850E+02 -0.77736456194E+03  0.78150713830E+03  0.00000000000E+00 0.  1.
          4    1    6    6  502    0 -0.14296720665E+03 -0.13404376978E+03 -0.10538882828E+02  0.19626110783E+03  0.00000000000E+00 0. -1.
         -1    1    6    6    0  502 -0.10397936148E+03 -0.18762712209E+03 -0.56189588920E+02  0.22174966620E+03  0.00000000000E+00 0.  1.
<mgrwt>
<rscale>  0 0.43931863E+03</rscale>
<asrwt>0</asrwt>
<pdfrwt beam="1">  1        1 0.37505687E+00 0.43931863E+03</pdfrwt>
<pdfrwt beam="2">  1       -2 0.33106662E-01 0.43931863E+03</pdfrwt>
<totfact> 0.12480289E+01</totfact>
</mgrwt>
</event>
<event>
12    3  0.1176505E-007  0.8052432E+03  0.7818608E-02  0.9552459E-01
         -2   -1    0    0    0  501 -0.00000000000E+00  0.00000000000E+00  0.52840236557E+03  0.52840236557E+03  0.00000000000E+00 0.  1.
          1   -1    0    0  501    0  0.00000000000E+00 -0.00000000000E+00 -0.14079978184E+04  0.14079978184E+04  0.00000000000E+00 0. -1.
        -24    2    1    2    0    0 -0.55876701564E+03 -0.43222595068E+03 -0.85927160002E+02  0.71612902506E+03  0.80109010124E+02 0.  0.
    5000000    2    1    2    0    0  0.55876701564E+03  0.43222595068E+03 -0.79366829278E+03  0.12202711589E+04  0.60009373599E+03 0.  0.
        -24    2    4    4    0    0  0.51255946031E+02 -0.12771355499E+03 -0.79583240998E+02  0.17750266523E+03  0.78966953743E+02 0.  0.
         24    2    4    4    0    0  0.50751106961E+03  0.55993950567E+03 -0.71408505179E+03  0.10427684936E+04  0.79680200468E+02 0.  0.
         11    1    5    5    0    0  0.58141087610E+02 -0.10224541005E+03 -0.30076070551E+02  0.12140461261E+03  0.00000000000E+00 0. -1.
        -12    1    5    5    0    0 -0.68851415797E+01 -0.25468144944E+02 -0.49507170447E+02  0.56098052614E+02  0.00000000000E+00 0.  1.
         15    1    3    3    0    0 -0.26147614770E+03 -0.19174201898E+03 -0.78777816808E+02  0.33368230371E+03  0.17770000000E+01 0. -1.
        -16    1    3    3    0    0 -0.29729086794E+03 -0.24048393169E+03 -0.71493431940E+01  0.38244672135E+03  0.00000000000E+00 0.  1.
          2    1    6    6  502    0  0.42980924483E+03  0.51225962566E+03 -0.63212157294E+03  0.92017584950E+03  0.00000000000E+00 0. -1.
         -3    1    6    6    0  502  0.77701824782E+02  0.47679880010E+02 -0.81963478843E+02  0.12259264414E+03  0.00000000000E+00 0.  1.
<mgrwt>
<rscale>  0 0.80524319E+03</rscale>
<asrwt>0</asrwt>
<pdfrwt beam="1">  1        1 0.21661505E+00 0.80524319E+03</pdfrwt>
<pdfrwt beam="2">  1       -2 0.81292672E-01 0.80524319E+03</pdfrwt>
<totfact> 0.90792476E+00</totfact>
</mgrwt>
</event>
<event>
12    3  0.1176505E-007  0.1485470E+04  0.7818608E-02  0.8894173E-01
          1   -1    0    0  501    0  0.00000000000E+00  0.00000000000E+00  0.17652977337E+04  0.17652977337E+04  0.00000000000E+00 0. -1.
         -2   -1    0    0    0  501 -0.00000000000E+00 -0.00000000000E+00 -0.13547718630E+04  0.13547718630E+04  0.00000000000E+00 0.  1.
        -24    2    1    2    0    0 -0.63936647959E+03 -0.13372736833E+04  0.31823763478E+03  0.15182891959E+04  0.82683074823E+02 0.  0.
    5000000    2    1    2    0    0  0.63936647959E+03  0.13372736833E+04  0.92288235925E+02  0.16017804008E+04  0.60007744050E+03 0.  0.
        -24    2    4    4    0    0  0.34165814756E+03  0.81904136881E+03  0.33456424943E+03  0.95193515886E+03  0.81781758653E+02 0.  0.
         24    2    4    4    0    0  0.29770833203E+03  0.51823231451E+03 -0.24227601351E+03  0.64984524195E+03  0.80038671933E+02 0.  0.
         13    1    5    5    0    0  0.58400803758E+02  0.98725373929E+02  0.19946744427E+02  0.11642691248E+03  0.00000000000E+00 0. -1.
        -14    1    5    5    0    0  0.28325734380E+03  0.72031599488E+03  0.31461750501E+03  0.83550824638E+03  0.00000000000E+00 0.  1.
         15    1    3    3    0    0 -0.38804694780E+03 -0.89425712980E+03  0.22577430072E+03  0.10006265240E+04  0.17770000000E+01 0. -1.
        -16    1    3    3    0    0 -0.25131953179E+03 -0.44301655352E+03  0.92463334060E+02  0.51766267192E+03  0.00000000000E+00 0.  1.
          4    1    6    6  502    0  0.20088880738E+03  0.32849460072E+03 -0.11568124848E+03  0.40205368657E+03  0.00000000000E+00 0. -1.
         -3    1    6    6    0  502  0.96819524649E+02  0.18973771379E+03 -0.12659476503E+03  0.24779155538E+03  0.00000000000E+00 0.  1.
<mgrwt>
<rscale>  0 0.14854699E+04</rscale>
<asrwt>0</asrwt>
<pdfrwt beam="1">  1        1 0.27158427E+00 0.14854699E+04</pdfrwt>
<pdfrwt beam="2">  1       -2 0.20842644E+00 0.14854699E+04</pdfrwt>
<totfact> 0.41714718E-01</totfact>
</mgrwt>
</event>
<event>
12    3  0.1176505E-007  0.1871615E+04  0.7818608E-02  0.8669116E-01
         -2   -1    0    0    0  501 -0.00000000000E+00  0.00000000000E+00  0.12835281602E+04  0.12835281602E+04  0.00000000000E+00 0.  1.
          1   -1    0    0  501    0  0.00000000000E+00 -0.00000000000E+00 -0.29005608256E+04  0.29005608256E+04  0.00000000000E+00 0. -1.
        -24    2    1    2    0    0  0.16593732081E+04  0.83361934562E+03 -0.11201375635E+04  0.21702614133E+04  0.82980620851E+02 0.  0.
    5000000    2    1    2    0    0 -0.16593732081E+04 -0.83361934562E+03 -0.49689510192E+03  0.20138275726E+04  0.60013006291E+03 0.  0.
        -24    2    4    4    0    0 -0.30173207717E+03 -0.45116483673E+02  0.10238303608E+03  0.33144728213E+03  0.79355348013E+02 0.  0.
         24    2    4    4    0    0 -0.13576411310E+04 -0.78850286195E+03 -0.59927813800E+03  0.16823802904E+04  0.79642646587E+02 0.  0.
         13    1    5    5    0    0 -0.24895925565E+03 -0.51045079742E+01  0.80764957445E+02  0.26178186592E+03  0.00000000000E+00 0. -1.
        -14    1    5    5    0    0 -0.52772821521E+02 -0.40011975699E+02  0.21618078638E+02  0.69665416202E+02  0.00000000000E+00 0.  1.
         15    1    3    3    0    0  0.65377149142E+03  0.30012619937E+03 -0.47068060626E+03  0.85967219879E+03  0.17770000000E+01 0. -1.
        -16    1    3    3    0    0  0.10056017167E+04  0.53349314625E+03 -0.64945695724E+03  0.13105892145E+04  0.00000000000E+00 0.  1.
          4    1    6    6  502    0 -0.83477323957E+03 -0.46880820303E+03 -0.40408643037E+03  0.10391887874E+04  0.00000000000E+00 0. -1.
         -3    1    6    6    0  502 -0.52286789141E+03 -0.31969465892E+03 -0.19519170764E+03  0.64319150301E+03  0.00000000000E+00 0.  1.
<mgrwt>
<rscale>  0 0.18716145E+04</rscale>
<asrwt>0</asrwt>
<pdfrwt beam="1">  1        1 0.44624013E+00 0.18716145E+04</pdfrwt>
<pdfrwt beam="2">  1       -2 0.19746587E+00 0.18716145E+04</pdfrwt>
<totfact> 0.77456038E-02</totfact>
</mgrwt>
</event>
<event>
12    3  0.1176505E-007  0.1348298E+04  0.7818608E-02  0.8992117E-01
          1   -1    0    0  501    0  0.00000000000E+00  0.00000000000E+00  0.19742107183E+04  0.19742107183E+04  0.00000000000E+00 0. -1.
         -2   -1    0    0    0  501 -0.00000000000E+00 -0.00000000000E+00 -0.15835683280E+04  0.15835683280E+04  0.00000000000E+00 0.  1.
        -24    2    1    2    0    0 -0.12011825214E+04  0.52925826245E+03 -0.92302665737E+03  0.16063066410E+04  0.72725901242E+02 0.  0.
    5000000    2    1    2    0    0  0.12011825214E+04 -0.52925826245E+03  0.13136690476E+04  0.19514724053E+04  0.59963690992E+03 0.  0.
        -24    2    4    4    0    0  0.11171241404E+04 -0.35100600642E+03  0.87441001430E+03  0.14635495278E+04  0.78821225892E+02 0.  0.
         24    2    4    4    0    0  0.84058381013E+02 -0.17825225603E+03  0.43925903331E+03  0.48792287745E+03  0.79249970332E+02 0.  0.
         11    1    5    5    0    0  0.44548245932E+03 -0.18024324027E+03  0.36443577410E+03  0.60312161350E+03  0.00000000000E+00 0. -1.
        -12    1    5    5    0    0  0.67164168107E+03 -0.17076276615E+03  0.50997424020E+03  0.86042791431E+03  0.00000000000E+00 0.  1.
         15    1    3    3    0    0 -0.42907604481E+02  0.21949219969E+02 -0.51512272358E+02  0.70565591559E+02  0.17770000000E+01 0. -1.
        -16    1    3    3    0    0 -0.11582749169E+04  0.50730904248E+03 -0.87151438501E+03  0.15357410495E+04  0.00000000000E+00 0.  1.
          4    1    6    6  502    0  0.87829197914E+02 -0.18372951330E+03  0.43414677603E+03  0.47953511363E+03  0.00000000000E+00 0. -1.
         -3    1    6    6    0  502 -0.37708169016E+01  0.54772572787E+01  0.51122572754E+01  0.83877638172E+01  0.00000000000E+00 0.  1.
<mgrwt>
<rscale>  0 0.13482984E+04</rscale>
<asrwt>0</asrwt>
<pdfrwt beam="1">  1        1 0.30372472E+00 0.13482984E+04</pdfrwt>
<pdfrwt beam="2">  1       -2 0.24362590E+00 0.13482984E+04</pdfrwt>
<totfact> 0.18326020E-01</totfact>
</mgrwt>
</event>
<event>
12    3  0.1176505E-007  0.4091442E+03  0.7818608E-02  0.1040659E+00
         -2   -1    0    0    0  501 -0.00000000000E+00  0.00000000000E+00  0.16263717119E+03  0.16263717119E+03  0.00000000000E+00 0.  1.
          1   -1    0    0  501    0  0.00000000000E+00 -0.00000000000E+00 -0.14658322031E+04  0.14658322031E+04  0.00000000000E+00 0. -1.
        -24    2    1    2    0    0  0.26324658525E+03  0.12884560037E+03 -0.48473388229E+03  0.57203528209E+03  0.79733769106E+02 0.  0.
    5000000    2    1    2    0    0 -0.26324658525E+03 -0.12884560037E+03 -0.81846114958E+03  0.10564340922E+04  0.60022861005E+03 0.  0.
        -24    2    4    4    0    0  0.74704359960E+02  0.54388998077E+02  0.26235466841E+02  0.12382824530E+03  0.78142370746E+02 0.  0.
         24    2    4    4    0    0 -0.33795094521E+03 -0.18323459845E+03 -0.84469661642E+03  0.93260584685E+03  0.91953968692E+02 0.  0.
         11    1    5    5    0    0 -0.16097472935E+02  0.77094395982E+01  0.99662363075E+01  0.20442357006E+02  0.00000000000E+00 0. -1.
        -12    1    5    5    0    0  0.90801832895E+02  0.46679558479E+02  0.16269230533E+02  0.10338588830E+03  0.00000000000E+00 0.  1.
         15    1    3    3    0    0  0.15393722193E+03  0.32315104593E+02 -0.26954113911E+03  0.31208415160E+03  0.17770000000E+01 0. -1.
        -16    1    3    3    0    0  0.10930936332E+03  0.96530495776E+02 -0.21519274319E+03  0.25995113049E+03  0.00000000000E+00 0.  1.
          2    1    6    6  502    0 -0.34588977223E+02  0.94117218229E+01 -0.71869884831E+02  0.80313499480E+02  0.00000000000E+00 0. -1.
         -1    1    6    6    0  502 -0.30336196798E+03 -0.19264632027E+03 -0.77282673159E+03  0.85229234737E+03  0.00000000000E+00 0.  1.
<mgrwt>
<rscale>  0 0.40914415E+03</rscale>
<asrwt>0</asrwt>
<pdfrwt beam="1">  1        1 0.22551264E+00 0.40914415E+03</pdfrwt>
<pdfrwt beam="2">  1       -2 0.25021104E-01 0.40914415E+03</pdfrwt>
<totfact> 0.92403744E+01</totfact>
</mgrwt>
</event>
<event>
12    3  0.1176505E-007  0.5885446E+03  0.7818608E-02  0.9929462E-01
          1   -1    0    0  501    0  0.00000000000E+00  0.00000000000E+00  0.20554167716E+04  0.20554167716E+04  0.00000000000E+00 0. -1.
         -2   -1    0    0    0  501 -0.00000000000E+00 -0.00000000000E+00 -0.21092102895E+03  0.21092102895E+03  0.00000000000E+00 0.  1.
        -24    2    1    2    0    0 -0.50676442471E+03 -0.10316093098E+03  0.68625685072E+03  0.86312556312E+03  0.81147475085E+02 0.  0.
    5000000    2    1    2    0    0  0.50676442471E+03  0.10316093098E+03  0.11582388919E+04  0.14032122374E+04  0.60002907655E+03 0.  0.
        -24    2    4    4    0    0  0.41436485944E+03 -0.95795376353E+02  0.33449613844E+03  0.54710652773E+03  0.81011697848E+02 0.  0.
         24    2    4    4    0    0  0.92399565264E+02  0.19895630733E+03  0.82374275350E+03  0.85610570972E+03  0.79016266540E+02 0.  0.
         13    1    5    5    0    0  0.36544875670E+03 -0.10072250965E+03  0.26727371516E+03  0.46382438114E+03  0.00000000000E+00 0. -1.
        -14    1    5    5    0    0  0.48916102740E+02  0.49271332954E+01  0.67222423279E+02  0.83282146594E+02  0.00000000000E+00 0.  1.
         15    1    3    3    0    0 -0.10297208537E+03  0.94742227906E+01  0.15615421577E+03  0.18729737877E+03  0.17770000000E+01 0. -1.
        -16    1    3    3    0    0 -0.40379233934E+03 -0.11263515377E+03  0.53010263496E+03  0.67582818435E+03  0.00000000000E+00 0.  1.
          2    1    6    6  502    0  0.44567505353E+02  0.15492495993E+03  0.48229762637E+03  0.50852630822E+03  0.00000000000E+00 0. -1.
         -1    1    6    6    0  502  0.47832059912E+02  0.44031347404E+02  0.34144512713E+03  0.34757940150E+03  0.00000000000E+00 0.  1.
<mgrwt>
<rscale>  0 0.58854456E+03</rscale>
<asrwt>0</asrwt>
<pdfrwt beam="1">  1        1 0.31621795E+00 0.58854456E+03</pdfrwt>
<pdfrwt beam="2">  1       -2 0.32449390E-01 0.58854456E+03</pdfrwt>
<totfact> 0.22577139E+01</totfact>
</mgrwt>
</event>
<event>
12    3  0.1176505E-007  0.1150133E+04  0.7818608E-02  0.9157661E-01
          1   -1    0    0  501    0  0.00000000000E+00  0.00000000000E+00  0.22471673116E+04  0.22471673116E+04  0.00000000000E+00 0. -1.
         -2   -1    0    0    0  501 -0.00000000000E+00 -0.00000000000E+00 -0.65851304531E+03  0.65851304531E+03  0.00000000000E+00 0.  1.
        -24    2    1    2    0    0  0.17398917803E+03  0.11180769409E+04  0.57095475526E+03  0.12698190088E+04  0.77991682742E+02 0.  0.
    5000000    2    1    2    0    0 -0.17398917803E+03 -0.11180769409E+04  0.10176995111E+04  0.16358613482E+04  0.59996814563E+03 0.  0.
        -24    2    4    4    0    0  0.21317823189E+02 -0.11088986933E+03 -0.55665910105E+02  0.14888992611E+03  0.79489017131E+02 0.  0.
         24    2    4    4    0    0 -0.19530700122E+03 -0.10071870716E+04  0.10733654212E+04  0.14869714221E+04  0.80000379906E+02 0.  0.
         13    1    5    5    0    0  0.49666549213E+02 -0.49339262272E+02 -0.23226487768E+02  0.73760413816E+02  0.00000000000E+00 0. -1.
        -14    1    5    5    0    0 -0.28348726024E+02 -0.61550607056E+02 -0.32439422338E+02  0.75129512295E+02  0.00000000000E+00 0.  1.
         15    1    3    3    0    0  0.64341742343E+02  0.65294115694E+03  0.31777112036E+03  0.72900868094E+03  0.17770000000E+01 0. -1.
        -16    1    3    3    0    0  0.10964743569E+03  0.46513578398E+03  0.25318363490E+03  0.54081032781E+03  0.00000000000E+00 0.  1.
          2    1    6    6  502    0 -0.12025356375E+03 -0.43152373940E+03  0.49193560744E+03  0.66533773313E+03  0.00000000000E+00 0. -1.
         -1    1    6    6    0  502 -0.75053437465E+02 -0.57566333219E+03  0.58142981372E+03  0.82163368893E+03  0.00000000000E+00 0.  1.
<mgrwt>
<rscale>  0 0.11501328E+04</rscale>
<asrwt>0</asrwt>
<pdfrwt beam="1">  1        1 0.34571804E+00 0.11501328E+04</pdfrwt>
<pdfrwt beam="2">  1       -2 0.10130970E+00 0.11501328E+04</pdfrwt>
<totfact> 0.14074525E+00</totfact>
</mgrwt>
</event>
<event>
12    3  0.1176505E-007  0.8967624E+03  0.7818608E-02  0.9429638E-01
         -2   -1    0    0    0  501 -0.00000000000E+00  0.00000000000E+00  0.73175239569E+03  0.73175239569E+03  0.00000000000E+00 0.  1.
          1   -1    0    0  501    0  0.00000000000E+00 -0.00000000000E+00 -0.11324083861E+04  0.11324083861E+04  0.00000000000E+00 0. -1.
        -24    2    1    2    0    0 -0.24168377756E+03 -0.76106337458E+03 -0.43912217930E+02  0.80353512373E+03  0.78178665398E+02 0.  0.
    5000000    2    1    2    0    0  0.24168377756E+03  0.76106337458E+03 -0.35674377249E+03  0.10606256581E+04  0.60002679850E+03 0.  0.
        -24    2    4    4    0    0  0.42796713983E+03  0.51833598094E+03 -0.29619692495E+03  0.73876966904E+03  0.78866619221E+02 0.  0.
         24    2    4    4    0    0 -0.18628336227E+03  0.24272739363E+03 -0.60546847546E+02  0.32185598905E+03  0.79418374830E+02 0.  0.
         11    1    5    5    0    0  0.16051207366E+03  0.14368397592E+03 -0.11369781823E+03  0.24359064965E+03  0.00000000000E+00 0. -1.
        -12    1    5    5    0    0  0.26745506617E+03  0.37465200503E+03 -0.18249910671E+03  0.49517901938E+03  0.00000000000E+00 0.  1.
         15    1    3    3    0    0 -0.13125440866E+03 -0.53278386188E+03 -0.26723234195E+02  0.54936659185E+03  0.17770000000E+01 0. -1.
        -16    1    3    3    0    0 -0.11042936890E+03 -0.22827951270E+03 -0.17188983735E+02  0.25416853187E+03  0.00000000000E+00 0.  1.
          2    1    6    6  502    0 -0.17402192459E+03  0.17555881389E+03 -0.55797294720E+02  0.25341244143E+03  0.00000000000E+00 0. -1.
         -1    1    6    6    0  502 -0.12261437677E+02  0.67168579743E+02 -0.47495528256E+01  0.68443547618E+02  0.00000000000E+00 0.  1.
<mgrwt>
<rscale>  0 0.89676235E+03</rscale>
<asrwt>0</asrwt>
<pdfrwt beam="1">  1        1 0.17421668E+00 0.89676235E+03</pdfrwt>
<pdfrwt beam="2">  1       -2 0.11257729E+00 0.89676235E+03</pdfrwt>
<totfact> 0.65857548E+00</totfact>
</mgrwt>
</event>
<event>
12    3  0.1176505E-007  0.4178150E+03  0.7818608E-02  0.1037780E+00
          1   -1    0    0  501    0  0.00000000000E+00  0.00000000000E+00  0.61747006480E+03  0.61747006480E+03  0.00000000000E+00 0. -1.
         -2   -1    0    0    0  501 -0.00000000000E+00 -0.00000000000E+00 -0.33924787047E+03  0.33924787047E+03  0.00000000000E+00 0.  1.
        -24    2    1    2    0    0 -0.53655852998E+02  0.24060339666E+03  0.13545590281E+03  0.29243819253E+03  0.80017809294E+02 0.  0.
    5000000    2    1    2    0    0  0.53655852998E+02 -0.24060339666E+03  0.14276629153E+03  0.66427974273E+03  0.60009700680E+03 0.  0.
        -24    2    4    4    0    0  0.22717560883E+03  0.45388498327E+02 -0.77187976453E+02  0.25611702002E+03  0.77259764467E+02 0.  0.
         24    2    4    4    0    0 -0.17351975583E+03 -0.28599189498E+03  0.21995426798E+03  0.40816272272E+03  0.79476150854E+02 0.  0.
         11    1    5    5    0    0  0.23263910950E+03  0.47216938075E+02 -0.78825178723E+02  0.25012757407E+03  0.00000000000E+00 0. -1.
        -12    1    5    5    0    0 -0.54635006684E+01 -0.18284397484E+01  0.16372022705E+01  0.59894459462E+01  0.00000000000E+00 0.  1.
         15    1    3    3    0    0  0.10026648921E+02  0.12956444640E+03  0.54143485518E+02  0.14079117235E+03  0.17770000000E+01 0. -1.
        -16    1    3    3    0    0 -0.63682501918E+02  0.11103895026E+03  0.81312417288E+02  0.15164702018E+03  0.00000000000E+00 0.  1.
          2    1    6    6  502    0 -0.10010277146E+03 -0.16371549016E+03  0.78629796622E+02  0.20737881157E+03  0.00000000000E+00 0. -1.
         -1    1    6    6    0  502 -0.73416984368E+02 -0.12227640483E+03  0.14132447136E+03  0.20078391115E+03  0.00000000000E+00 0.  1.
<mgrwt>
<rscale>  0 0.41781499E+03</rscale>
<asrwt>0</asrwt>
<pdfrwt beam="1">  1        1 0.94995394E-01 0.41781499E+03</pdfrwt>
<pdfrwt beam="2">  1       -2 0.52191980E-01 0.41781499E+03</pdfrwt>
<totfact> 0.10391166E+02</totfact>
</mgrwt>
</event>
<event>
12    3  0.1176505E-007  0.5735202E+03  0.7818608E-02  0.9961919E-01
          1   -1    0    0  501    0  0.00000000000E+00  0.00000000000E+00  0.82340207575E+03  0.82340207575E+03  0.00000000000E+00 0. -1.
         -2   -1    0    0    0  501 -0.00000000000E+00 -0.00000000000E+00 -0.54588652727E+03  0.54588652727E+03  0.00000000000E+00 0.  1.
        -24    2    1    2    0    0  0.48801555613E+03  0.21137458314E+03  0.13922268311E+03  0.55576237198E+03  0.81550359895E+02 0.  0.
    5000000    2    1    2    0    0 -0.48801555613E+03 -0.21137458314E+03  0.13829286537E+03  0.81352623103E+03  0.59988466770E+03 0.  0.
        -24    2    4    4    0    0 -0.71777367131E+02 -0.17873523873E+03  0.29428156889E+03  0.36073943688E+03  0.80206131559E+02 0.  0.
         24    2    4    4    0    0 -0.41623818900E+03 -0.32639344411E+02 -0.15598870352E+03  0.45278679415E+03  0.79773733419E+02 0.  0.
         13    1    5    5    0    0 -0.52213288691E+02 -0.91652267082E+02  0.22237428284E+03  0.24612331715E+03  0.00000000000E+00 0. -1.
        -14    1    5    5    0    0 -0.19564078440E+02 -0.87082971643E+02  0.71907286056E+02  0.11461611974E+03  0.00000000000E+00 0.  1.
         15    1    3    3    0    0  0.39005990230E+03  0.14717617309E+03  0.79963727710E+02  0.42450548734E+03  0.17770000000E+01 0. -1.
        -16    1    3    3    0    0  0.97955653834E+02  0.64198410049E+02  0.59258955403E+02  0.13125688464E+03  0.00000000000E+00 0.  1.
          2    1    6    6  502    0 -0.10763804495E+03  0.26399473455E+01 -0.76760959320E+02  0.13223147477E+03  0.00000000000E+00 0. -1.
         -1    1    6    6    0  502 -0.30860014405E+03 -0.35279291757E+02 -0.79227744200E+02  0.32055531938E+03  0.00000000000E+00 0.  1.
<mgrwt>
<rscale>  0 0.57352018E+03</rscale>
<asrwt>0</asrwt>
<pdfrwt beam="1">  1        1 0.12667724E+00 0.57352018E+03</pdfrwt>
<pdfrwt beam="2">  1       -2 0.83982543E-01 0.57352018E+03</pdfrwt>
<totfact> 0.23835713E+01</totfact>
</mgrwt>
</event>
<event>
12    3  0.1176505E-007  0.1028085E+04  0.7818608E-02  0.9278267E-01
          1   -1    0    0  501    0  0.00000000000E+00  0.00000000000E+00  0.19955803033E+04  0.19955803033E+04  0.00000000000E+00 0. -1.
         -2   -1    0    0    0  501 -0.00000000000E+00 -0.00000000000E+00 -0.55467265076E+03  0.55467265076E+03  0.00000000000E+00 0.  1.
        -24    2    1    2    0    0  0.94992033738E+03  0.41790246540E+02  0.85962127826E+03  0.12845539337E+04  0.83874873665E+02 0.  0.
    5000000    2    1    2    0    0 -0.94992033738E+03 -0.41790246540E+02  0.58128637429E+03  0.12656990204E+04  0.60000424096E+03 0.  0.
        -24    2    4    4    0    0 -0.24290062610E+03  0.23262470434E+03  0.28330292715E+03  0.44691170641E+03  0.79715478823E+02 0.  0.
         24    2    4    4    0    0 -0.70701971129E+03 -0.27441495088E+03  0.29798344714E+03  0.81878731397E+03  0.80237730128E+02 0.  0.
         11    1    5    5    0    0 -0.17968486695E+03  0.11901579276E+03  0.17134011686E+03  0.27533406252E+03  0.00000000000E+00 0. -1.
        -12    1    5    5    0    0 -0.63215759150E+02  0.11360891158E+03  0.11196281029E+03  0.17157764389E+03  0.00000000000E+00 0.  1.
         15    1    3    3    0    0  0.21336760940E+03 -0.10489278835E+02  0.23287966767E+03  0.31602509244E+03  0.17770000000E+01 0. -1.
        -16    1    3    3    0    0  0.73655272799E+03  0.52279525375E+02  0.62674161059E+03  0.96852884125E+03  0.00000000000E+00 0.  1.
          2    1    6    6  502    0 -0.32973467444E+03 -0.11899994260E+03  0.17981883130E+03  0.39398065175E+03  0.00000000000E+00 0. -1.
         -1    1    6    6    0  502 -0.37728503685E+03 -0.15541500829E+03  0.11816461585E+03  0.42480666223E+03  0.00000000000E+00 0.  1.
<mgrwt>
<rscale>  0 0.10280845E+04</rscale>
<asrwt>0</asrwt>
<pdfrwt beam="1">  1        1 0.30701235E+00 0.10280845E+04</pdfrwt>
<pdfrwt beam="2">  1       -2 0.85334255E-01 0.10280845E+04</pdfrwt>
<totfact> 0.31565012E+00</totfact>
</mgrwt>
</event>
<event>
12    3  0.1176505E-007  0.4085719E+03  0.7818608E-02  0.1040851E+00
          1   -1    0    0  501    0  0.00000000000E+00  0.00000000000E+00  0.10479919252E+04  0.10479919252E+04  0.00000000000E+00 0. -1.
         -2   -1    0    0    0  501 -0.00000000000E+00 -0.00000000000E+00 -0.20210960221E+03  0.20210960221E+03  0.00000000000E+00 0.  1.
        -24    2    1    2    0    0 -0.18269672878E+03  0.12135554539E+03  0.42044633254E+03  0.48253440404E+03  0.89213616831E+02 0.  0.
    5000000    2    1    2    0    0  0.18269672878E+03 -0.12135554539E+03  0.42543599045E+03  0.76756712337E+03  0.60004853454E+03 0.  0.
        -24    2    4    4    0    0  0.27485076563E+03  0.12248813515E+03  0.38156522360E+03  0.49199704554E+03  0.76959641004E+02 0.  0.
         24    2    4    4    0    0 -0.92154036852E+02 -0.24384368055E+03  0.43870766856E+02  0.27557007783E+03  0.77859595160E+02 0.  0.
         13    1    5    5    0    0  0.23701688754E+03  0.72736132353E+02  0.31104811454E+03  0.39776686576E+03  0.00000000000E+00 0. -1.
        -14    1    5    5    0    0  0.37833878086E+02  0.49752002802E+02  0.70517109052E+02  0.94230179788E+02  0.00000000000E+00 0.  1.
         15    1    3    3    0    0 -0.14504260062E+03  0.13351931896E+03  0.34605687773E+03  0.39827538824E+03  0.17770000000E+01 0. -1.
        -16    1    3    3    0    0 -0.37654128157E+02 -0.12163773567E+02  0.74389454818E+02  0.84259015795E+02  0.00000000000E+00 0.  1.
          2    1    6    6  502    0 -0.42873214806E+02 -0.34796061920E+02  0.22878733797E+02  0.59768845840E+02  0.00000000000E+00 0. -1.
         -1    1    6    6    0  502 -0.49280822046E+02 -0.20904761863E+03  0.20992033059E+02  0.21580123199E+03  0.00000000000E+00 0.  1.
<mgrwt>
<rscale>  0 0.40857192E+03</rscale>
<asrwt>0</asrwt>
<pdfrwt beam="1">  1        1 0.16122952E+00 0.40857192E+03</pdfrwt>
<pdfrwt beam="2">  1       -2 0.31093785E-01 0.40857192E+03</pdfrwt>
<totfact> 0.12263269E+02</totfact>
</mgrwt>
</event>
<event>
12    3  0.1176505E-007  0.2077408E+04  0.7818608E-02  0.8571261E-01
         -2   -1    0    0    0  501 -0.00000000000E+00  0.00000000000E+00  0.19778327120E+04  0.19778327120E+04  0.00000000000E+00 0.  1.
          1   -1    0    0  501    0  0.00000000000E+00 -0.00000000000E+00 -0.23180069410E+04  0.23180069410E+04  0.00000000000E+00 0. -1.
        -24    2    1    2    0    0  0.19847162270E+04  0.52601831949E+03 -0.60158108052E+03  0.21410143039E+04  0.79048585160E+02 0.  0.
    5000000    2    1    2    0    0 -0.19847162270E+04 -0.52601831949E+03  0.26140685152E+03  0.21548253491E+04  0.59928705027E+03 0.  0.
        -24    2    4    4    0    0 -0.12065946805E+04 -0.10501149549E+03 -0.46328452321E+02  0.12146854746E+04  0.80102055944E+02 0.  0.
         24    2    4    4    0    0 -0.77812154651E+03 -0.42100682400E+03  0.30773530385E+03  0.94013987449E+03  0.80262565231E+02 0.  0.
         11    1    5    5    0    0 -0.29150922475E+03 -0.90213387338E+01 -0.41351919420E+02  0.29456577178E+03  0.00000000000E+00 0. -1.
        -12    1    5    5    0    0 -0.91508545578E+03 -0.95990156751E+02 -0.49765329008E+01  0.92011970279E+03  0.00000000000E+00 0.  1.
         15    1    3    3    0    0  0.16377866519E+04  0.46453995536E+03 -0.49390351542E+03  0.17725931083E+04  0.17770000000E+01 0. -1.
        -16    1    3    3    0    0  0.34692957516E+03  0.61478364123E+02 -0.10767756510E+03  0.36842119564E+03  0.00000000000E+00 0.  1.
          4    1    6    6  502    0 -0.28273696715E+03 -0.19733891042E+03  0.12221931688E+03  0.36581470662E+03  0.00000000000E+00 0. -1.
         -3    1    6    6    0  502 -0.49538457936E+03 -0.22366791358E+03  0.18551598696E+03  0.57432516787E+03  0.00000000000E+00 0.  1.
<mgrwt>
<rscale>  0 0.20774077E+04</rscale>
<asrwt>0</asrwt>
<pdfrwt beam="1">  1        1 0.35661645E+00 0.20774077E+04</pdfrwt>
<pdfrwt beam="2">  1       -2 0.30428195E+00 0.20774077E+04</pdfrwt>
<totfact> 0.41823716E-02</totfact>
</mgrwt>
</event>
<event>
12    3  0.1176505E-007  0.5870891E+03  0.7818608E-02  0.9932560E-01
          1   -1    0    0  501    0  0.00000000000E+00  0.00000000000E+00  0.48513018101E+03  0.48513018101E+03  0.00000000000E+00 0. -1.
         -2   -1    0    0    0  501 -0.00000000000E+00 -0.00000000000E+00 -0.10166319620E+04  0.10166319620E+04  0.00000000000E+00 0.  1.
        -24    2    1    2    0    0 -0.82038260371E+02 -0.52171265437E+03  0.14172042767E+02  0.53432125633E+03  0.79899864019E+02 0.  0.
    5000000    2    1    2    0    0  0.82038260371E+02  0.52171265437E+03 -0.54567382378E+03  0.96744088670E+03  0.59938933708E+03 0.  0.
        -24    2    4    4    0    0  0.11980063328E+03  0.53873685376E+03 -0.63257179841E+03  0.84323355221E+03  0.79411297087E+02 0.  0.
         24    2    4    4    0    0 -0.37762372906E+02 -0.17024199385E+02  0.86897974630E+02  0.12420733449E+03  0.78488112312E+02 0.  0.
         13    1    5    5    0    0 -0.33236561626E+01  0.14505641891E+03 -0.16522282767E+03  0.21988859484E+03  0.00000000000E+00 0. -1.
        -14    1    5    5    0    0  0.12312428944E+03  0.39368043484E+03 -0.46734897075E+03  0.62334495737E+03  0.00000000000E+00 0.  1.
         15    1    3    3    0    0 -0.38443837858E+02 -0.32832349293E+03  0.45264433229E+02  0.33365591757E+03  0.17770000000E+01 0. -1.
        -16    1    3    3    0    0 -0.43594422512E+02 -0.19338916144E+03 -0.31092390461E+02  0.20066533876E+03  0.00000000000E+00 0.  1.
          2    1    6    6  502    0 -0.83974214956E+01 -0.45864262168E+02  0.36992739293E+02  0.59518988502E+02  0.00000000000E+00 0. -1.
         -1    1    6    6    0  502 -0.29364951410E+02  0.28840062783E+02  0.49905235337E+02  0.64688345988E+02  0.00000000000E+00 0.  1.
<mgrwt>
<rscale>  0 0.58708910E+03</rscale>
<asrwt>0</asrwt>
<pdfrwt beam="1">  1        1 0.74635414E-01 0.58708910E+03</pdfrwt>
<pdfrwt beam="2">  1       -2 0.15640491E+00 0.58708910E+03</pdfrwt>
<totfact> 0.11249449E+01</totfact>
</mgrwt>
</event>
<event>
12    3  0.1176505E-007  0.3582067E+03  0.7818608E-02  0.1059296E+00
         -2   -1    0    0    0  501 -0.00000000000E+00  0.00000000000E+00  0.67181759903E+03  0.67181759903E+03  0.00000000000E+00 0.  1.
          1   -1    0    0  501    0  0.00000000000E+00 -0.00000000000E+00 -0.28802233060E+03  0.28802233060E+03  0.00000000000E+00 0. -1.
        -24    2    1    2    0    0 -0.17082573702E+03 -0.14401541028E+03  0.13610039242E+03  0.27331324616E+03  0.79088196870E+02 0.  0.
    5000000    2    1    2    0    0  0.17082573702E+03  0.14401541028E+03  0.24769487600E+03  0.68652668347E+03  0.60003688611E+03 0.  0.
        -24    2    4    4    0    0 -0.70175256253E+02 -0.98677864292E+02  0.29844039098E+03  0.33163215541E+03  0.79065365628E+02 0.  0.
         24    2    4    4    0    0  0.24100099328E+03  0.24269327457E+03 -0.50745514980E+02  0.35489452806E+03  0.79959455174E+02 0.  0.
         13    1    5    5    0    0 -0.80726141966E+02 -0.10039242147E+03  0.29199618077E+03  0.31915061941E+03  0.00000000000E+00 0. -1.
        -14    1    5    5    0    0  0.10550885713E+02  0.17145571800E+01  0.64442102073E+01  0.12481535997E+02  0.00000000000E+00 0.  1.
         15    1    3    3    0    0 -0.58136624285E+02 -0.27698366378E+02  0.44030190600E+01  0.64572524258E+02  0.17770000000E+01 0. -1.
        -16    1    3    3    0    0 -0.11268911274E+03 -0.11631704390E+03  0.13169737336E+03  0.20874072190E+03  0.00000000000E+00 0.  1.
          4    1    6    6  502    0  0.19493526555E+03  0.23238967014E+03 -0.51612576986E+02  0.30768258749E+03  0.00000000000E+00 0. -1.
         -3    1    6    6    0  502  0.46065727728E+02  0.10303604430E+02  0.86706200602E+00  0.47211940565E+02  0.00000000000E+00 0.  1.
<mgrwt>
<rscale>  0 0.35820668E+03</rscale>
<asrwt>0</asrwt>
<pdfrwt beam="1">  1        1 0.44311128E-01 0.35820668E+03</pdfrwt>
<pdfrwt beam="2">  1       -2 0.10335655E+00 0.35820668E+03</pdfrwt>
<totfact> 0.64336417E+01</totfact>
</mgrwt>
</event>
<event>
12    3  0.1176505E-007  0.6038030E+03  0.7818608E-02  0.9897547E-01
          1   -1    0    0  501    0  0.00000000000E+00  0.00000000000E+00  0.89315273623E+03  0.89315273623E+03  0.00000000000E+00 0. -1.
         -2   -1    0    0    0  501 -0.00000000000E+00 -0.00000000000E+00 -0.54872180329E+03  0.54872180329E+03  0.00000000000E+00 0.  1.
        -24    2    1    2    0    0 -0.44733757376E+03 -0.12966276587E+03  0.47629256757E+03  0.67096826664E+03  0.80127817626E+02 0.  0.
    5000000    2    1    2    0    0  0.44733757376E+03  0.12966276587E+03 -0.13186163463E+03  0.77090627289E+03  0.59998804416E+03 0.  0.
        -24    2    4    4    0    0  0.13563989848E+03  0.32688434886E+03 -0.15123667374E+03  0.39315062917E+03  0.80270331631E+02 0.  0.
         24    2    4    4    0    0  0.31169767528E+03 -0.19722158299E+03  0.19375039110E+02  0.37775564372E+03  0.79196847479E+02 0.  0.
         11    1    5    5    0    0  0.48968401559E+02  0.18609312200E+03 -0.48310574749E+02  0.19839976320E+03  0.00000000000E+00 0. -1.
        -12    1    5    5    0    0  0.86671496922E+02  0.14079122686E+03 -0.10292609899E+03  0.19475086596E+03  0.00000000000E+00 0.  1.
         15    1    3    3    0    0 -0.93744576146E+02  0.57961897517E+01  0.94285013696E+02  0.13309569080E+03  0.17770000000E+01 0. -1.
        -16    1    3    3    0    0 -0.35359299761E+03 -0.13545895562E+03  0.38200755388E+03  0.53787257584E+03  0.00000000000E+00 0.  1.
          2    1    6    6  502    0  0.84267859305E+02 -0.14477086589E+02  0.37651630402E+01  0.85585247565E+02  0.00000000000E+00 0. -1.
         -1    1    6    6    0  502  0.22742981598E+03 -0.18274449640E+03  0.15609876070E+02  0.29217039616E+03  0.00000000000E+00 0.  1.
<mgrwt>
<rscale>  0 0.60380300E+03</rscale>
<asrwt>0</asrwt>
<pdfrwt beam="1">  1        1 0.13740811E+00 0.60380300E+03</pdfrwt>
<pdfrwt beam="2">  1       -2 0.84418739E-01 0.60380300E+03</pdfrwt>
<totfact> 0.20545646E+01</totfact>
</mgrwt>
</event>
<event>
12    3  0.1176505E-007  0.6424534E+03  0.7818608E-02  0.9821044E-01
          1   -1    0    0  501    0  0.00000000000E+00  0.00000000000E+00  0.10470117705E+04  0.10470117705E+04  0.00000000000E+00 0. -1.
         -2   -1    0    0    0  501 -0.00000000000E+00 -0.00000000000E+00 -0.48257165879E+03  0.48257165879E+03  0.00000000000E+00 0.  1.
        -24    2    1    2    0    0 -0.29407381068E+03 -0.50006075128E+03  0.26704623991E+03  0.64358667087E+03  0.79686558286E+02 0.  0.
    5000000    2    1    2    0    0  0.29407381068E+03  0.50006075128E+03  0.29739387176E+03  0.88599675839E+03  0.60000581648E+03 0.  0.
        -24    2    4    4    0    0 -0.90452528452E+02  0.16478412891E+03 -0.10628550669E+03  0.23031094136E+03  0.80069043537E+02 0.  0.
         24    2    4    4    0    0  0.38452633914E+03  0.33527662236E+03  0.40367937846E+03  0.65568581703E+03  0.81828668961E+02 0.  0.
         13    1    5    5    0    0 -0.53221104209E+01  0.83159063510E+01 -0.38460200336E+02  0.39707255857E+02  0.00000000000E+00 0. -1.
        -14    1    5    5    0    0 -0.85130418031E+02  0.15646822256E+03 -0.67825306358E+02  0.19060368550E+03  0.00000000000E+00 0.  1.
         15    1    3    3    0    0 -0.11849307723E+03 -0.13584917394E+03  0.99616514743E+02  0.20596653891E+03  0.17770000000E+01 0. -1.
        -16    1    3    3    0    0 -0.17558073345E+03 -0.36421157733E+03  0.16742972516E+03  0.43762013196E+03  0.00000000000E+00 0.  1.
          4    1    6    6  502    0  0.22529225809E+03  0.16554338305E+03  0.17755246906E+03  0.33118890757E+03  0.00000000000E+00 0. -1.
         -3    1    6    6    0  502  0.15923408105E+03  0.16973323932E+03  0.22612690940E+03  0.32449690946E+03  0.00000000000E+00 0.  1.
<mgrwt>
<rscale>  0 0.64245336E+03</rscale>
<asrwt>0</asrwt>
<pdfrwt beam="1">  1        1 0.16107873E+00 0.64245336E+03</pdfrwt>
<pdfrwt beam="2">  1       -2 0.74241794E-01 0.64245336E+03</pdfrwt>
<totfact> 0.20655565E+01</totfact>
</mgrwt>
</event>
<event>
12    3  0.1176505E-007  0.5402689E+03  0.7818608E-02  0.1003772E+00
         -2   -1    0    0    0  501 -0.00000000000E+00  0.00000000000E+00  0.40939670438E+03  0.40939670438E+03  0.00000000000E+00 0.  1.
          1   -1    0    0  501    0  0.00000000000E+00 -0.00000000000E+00 -0.86622505337E+03  0.86622505337E+03  0.00000000000E+00 0. -1.
        -24    2    1    2    0    0  0.36189736069E+03 -0.21952906476E+03 -0.42328511072E+02  0.43234763628E+03  0.77266200879E+02 0.  0.
    5000000    2    1    2    0    0 -0.36189736069E+03  0.21952906476E+03 -0.41449983792E+03  0.84327412147E+03  0.60011533755E+03 0.  0.
        -24    2    4    4    0    0  0.34701463273E+02  0.24666258544E+03 -0.34389810651E+03  0.43188193192E+03  0.78800208464E+02 0.  0.
         24    2    4    4    0    0 -0.39659882397E+03 -0.27133520680E+02 -0.70601731408E+02  0.41139218955E+03  0.78943486308E+02 0.  0.
         13    1    5    5    0    0  0.16198858209E+02  0.15696076779E+03 -0.15128121116E+03  0.21859801115E+03  0.00000000000E+00 0. -1.
        -14    1    5    5    0    0  0.18502605063E+02  0.89701817651E+02 -0.19261689535E+03  0.21328392077E+03  0.00000000000E+00 0.  1.
         15    1    3    3    0    0  0.30047031782E+03 -0.14795845972E+03 -0.45335137453E+02  0.33798306187E+03  0.17770000000E+01 0. -1.
        -16    1    3    3    0    0  0.61427042875E+02 -0.71570605042E+02  0.30066263803E+01  0.94364574416E+02  0.00000000000E+00 0.  1.
          2    1    6    6  502    0 -0.34977930827E+03 -0.42732014738E+01 -0.79005589789E+02  0.35861637994E+03  0.00000000000E+00 0. -1.
         -1    1    6    6    0  502 -0.46819515693E+02 -0.22860319206E+02  0.84038583815E+01  0.52775809607E+02  0.00000000000E+00 0.  1.
<mgrwt>
<rscale>  0 0.54026894E+03</rscale>
<asrwt>0</asrwt>
<pdfrwt beam="1">  1        1 0.13326539E+00 0.54026894E+03</pdfrwt>
<pdfrwt beam="2">  1       -2 0.62984109E-01 0.54026894E+03</pdfrwt>
<totfact> 0.41427105E+01</totfact>
</mgrwt>
</event>
<event>
12    3  0.1176505E-007  0.1292951E+04  0.7818608E-02  0.9035173E-01
         -2   -1    0    0    0  501 -0.00000000000E+00  0.00000000000E+00  0.20176872077E+04  0.20176872077E+04  0.00000000000E+00 0.  1.
          1   -1    0    0  501    0  0.00000000000E+00 -0.00000000000E+00 -0.89788758928E+03  0.89788758928E+03  0.00000000000E+00 0. -1.
        -24    2    1    2    0    0 -0.11935309915E+04  0.45636431681E+03  0.53867449042E+03  0.13890138500E+04  0.80029066361E+02 0.  0.
    5000000    2    1    2    0    0  0.11935309915E+04 -0.45636431681E+03  0.58112512805E+03  0.15265609470E+04  0.59991440485E+03 0.  0.
        -24    2    4    4    0    0  0.97527582019E+03 -0.25691452314E+03  0.66358127743E+03  0.12092735822E+04  0.69530477669E+02 0.  0.
         24    2    4    4    0    0  0.21825517134E+03 -0.19944979368E+03 -0.82456149379E+02  0.31728736478E+03  0.80353688568E+02 0.  0.
         13    1    5    5    0    0  0.86062436196E+03 -0.22550333085E+03  0.61104073399E+03  0.10793038605E+04  0.00000000000E+00 0. -1.
        -14    1    5    5    0    0  0.11465145823E+03 -0.31411192292E+02  0.52540543436E+02  0.12996972178E+03  0.00000000000E+00 0.  1.
         15    1    3    3    0    0 -0.61198383450E+03  0.19759567569E+03  0.24787859146E+03  0.68921347823E+03  0.17770000000E+01 0. -1.
        -16    1    3    3    0    0 -0.58154715703E+03  0.25876864113E+03  0.29079589896E+03  0.69980037177E+03  0.00000000000E+00 0.  1.
          4    1    6    6  502    0  0.44970666059E+02 -0.61799662668E+02 -0.55270561257E+02  0.94320697905E+02  0.00000000000E+00 0. -1.
         -3    1    6    6    0  502  0.17328450528E+03 -0.13765013101E+03 -0.27185588122E+02  0.22296666688E+03  0.00000000000E+00 0.  1.
<mgrwt>
<rscale>  0 0.12929514E+04</rscale>
<asrwt>0</asrwt>
<pdfrwt beam="1">  1        1 0.13813655E+00 0.12929514E+04</pdfrwt>
<pdfrwt beam="2">  1       -2 0.31041341E+00 0.12929514E+04</pdfrwt>
<totfact> 0.42708123E-01</totfact>
</mgrwt>
</event>
<event>
12    3  0.1176505E-007  0.8006690E+03  0.7818608E-02  0.9559049E-01
          1   -1    0    0  501    0  0.00000000000E+00  0.00000000000E+00  0.18597229763E+04  0.18597229763E+04  0.00000000000E+00 0. -1.
         -2   -1    0    0    0  501 -0.00000000000E+00 -0.00000000000E+00 -0.41403048077E+03  0.41403048077E+03  0.00000000000E+00 0.  1.
        -24    2    1    2    0    0 -0.33336118085E+03 -0.62741620876E+03  0.10344071428E+04  0.12569328653E+04  0.71423489342E+02 0.  0.
    5000000    2    1    2    0    0  0.33336118085E+03  0.62741620876E+03  0.41128535278E+03  0.10168205918E+04  0.59998974877E+03 0.  0.
        -24    2    4    4    0    0  0.73458401243E+02  0.61493982567E+03  0.15306301351E+03  0.64285544996E+03  0.79295129297E+02 0.  0.
         24    2    4    4    0    0  0.25990277961E+03  0.12476383089E+02  0.25822233927E+03  0.37396514186E+03  0.73932643994E+02 0.  0.
         11    1    5    5    0    0  0.36324073373E+02  0.20952159976E+03  0.15841360753E+02  0.21323622531E+03  0.00000000000E+00 0. -1.
        -12    1    5    5    0    0  0.37134327870E+02  0.40541822591E+03  0.13722165276E+03  0.42961922465E+03  0.00000000000E+00 0.  1.
         15    1    3    3    0    0 -0.11109930208E+03 -0.24007827219E+03  0.44097521165E+03  0.51424014499E+03  0.17770000000E+01 0. -1.
        -16    1    3    3    0    0 -0.22226187877E+03 -0.38733793658E+03  0.59343193112E+03  0.74269272027E+03  0.00000000000E+00 0.  1.
          2    1    6    6  502    0  0.23372937674E+03  0.34481950606E+02  0.22787001403E+03  0.32824254715E+03  0.00000000000E+00 0. -1.
         -1    1    6    6    0  502  0.26173402872E+02 -0.22005567517E+02  0.30352325238E+02  0.45722594709E+02  0.00000000000E+00 0.  1.
<mgrwt>
<rscale>  0 0.80066898E+03</rscale>
<asrwt>0</asrwt>
<pdfrwt beam="1">  1        1 0.28611122E+00 0.80066898E+03</pdfrwt>
<pdfrwt beam="2">  1       -2 0.63696998E-01 0.80066898E+03</pdfrwt>
<totfact> 0.76653986E+00</totfact>
</mgrwt>
</event>
<event>
12    3  0.1176505E-007  0.4937694E+03  0.7818608E-02  0.1015418E+00
         -2   -1    0    0    0  501 -0.00000000000E+00  0.00000000000E+00  0.44148099638E+03  0.44148099638E+03  0.00000000000E+00 0.  1.
          1   -1    0    0  501    0  0.00000000000E+00 -0.00000000000E+00 -0.92101702303E+03  0.92101702303E+03  0.00000000000E+00 0. -1.
        -24    2    1    2    0    0 -0.47554639032E+03  0.11384344971E+03 -0.25090088217E+03  0.55523714910E+03  0.78945162510E+02 0.  0.
    5000000    2    1    2    0    0  0.47554639032E+03 -0.11384344971E+03 -0.22863514449E+03  0.80726087031E+03  0.60024277009E+03 0.  0.
        -24    2    4    4    0    0  0.30235042365E+03 -0.10106318972E+03  0.16749096628E+03  0.36843697902E+03  0.77865504089E+02 0.  0.
         24    2    4    4    0    0  0.17319596667E+03 -0.12780259986E+02 -0.39612611077E+03  0.43882389129E+03  0.74096788139E+02 0.  0.
         11    1    5    5    0    0  0.16479197489E+03 -0.72641718828E+02  0.54471915717E+02  0.18814995058E+03  0.00000000000E+00 0. -1.
        -12    1    5    5    0    0  0.13755844876E+03 -0.28421470897E+02  0.11301905056E+03  0.18028702844E+03  0.00000000000E+00 0.  1.
         15    1    3    3    0    0 -0.28847035498E+03  0.98741135722E+02 -0.18322465524E+03  0.35572375463E+03  0.17770000000E+01 0. -1.
        -16    1    3    3    0    0 -0.18707603534E+03  0.15102313988E+02 -0.67676226927E+02  0.19951339448E+03  0.00000000000E+00 0.  1.
          4    1    6    6  502    0  0.18711589988E+02 -0.63979194962E+01 -0.12629290097E+03  0.12783174023E+03  0.00000000000E+00 0. -1.
         -3    1    6    6    0  502  0.15448437668E+03 -0.63823404894E+01 -0.26983320980E+03  0.31099215106E+03  0.00000000000E+00 0.  1.
<mgrwt>
<rscale>  0 0.49376941E+03</rscale>
<asrwt>0</asrwt>
<pdfrwt beam="1">  1        1 0.14169493E+00 0.49376941E+03</pdfrwt>
<pdfrwt beam="2">  1       -2 0.67920154E-01 0.49376941E+03</pdfrwt>
<totfact> 0.32030585E+01</totfact>
</mgrwt>
</event>
<event>
12    3  0.1176505E-007  0.1269593E+04  0.7818608E-02  0.9054032E-01
         -2   -1    0    0    0  501 -0.00000000000E+00  0.00000000000E+00  0.10466905998E+04  0.10466905998E+04  0.00000000000E+00 0.  1.
          1   -1    0    0  501    0  0.00000000000E+00 -0.00000000000E+00 -0.18547212557E+04  0.18547212557E+04  0.00000000000E+00 0. -1.
        -24    2    1    2    0    0  0.32619203027E+03 -0.12127954976E+04 -0.83325307170E+03  0.15093200595E+04  0.80387814335E+02 0.  0.
    5000000    2    1    2    0    0 -0.32619203027E+03  0.12127954976E+04  0.25222415830E+02  0.13920917961E+04  0.60000769894E+03 0.  0.
        -24    2    4    4    0    0 -0.72843883325E+02  0.75433664906E+03  0.27018352054E+03  0.80840272736E+03  0.78650005545E+02 0.  0.
         24    2    4    4    0    0 -0.25334814694E+03  0.45845884857E+03 -0.24496110471E+03  0.58368906873E+03  0.79480731898E+02 0.  0.
         11    1    5    5    0    0 -0.43450432078E+01  0.58508936333E+02  0.44680736362E+02  0.73746479463E+02  0.00000000000E+00 0. -1.
        -12    1    5    5    0    0 -0.68498840117E+02  0.69582771273E+03  0.22550278418E+03  0.73465624789E+03  0.00000000000E+00 0.  1.
         15    1    3    3    0    0  0.30428148849E+03 -0.10544027071E+04 -0.70536264724E+03  0.13045657955E+04  0.17770000000E+01 0. -1.
        -16    1    3    3    0    0  0.21910541777E+02 -0.15839279053E+03 -0.12789042446E+03  0.20475426394E+03  0.00000000000E+00 0.  1.
          4    1    6    6  502    0 -0.13489712102E+02  0.31597642992E+02  0.36559088600E+01  0.34550673580E+02  0.00000000000E+00 0. -1.
         -3    1    6    6    0  502 -0.23985843484E+03  0.42686120558E+03 -0.24861701357E+03  0.54913839515E+03  0.00000000000E+00 0.  1.
<mgrwt>
<rscale>  0 0.12695927E+04</rscale>
<asrwt>0</asrwt>
<pdfrwt beam="1">  1        1 0.28534173E+00 0.12695927E+04</pdfrwt>
<pdfrwt beam="2">  1       -2 0.16102932E+00 0.12695927E+04</pdfrwt>
<totfact> 0.78612060E-01</totfact>
</mgrwt>
</event>
<event>
12    3  0.1176505E-007  0.7839858E+03  0.7818608E-02  0.9583491E-01
          1   -1    0    0  501    0  0.00000000000E+00  0.00000000000E+00  0.15325992253E+04  0.15325992253E+04  0.00000000000E+00 0. -1.
         -2   -1    0    0    0  501 -0.00000000000E+00 -0.00000000000E+00 -0.41907043750E+03  0.41907043750E+03  0.00000000000E+00 0.  1.
        -24    2    1    2    0    0  0.68261373982E+03  0.39408242665E+02  0.40923770097E+03  0.80109101158E+03  0.82199668822E+02 0.  0.
    5000000    2    1    2    0    0 -0.68261373982E+03 -0.39408242665E+02  0.70429108683E+03  0.11505786512E+04  0.60024225966E+03 0.  0.
        -24    2    4    4    0    0 -0.69389154995E+03 -0.20052520339E+03  0.59860062081E+03  0.94150688461E+03  0.80104121356E+02 0.  0.
         24    2    4    4    0    0  0.11277810130E+02  0.16111696073E+03  0.10569046602E+03  0.20907176661E+03  0.80340929478E+02 0.  0.
         13    1    5    5    0    0 -0.53902562950E+01 -0.69405815607E+00 -0.24585504484E+01  0.59649853275E+01  0.00000000000E+00 0. -1.
        -14    1    5    5    0    0 -0.68850129365E+03 -0.19983114524E+03  0.60105917126E+03  0.93554189929E+03  0.00000000000E+00 0.  1.
         15    1    3    3    0    0  0.19660800535E+03  0.16294085296E+02  0.16224377305E+03  0.25543375777E+03  0.17770000000E+01 0. -1.
        -16    1    3    3    0    0  0.48600573447E+03  0.23114157369E+02  0.24699392792E+03  0.54565725381E+03  0.00000000000E+00 0.  1.
          4    1    6    6  502    0 -0.10885735587E+01  0.43142423419E+02 -0.89863044870E+01  0.44081825725E+02  0.00000000000E+00 0. -1.
         -3    1    6    6    0  502  0.12366383689E+02  0.11797453731E+03  0.11467677051E+03  0.16498994088E+03  0.00000000000E+00 0.  1.
<mgrwt>
<rscale>  0 0.78398576E+03</rscale>
<asrwt>0</asrwt>
<pdfrwt beam="1">  1        1 0.23578449E+00 0.78398576E+03</pdfrwt>
<pdfrwt beam="2">  1       -2 0.64472375E-01 0.78398576E+03</pdfrwt>
<totfact> 0.12446355E+01</totfact>
</mgrwt>
</event>
<event>
12    3  0.1176505E-007  0.6563771E+03  0.7818608E-02  0.9794886E-01
          1   -1    0    0  501    0  0.00000000000E+00  0.00000000000E+00  0.78214140452E+03  0.78214140452E+03  0.00000000000E+00 0. -1.
         -2   -1    0    0    0  501 -0.00000000000E+00 -0.00000000000E+00 -0.90680788503E+03  0.90680788503E+03  0.00000000000E+00 0.  1.
        -24    2    1    2    0    0  0.40446011549E+03 -0.33100383787E+03  0.46088727686E+03  0.70106879566E+03  0.76999016734E+02 0.  0.
    5000000    2    1    2    0    0 -0.40446011549E+03  0.33100383787E+03 -0.58555375736E+03  0.98788049388E+03  0.59990261020E+03 0.  0.
        -24    2    4    4    0    0  0.52764919513E+02  0.31727322290E+03 -0.24607886998E+03  0.41276099568E+03  0.79814751777E+02 0.  0.
         24    2    4    4    0    0 -0.45722503501E+03  0.13730614967E+02 -0.33947488738E+03  0.57511949820E+03  0.79221055459E+02 0.  0.
         13    1    5    5    0    0  0.28902346938E+02  0.38885434341E+02 -0.16663684302E+02  0.51235739840E+02  0.00000000000E+00 0. -1.
        -14    1    5    5    0    0  0.23862572576E+02  0.27838778856E+03 -0.22941518568E+03  0.36152525584E+03  0.00000000000E+00 0.  1.
         15    1    3    3    0    0  0.18873030301E+03 -0.12890048428E+03  0.15810614110E+03  0.27791216545E+03  0.17770000000E+01 0. -1.
        -16    1    3    3    0    0  0.21572981248E+03 -0.20210335359E+03  0.30278113575E+03  0.42315663021E+03  0.00000000000E+00 0.  1.
          2    1    6    6  502    0 -0.20597887971E+03 -0.21202000420E+02 -0.18794712722E+03  0.27964432112E+03  0.00000000000E+00 0. -1.
         -1    1    6    6    0  502 -0.25124615530E+03  0.34932615386E+02 -0.15152776016E+03  0.29547517708E+03  0.00000000000E+00 0.  1.
<mgrwt>
<rscale>  0 0.65637714E+03</rscale>
<asrwt>0</asrwt>
<pdfrwt beam="1">  1        1 0.12032945E+00 0.65637714E+03</pdfrwt>
<pdfrwt beam="2">  1       -2 0.13950891E+00 0.65637714E+03</pdfrwt>
<totfact> 0.75300286E+00</totfact>
</mgrwt>
</event>
<event>
12    3  0.1176505E-007  0.5652966E+03  0.7818608E-02  0.9980141E-01
         -4   -1    0    0    0  501 -0.00000000000E+00  0.00000000000E+00  0.23450711504E+03  0.23450711504E+03  0.00000000000E+00 0.  1.
          3   -1    0    0  501    0  0.00000000000E+00 -0.00000000000E+00 -0.15435474955E+04  0.15435474955E+04  0.00000000000E+00 0. -1.
        -24    2    1    2    0    0 -0.32825068607E+03  0.25305428399E+03 -0.74452643099E+03  0.85585471619E+03  0.79891834548E+02 0.  0.
    5000000    2    1    2    0    0  0.32825068607E+03 -0.25305428399E+03 -0.56451394948E+03  0.92219989437E+03  0.59999305202E+03 0.  0.
        -24    2    4    4    0    0 -0.15404355161E+03  0.10502275865E+02 -0.15105392138E+03  0.23021169091E+03  0.79626766089E+02 0.  0.
         24    2    4    4    0    0  0.48229423767E+03 -0.26355655985E+03 -0.41346002811E+03  0.69198820346E+03  0.76345837842E+02 0.  0.
         11    1    5    5    0    0 -0.57491254876E+02 -0.12612183725E+02 -0.13186493270E+02  0.60317453281E+02  0.00000000000E+00 0. -1.
        -12    1    5    5    0    0 -0.96552296729E+02  0.23114459590E+02 -0.13786742811E+03  0.16989423763E+03  0.00000000000E+00 0.  1.
         15    1    3    3    0    0 -0.31502441304E+03  0.21755711834E+03 -0.69534994213E+03  0.79377967994E+03  0.17770000000E+01 0. -1.
        -16    1    3    3    0    0 -0.13226273030E+02  0.35497165651E+02 -0.49176488869E+02  0.62075036247E+02  0.00000000000E+00 0.  1.
          2    1    6    6  502    0  0.32577059394E+03 -0.20329465043E+03 -0.25287078664E+03  0.45978128442E+03  0.00000000000E+00 0. -1.
         -1    1    6    6    0  502  0.15652364373E+03 -0.60261909421E+02 -0.16058924147E+03  0.23220691904E+03  0.00000000000E+00 0.  1.
<mgrwt>
<rscale>  0 0.56529658E+03</rscale>
<asrwt>0</asrwt>
<pdfrwt beam="1">  1        3 0.23746885E+00 0.56529658E+03</pdfrwt>
<pdfrwt beam="2">  1       -4 0.36078017E-01 0.56529658E+03</pdfrwt>
<totfact> 0.15117288E+00</totfact>
</mgrwt>
</event>
<event>
12    3  0.1176505E-007  0.1572440E+04  0.7818608E-02  0.8837660E-01
         -2   -1    0    0    0  501 -0.00000000000E+00  0.00000000000E+00  0.20225570409E+04  0.20225570409E+04  0.00000000000E+00 0.  1.
          1   -1    0    0  501    0  0.00000000000E+00 -0.00000000000E+00 -0.12512551328E+04  0.12512551328E+04  0.00000000000E+00 0. -1.
        -24    2    1    2    0    0 -0.13720270587E+04  0.68418635025E+03  0.35489747270E+03  0.15756070071E+04  0.77562960331E+02 0.  0.
    5000000    2    1    2    0    0  0.13720270587E+04 -0.68418635025E+03  0.41640443532E+03  0.16982051667E+04  0.59994909998E+03 0.  0.
        -24    2    4    4    0    0  0.75980123562E+03 -0.11120809225E+03  0.32269017669E+02  0.77253277004E+03  0.78105274123E+02 0.  0.
         24    2    4    4    0    0  0.61222582311E+03 -0.57297825800E+03  0.38413541765E+03  0.92567239662E+03  0.78643652975E+02 0.  0.
         11    1    5    5    0    0  0.87624243048E+02  0.10780171565E+02 -0.43827903918E+01  0.88393602259E+02  0.00000000000E+00 0. -1.
        -12    1    5    5    0    0  0.67217699258E+03 -0.12198826381E+03  0.36651808060E+02  0.68413916778E+03  0.00000000000E+00 0.  1.
         15    1    3    3    0    0 -0.88213312075E+03  0.40357051700E+03  0.20534813713E+03  0.99156392636E+03  0.17770000000E+01 0. -1.
        -16    1    3    3    0    0 -0.48989393798E+03  0.28061583325E+03  0.14954933557E+03  0.58404308070E+03  0.00000000000E+00 0.  1.
          4    1    6    6  502    0  0.39855362152E+02 -0.44854148107E+02  0.50479488195E+02  0.78412519556E+02  0.00000000000E+00 0. -1.
         -3    1    6    6    0  502  0.57237046095E+03 -0.52812410989E+03  0.33365592946E+03  0.84725987706E+03  0.00000000000E+00 0.  1.
<mgrwt>
<rscale>  0 0.15724399E+04</rscale>
<asrwt>0</asrwt>
<pdfrwt beam="1">  1        1 0.19250079E+00 0.15724399E+04</pdfrwt>
<pdfrwt beam="2">  1       -2 0.31116262E+00 0.15724399E+04</pdfrwt>
<totfact> 0.21899335E-01</totfact>
</mgrwt>
</event>
<event>
12    3  0.1176505E-007  0.5679122E+03  0.7818608E-02  0.9974309E-01
         -2   -1    0    0    0  501 -0.00000000000E+00  0.00000000000E+00  0.10499299737E+03  0.10499299737E+03  0.00000000000E+00 0.  1.
          1   -1    0    0  501    0  0.00000000000E+00 -0.00000000000E+00 -0.32078180751E+04  0.32078180751E+04  0.00000000000E+00 0. -1.
        -24    2    1    2    0    0 -0.59645906729E+02 -0.40678010544E+03 -0.89260166008E+03  0.98599933860E+03  0.80182814649E+02 0.  0.
    5000000    2    1    2    0    0  0.59645906729E+02  0.40678010544E+03 -0.22102234176E+04  0.23268117338E+04  0.59994799825E+03 0.  0.
        -24    2    4    4    0    0  0.28932988161E+03  0.37626052653E+03 -0.15125742403E+04  0.15875962318E+04  0.85423641561E+02 0.  0.
         24    2    4    4    0    0 -0.22968397488E+03  0.30519578915E+02 -0.69764917732E+03  0.73921550206E+03  0.77711072999E+02 0.  0.
         13    1    5    5    0    0  0.16555685624E+03  0.27833246182E+03 -0.97947577892E+03  0.10316253358E+04  0.00000000000E+00 0. -1.
        -14    1    5    5    0    0  0.12377302537E+03  0.97928064705E+02 -0.53309846137E+03  0.55597089599E+03  0.00000000000E+00 0.  1.
         15    1    3    3    0    0 -0.49753251599E+02 -0.31298506066E+03 -0.59975170932E+03  0.67833642450E+03  0.17770000000E+01 0. -1.
        -16    1    3    3    0    0 -0.98926551298E+01 -0.93795044779E+02 -0.29284995076E+03  0.30766291410E+03  0.00000000000E+00 0.  1.
          4    1    6    6  502    0 -0.10916874061E+03  0.51295709565E+02 -0.30590593855E+03  0.32882747298E+03  0.00000000000E+00 0. -1.
         -3    1    6    6    0  502 -0.12051523427E+03 -0.20776130650E+02 -0.39174323877E+03  0.41038802909E+03  0.00000000000E+00 0.  1.
<mgrwt>
<rscale>  0 0.56791218E+03</rscale>
<asrwt>0</asrwt>
<pdfrwt beam="1">  1        1 0.49351047E+00 0.56791218E+03</pdfrwt>
<pdfrwt beam="2">  1       -2 0.16152769E-01 0.56791218E+03</pdfrwt>
<totfact> 0.12555312E+01</totfact>
</mgrwt>
</event>
<event>
12    3  0.1176505E-007  0.1699490E+04  0.7818608E-02  0.8761655E-01
          1   -1    0    0  501    0  0.00000000000E+00  0.00000000000E+00  0.15993852930E+04  0.15993852930E+04  0.00000000000E+00 0. -1.
         -2   -1    0    0    0  501 -0.00000000000E+00 -0.00000000000E+00 -0.29776375128E+04  0.29776375128E+04  0.00000000000E+00 0.  1.
        -24    2    1    2    0    0 -0.29707963262E+03  0.16263304042E+04  0.74910543898E+03  0.18167804058E+04  0.79531077479E+02 0.  0.
    5000000    2    1    2    0    0  0.29707963262E+03 -0.16263304042E+04 -0.21273576588E+04  0.27602424000E+04  0.60006716830E+03 0.  0.
        -24    2    4    4    0    0  0.45558046082E+03 -0.12193979112E+04 -0.14490310825E+04  0.19494943786E+04  0.79702144183E+02 0.  0.
         24    2    4    4    0    0 -0.15850082820E+03 -0.40693249299E+03 -0.67832657634E+03  0.81074802147E+03  0.80429122547E+02 0.  0.
         11    1    5    5    0    0  0.28845487982E+03 -0.82116295015E+03 -0.10176207014E+04  0.13390544053E+04  0.00000000000E+00 0. -1.
        -12    1    5    5    0    0  0.16712558100E+03 -0.39823496109E+03 -0.43141038110E+03  0.61043997328E+03  0.00000000000E+00 0.  1.
         15    1    3    3    0    0 -0.14671012639E+03  0.95245969901E+03  0.46772359835E+03  0.10712011303E+04  0.17770000000E+01 0. -1.
        -16    1    3    3    0    0 -0.15036950623E+03  0.67387070522E+03  0.28138184063E+03  0.74557927546E+03  0.00000000000E+00 0.  1.
          4    1    6    6  502    0 -0.11685617317E+03 -0.20095761616E+03 -0.32347158915E+03  0.39833804449E+03  0.00000000000E+00 0. -1.
         -1    1    6    6    0  502 -0.41644655030E+02 -0.20597487682E+03 -0.35485498719E+03  0.41240997698E+03  0.00000000000E+00 0.  1.
<mgrwt>
<rscale>  0 0.16994898E+04</rscale>
<asrwt>0</asrwt>
<pdfrwt beam="1">  1        1 0.24605927E+00 0.16994898E+04</pdfrwt>
<pdfrwt beam="2">  1       -2 0.45809808E+00 0.16994898E+04</pdfrwt>
<totfact> 0.13786169E-02</totfact>
</mgrwt>
</event>
<event>
12    3  0.1176505E-007  0.2195409E+04  0.7818608E-02  0.8520342E-01
         -2   -1    0    0    0  501 -0.00000000000E+00  0.00000000000E+00  0.18966983130E+04  0.18966983130E+04  0.00000000000E+00 0.  1.
          1   -1    0    0  501    0  0.00000000000E+00 -0.00000000000E+00 -0.29787469168E+04  0.29787469168E+04  0.00000000000E+00 0. -1.
        -24    2    1    2    0    0 -0.21437933878E+04  0.35822553120E+03  0.35195243737E+03  0.22032606943E+04  0.79445251881E+02 0.  0.
    5000000    2    1    2    0    0  0.21437933878E+04 -0.35822553120E+03 -0.14340010412E+04  0.26721845355E+04  0.60002965325E+03 0.  0.
        -24    2    4    4    0    0  0.16002641927E+04 -0.77896277138E+02 -0.12344177500E+04  0.20241462939E+04  0.80422144335E+02 0.  0.
         24    2    4    4    0    0  0.54352919514E+03 -0.28032925406E+03 -0.19958329116E+03  0.64803824157E+03  0.78176695829E+02 0.  0.
         13    1    5    5    0    0  0.10152433387E+04 -0.14193214282E+02 -0.76089659656E+03  0.12688120881E+04  0.00000000000E+00 0. -1.
        -14    1    5    5    0    0  0.58502085398E+03 -0.63703062856E+02 -0.47352115347E+03  0.75533420589E+03  0.00000000000E+00 0.  1.
         15    1    3    3    0    0 -0.15213830353E+04  0.29026786117E+03  0.25604617882E+03  0.15698485834E+04  0.17770000000E+01 0. -1.
        -16    1    3    3    0    0 -0.62241035250E+03  0.67957670034E+02  0.95906258544E+02  0.63341211091E+03  0.00000000000E+00 0.  1.
          4    1    6    6  502    0  0.13816849248E+03 -0.59315646644E+02 -0.16115463189E+02  0.15122363044E+03  0.00000000000E+00 0. -1.
         -3    1    6    6    0  502  0.40536070266E+03 -0.22101360742E+03 -0.18346782797E+03  0.49681461113E+03  0.00000000000E+00 0.  1.
<mgrwt>
<rscale>  0 0.21954087E+04</rscale>
<asrwt>0</asrwt>
<pdfrwt beam="1">  1        1 0.45826876E+00 0.21954087E+04</pdfrwt>
<pdfrwt beam="2">  1       -2 0.29179974E+00 0.21954087E+04</pdfrwt>
<totfact> 0.16808876E-02</totfact>
</mgrwt>
</event>
<event>
12    3  0.1176505E-007  0.3782412E+03  0.7818608E-02  0.1051586E+00
         -2   -1    0    0    0  501 -0.00000000000E+00  0.00000000000E+00  0.35770311254E+03  0.35770311254E+03  0.00000000000E+00 0.  1.
          1   -1    0    0  501    0  0.00000000000E+00 -0.00000000000E+00 -0.88115209875E+03  0.88115209875E+03  0.00000000000E+00 0. -1.
        -24    2    1    2    0    0 -0.32267164505E+03 -0.45450146259E+02  0.60055805989E+02  0.34072999400E+03  0.79419913523E+02 0.  0.
    5000000    2    1    2    0    0  0.32267164505E+03  0.45450146259E+02 -0.58350479220E+03  0.89812521729E+03  0.59997363034E+03 0.  0.
        -24    2    4    4    0    0  0.33171562311E+02 -0.60753524662E+02 -0.56999342543E+03  0.57945671567E+03  0.78014338372E+02 0.  0.
         24    2    4    4    0    0  0.28950008274E+03  0.10620367092E+03 -0.13511366764E+02  0.31866850162E+03  0.79230923710E+02 0.  0.
         13    1    5    5    0    0 -0.79839997631E+01 -0.61834911271E+02 -0.37701601487E+03  0.38213659334E+03  0.00000000000E+00 0. -1.
        -14    1    5    5    0    0  0.41155562074E+02  0.10813866088E+01 -0.19297741057E+03  0.19732012233E+03  0.00000000000E+00 0.  1.
         15    1    3    3    0    0 -0.22950181915E+03  0.31017541401E+01  0.52095823907E+02  0.23536745414E+03  0.17770000000E+01 0. -1.
        -16    1    3    3    0    0 -0.93169825904E+02 -0.48551900399E+02  0.79599820817E+01  0.10536253986E+03  0.00000000000E+00 0.  1.
          4    1    6    6  502    0  0.28984583882E+03  0.91901032547E+02 -0.12416833119E+02  0.30431987745E+03  0.00000000000E+00 0. -1.
         -3    1    6    6    0  502 -0.34575608519E+00  0.14302638375E+02 -0.10945336452E+01  0.14348624173E+02  0.00000000000E+00 0.  1.
<mgrwt>
<rscale>  0 0.37824117E+03</rscale>
<asrwt>0</asrwt>
<pdfrwt beam="1">  1        1 0.13556186E+00 0.37824117E+03</pdfrwt>
<pdfrwt beam="2">  1       -2 0.55031249E-01 0.37824117E+03</pdfrwt>
<totfact> 0.54616515E+01</totfact>
</mgrwt>
</event>
<event>
12    3  0.1176505E-007  0.6646706E+03  0.7818608E-02  0.9779634E-01
         -2   -1    0    0    0  501 -0.00000000000E+00  0.00000000000E+00  0.38487261007E+03  0.38487261007E+03  0.00000000000E+00 0.  1.
          1   -1    0    0  501    0  0.00000000000E+00 -0.00000000000E+00 -0.20088352148E+04  0.20088352148E+04  0.00000000000E+00 0. -1.
        -24    2    1    2    0    0  0.61130308038E+03 -0.60850004353E+02 -0.76691364840E+02  0.62418670781E+03  0.79582043503E+02 0.  0.
    5000000    2    1    2    0    0 -0.61130308038E+03  0.60850004353E+02 -0.15472712399E+04  0.17695211170E+04  0.59980206300E+03 0.  0.
        -24    2    4    4    0    0 -0.57569900978E+03  0.14372154890E+03 -0.73198881369E+03  0.94540587060E+03  0.76807573340E+02 0.  0.
         24    2    4    4    0    0 -0.35604070607E+02 -0.82871544544E+02 -0.81528242618E+03  0.82411524644E+03  0.79656526591E+02 0.  0.
         13    1    5    5    0    0 -0.43945001561E+03  0.98100390852E+02 -0.60112223930E+03  0.75105788691E+03  0.00000000000E+00 0. -1.
        -14    1    5    5    0    0 -0.13624899417E+03  0.45621158045E+02 -0.13086657439E+03  0.19434798369E+03  0.00000000000E+00 0.  1.
         15    1    3    3    0    0  0.28850164144E+00 -0.45467457236E+01  0.25038707833E+01  0.54939264440E+01  0.17770000000E+01 0. -1.
        -16    1    3    3    0    0  0.61101457874E+03 -0.56303258629E+02 -0.79195235623E+02  0.61869278136E+03  0.00000000000E+00 0.  1.
          4    1    6    6  502    0 -0.56966136601E+02 -0.41984798424E+02 -0.58442859803E+03  0.58869741822E+03  0.00000000000E+00 0. -1.
         -3    1    6    6    0  502  0.21362065994E+02 -0.40886746120E+02 -0.23085382815E+03  0.23541782822E+03  0.00000000000E+00 0.  1.
<mgrwt>
<rscale>  0 0.66467056E+03</rscale>
<asrwt>0</asrwt>
<pdfrwt beam="1">  1        1 0.30905157E+00 0.66467056E+03</pdfrwt>
<pdfrwt beam="2">  1       -2 0.59211170E-01 0.66467056E+03</pdfrwt>
<totfact> 0.72677702E+00</totfact>
</mgrwt>
</event>
<event>
12    3  0.1176505E-007  0.6697610E+03  0.7818608E-02  0.9770390E-01
         -2   -1    0    0    0  501 -0.00000000000E+00  0.00000000000E+00  0.21271457604E+03  0.21271457604E+03  0.00000000000E+00 0.  1.
          1   -1    0    0  501    0  0.00000000000E+00 -0.00000000000E+00 -0.32719238615E+04  0.32719238615E+04  0.00000000000E+00 0. -1.
        -24    2    1    2    0    0 -0.59824395404E+03 -0.27488370392E+03 -0.19615737659E+04  0.20710326810E+04  0.89150701245E+02 0.  0.
    5000000    2    1    2    0    0  0.59824395404E+03  0.27488370392E+03 -0.10976355195E+04  0.14136057565E+04  0.60001718460E+03 0.  0.
        -24    2    4    4    0    0  0.13869849287E+03  0.66565848841E+02  0.31927552423E+02  0.17398269269E+03  0.74714955645E+02 0.  0.
         24    2    4    4    0    0  0.45954546117E+03  0.20831785508E+03 -0.11295630720E+04  0.12396230638E+04  0.78576377824E+02 0.  0.
         11    1    5    5    0    0  0.13699021147E+03  0.38057158884E+02  0.30335687721E+02  0.14537853807E+03  0.00000000000E+00 0. -1.
        -12    1    5    5    0    0  0.17082813929E+01  0.28508689957E+02  0.15918647015E+01  0.28604154621E+02  0.00000000000E+00 0.  1.
         15    1    3    3    0    0 -0.20398654237E+03 -0.13349099657E+03 -0.79546845545E+03  0.83198772646E+03  0.17770000000E+01 0. -1.
        -16    1    3    3    0    0 -0.39425741166E+03 -0.14139270735E+03 -0.11661053105E+04  0.12390449546E+04  0.00000000000E+00 0.  1.
          2    1    6    6  502    0  0.38777224244E+03  0.19127162622E+03 -0.89954051583E+03  0.99806076299E+03  0.00000000000E+00 0. -1.
         -1    1    6    6    0  502  0.71773218728E+02  0.17046228861E+02 -0.23002255612E+03  0.24156230081E+03  0.00000000000E+00 0.  1.
<mgrwt>
<rscale>  0 0.66976097E+03</rscale>
<asrwt>0</asrwt>
<pdfrwt beam="1">  1        1 0.50337291E+00 0.66976097E+03</pdfrwt>
<pdfrwt beam="2">  1       -2 0.32725319E-01 0.66976097E+03</pdfrwt>
<totfact> 0.31325041E+00</totfact>
</mgrwt>
</event>
<event>
12    3  0.1176505E-007  0.3895899E+03  0.7818608E-02  0.1047445E+00
         -2   -1    0    0    0  501 -0.00000000000E+00  0.00000000000E+00  0.10351270254E+04  0.10351270254E+04  0.00000000000E+00 0.  1.
          1   -1    0    0  501    0  0.00000000000E+00 -0.00000000000E+00 -0.21062519345E+03  0.21062519345E+03  0.00000000000E+00 0. -1.
        -24    2    1    2    0    0  0.91259330019E+02  0.24532419167E+03  0.18271903350E+03  0.32904846762E+03  0.79839993154E+02 0.  0.
    5000000    2    1    2    0    0 -0.91259330019E+02 -0.24532419167E+03  0.64178279842E+03  0.91670375121E+03  0.59995698413E+03 0.  0.
        -24    2    4    4    0    0  0.14533944990E+03 -0.23878917145E+03  0.78628515639E+02  0.30112720050E+03  0.79695190015E+02 0.  0.
         24    2    4    4    0    0 -0.23659877992E+03 -0.65350202213E+01  0.56315428279E+03  0.61557655072E+03  0.75960874293E+02 0.  0.
         11    1    5    5    0    0  0.71889290050E+02 -0.13241113821E+03  0.82541697856E+02  0.17179613334E+03  0.00000000000E+00 0. -1.
        -12    1    5    5    0    0  0.73450159849E+02 -0.10637803324E+03 -0.39131822169E+01  0.12933106716E+03  0.00000000000E+00 0.  1.
         15    1    3    3    0    0  0.47681993752E+02  0.15133963962E+03  0.63005091730E+02  0.17073388170E+03  0.17770000000E+01 0. -1.
        -16    1    3    3    0    0  0.43577336267E+02  0.93984552046E+02  0.11971394177E+03  0.15831458591E+03  0.00000000000E+00 0.  1.
          4    1    6    6  502    0 -0.18870324390E+03 -0.97734081067E+01  0.51037873824E+03  0.54423422366E+03  0.00000000000E+00 0. -1.
         -1    1    6    6    0  502 -0.47895536018E+02  0.32383878854E+01  0.52775544549E+02  0.71342327051E+02  0.00000000000E+00 0.  1.
<mgrwt>
<rscale>  0 0.38958992E+03</rscale>
<asrwt>0</asrwt>
<pdfrwt beam="1">  1        1 0.32403877E-01 0.38958992E+03</pdfrwt>
<pdfrwt beam="2">  1       -2 0.15925031E+00 0.38958992E+03</pdfrwt>
<totfact> 0.32427027E+01</totfact>
</mgrwt>
</event>
<event>
12    3  0.1176505E-007  0.1241950E+04  0.7818608E-02  0.9076910E-01
          1   -1    0    0  501    0  0.00000000000E+00  0.00000000000E+00  0.25265196638E+04  0.25265196638E+04  0.00000000000E+00 0. -1.
         -2   -1    0    0    0  501 -0.00000000000E+00 -0.00000000000E+00 -0.64876038899E+03  0.64876038899E+03  0.00000000000E+00 0.  1.
        -24    2    1    2    0    0  0.78556437107E+03  0.89497245966E+03  0.11443115318E+04  0.16534584783E+04  0.79931051694E+02 0.  0.
    5000000    2    1    2    0    0 -0.78556437107E+03 -0.89497245966E+03  0.73344774303E+03  0.15218215745E+04  0.59992351863E+03 0.  0.
        -24    2    4    4    0    0 -0.83567707726E+03 -0.73598430188E+03  0.73226218627E+03  0.13351908489E+04  0.80607837483E+02 0.  0.
         24    2    4    4    0    0  0.50112706187E+02 -0.15898815778E+03  0.11855567626E+01  0.18663072560E+03  0.83911289816E+02 0.  0.
         11    1    5    5    0    0 -0.56145327327E+03 -0.52107955433E+03  0.54060321236E+03  0.93755293889E+03  0.00000000000E+00 0. -1.
        -12    1    5    5    0    0 -0.27422380398E+03 -0.21490474755E+03  0.19165897391E+03  0.39763791000E+03  0.00000000000E+00 0.  1.
         15    1    3    3    0    0  0.45841793154E+03  0.47376723653E+03  0.66509537636E+03  0.93646004279E+03  0.17770000000E+01 0. -1.
        -16    1    3    3    0    0  0.32714643953E+03  0.42120522313E+03  0.47921615542E+03  0.71699843550E+03  0.00000000000E+00 0.  1.
          4    1    6    6  502    0  0.19887159134E+02 -0.56994596572E+01 -0.20223537587E+02  0.28930510043E+02  0.00000000000E+00 0. -1.
         -3    1    6    6    0  502  0.30225547053E+02 -0.15328869812E+03  0.21409094350E+02  0.15770021556E+03  0.00000000000E+00 0.  1.
<mgrwt>
<rscale>  0 0.12419504E+04</rscale>
<asrwt>0</asrwt>
<pdfrwt beam="1">  1        1 0.38869533E+00 0.12419504E+04</pdfrwt>
<pdfrwt beam="2">  1       -2 0.99809292E-01 0.12419504E+04</pdfrwt>
<totfact> 0.92846005E-01</totfact>
</mgrwt>
</event>
<event>
12    3  0.1176505E-007  0.5300203E+03  0.7818608E-02  0.1006227E+00
          1   -1    0    0  501    0  0.00000000000E+00  0.00000000000E+00  0.10756013045E+04  0.10756013045E+04  0.00000000000E+00 0. -1.
         -2   -1    0    0    0  501 -0.00000000000E+00 -0.00000000000E+00 -0.29571260867E+03  0.29571260867E+03  0.00000000000E+00 0.  1.
        -24    2    1    2    0    0 -0.31996736433E+03 -0.18411886949E+03  0.46533110186E+03  0.59976932672E+03  0.83134460838E+02 0.  0.
    5000000    2    1    2    0    0  0.31996736433E+03  0.18411886949E+03  0.31455759395E+03  0.77154458642E+03  0.60004641203E+03 0.  0.
        -24    2    4    4    0    0  0.42536966335E+03  0.29836873112E+03  0.22994413586E+03  0.57345028247E+03  0.77509164819E+02 0.  0.
         24    2    4    4    0    0 -0.10540229903E+03 -0.11424986163E+03  0.84613458092E+02  0.19809430396E+03  0.88990114325E+02 0.  0.
         11    1    5    5    0    0  0.35777066162E+03  0.24342945171E+03  0.22095327665E+03  0.48587868315E+03  0.00000000000E+00 0. -1.
        -12    1    5    5    0    0  0.67599001731E+02  0.54939279414E+02  0.89908592102E+01  0.87571599317E+02  0.00000000000E+00 0.  1.
         15    1    3    3    0    0 -0.23256759300E+03 -0.97295330051E+02  0.27523764597E+03  0.37324654861E+03  0.17770000000E+01 0. -1.
        -16    1    3    3    0    0 -0.87399771327E+02 -0.86823539441E+02  0.19009345589E+03  0.22652277811E+03  0.00000000000E+00 0.  1.
          4    1    6    6  502    0 -0.10028424513E+03 -0.74775135866E+02  0.94858739939E+02  0.15699181924E+03  0.00000000000E+00 0. -1.
         -3    1    6    6    0  502 -0.51180538946E+01 -0.39474725765E+02 -0.10245281847E+02  0.41102484718E+02  0.00000000000E+00 0.  1.
<mgrwt>
<rscale>  0 0.53002028E+03</rscale>
<asrwt>0</asrwt>
<pdfrwt beam="1">  1        1 0.16547712E+00 0.53002028E+03</pdfrwt>
<pdfrwt beam="2">  1       -2 0.45494248E-01 0.53002028E+03</pdfrwt>
<totfact> 0.55562598E+01</totfact>
</mgrwt>
</event>
<event>
12    3  0.1176505E-007  0.6978569E+03  0.7818608E-02  0.9720904E-01
          1   -1    0    0  501    0  0.00000000000E+00  0.00000000000E+00  0.29143102747E+04  0.29143102747E+04  0.00000000000E+00 0. -1.
         -2   -1    0    0    0  501 -0.00000000000E+00 -0.00000000000E+00 -0.18420374066E+03  0.18420374066E+03  0.00000000000E+00 0.  1.
        -24    2    1    2    0    0 -0.51710541256E+03  0.30846421542E+03  0.13043045632E+04  0.14385398098E+04  0.75088021025E+02 0.  0.
    5000000    2    1    2    0    0  0.51710541256E+03 -0.30846421542E+03  0.14258019708E+04  0.16599742056E+04  0.60004576755E+03 0.  0.
        -24    2    4    4    0    0  0.78567685429E+02 -0.33733511282E+03  0.36664264095E+03  0.51063123513E+03  0.79684205450E+02 0.  0.
         24    2    4    4    0    0  0.43853772713E+03  0.28870897395E+02  0.10591593299E+04  0.11493429704E+04  0.77600971151E+02 0.  0.
         13    1    5    5    0    0 -0.39876749114E+01 -0.66024535809E+02  0.37009732823E+02  0.75794862647E+02  0.00000000000E+00 0. -1.
        -14    1    5    5    0    0  0.82555360341E+02 -0.27131057701E+03  0.32963290812E+03  0.43483637248E+03  0.00000000000E+00 0.  1.
         15    1    3    3    0    0 -0.37643214842E+03  0.24538473591E+03  0.10327763866E+04  0.11262970538E+04  0.17770000000E+01 0. -1.
        -16    1    3    3    0    0 -0.14067326414E+03  0.63079479517E+02  0.27152817662E+03  0.31224275601E+03  0.00000000000E+00 0.  1.
          2    1    6    6  502    0  0.28731165242E+03  0.43241379902E+02  0.76410010052E+03  0.81747585051E+03  0.00000000000E+00 0. -1.
         -1    1    6    6    0  502  0.15122607471E+03 -0.14370482507E+02  0.29505922938E+03  0.33186711992E+03  0.00000000000E+00 0.  1.
<mgrwt>
<rscale>  0 0.69785692E+03</rscale>
<asrwt>0</asrwt>
<pdfrwt beam="1">  1        1 0.44835539E+00 0.69785692E+03</pdfrwt>
<pdfrwt beam="2">  1       -2 0.28339039E-01 0.69785692E+03</pdfrwt>
<totfact> 0.73920862E+00</totfact>
</mgrwt>
</event>
<event>
12    3  0.1176505E-007  0.1153067E+04  0.7818608E-02  0.9154959E-01
          1   -1    0    0  501    0  0.00000000000E+00  0.00000000000E+00  0.25861746127E+04  0.25861746127E+04  0.00000000000E+00 0. -1.
         -2   -1    0    0    0  501 -0.00000000000E+00 -0.00000000000E+00 -0.87496322105E+03  0.87496322105E+03  0.00000000000E+00 0.  1.
        -24    2    1    2    0    0  0.97592985902E+03 -0.51253513356E+03  0.18939841090E+04  0.21928741183E+04  0.79935854312E+02 0.  0.
    5000000    2    1    2    0    0 -0.97592985902E+03  0.51253513356E+03 -0.18277271731E+03  0.12682637155E+04  0.59996302627E+03 0.  0.
        -24    2    4    4    0    0 -0.30908289035E+03 -0.64016989720E+02  0.97085486950E+02  0.33988479328E+03  0.80409407739E+02 0.  0.
         24    2    4    4    0    0 -0.66684696867E+03  0.57655212328E+03 -0.27985820426E+03  0.92837892217E+03  0.80433687881E+02 0.  0.
         13    1    5    5    0    0 -0.69187980263E+02 -0.39609663954E+02  0.50268245101E+02  0.94248599762E+02  0.00000000000E+00 0. -1.
        -14    1    5    5    0    0 -0.23989491008E+03 -0.24407325766E+02  0.46817241849E+02  0.24563619352E+03  0.00000000000E+00 0.  1.
         15    1    3    3    0    0  0.45181079293E+03 -0.25879667036E+03  0.96382249613E+03  0.10954750892E+04  0.17770000000E+01 0. -1.
        -16    1    3    3    0    0  0.52411906609E+03 -0.25373846320E+03  0.93016161284E+03  0.10973990291E+04  0.00000000000E+00 0.  1.
          4    1    6    6  502    0 -0.27535964929E+03  0.26191634620E+03 -0.83425654264E+02  0.38907961737E+03  0.00000000000E+00 0. -1.
         -3    1    6    6    0  502 -0.39148731939E+03  0.31463577708E+03 -0.19643255000E+03  0.53929930480E+03  0.00000000000E+00 0.  1.
<mgrwt>
<rscale>  0 0.11530669E+04</rscale>
<asrwt>0</asrwt>
<pdfrwt beam="1">  1        1 0.39787301E+00 0.11530669E+04</pdfrwt>
<pdfrwt beam="2">  1       -2 0.13460973E+00 0.11530669E+04</pdfrwt>
<totfact> 0.40726548E-01</totfact>
</mgrwt>
</event>
<event>
12    3  0.1176505E-007  0.4409189E+03  0.7818608E-02  0.1030465E+00
         -2   -1    0    0    0  501 -0.00000000000E+00  0.00000000000E+00  0.39622296380E+03  0.39622296380E+03  0.00000000000E+00 0.  1.
          1   -1    0    0  501    0  0.00000000000E+00 -0.00000000000E+00 -0.73754749341E+03  0.73754749341E+03  0.00000000000E+00 0. -1.
        -24    2    1    2    0    0  0.22853072832E+03 -0.58680326284E+02  0.17763587205E+03  0.30601836925E+03  0.80144025349E+02 0.  0.
    5000000    2    1    2    0    0 -0.22853072832E+03  0.58680326284E+02 -0.51896040167E+03  0.82775208796E+03  0.60015326887E+03 0.  0.
        -24    2    4    4    0    0  0.21496324199E+02  0.28587629206E+03 -0.24827140439E+03  0.38740592695E+03  0.79103196418E+02 0.  0.
         24    2    4    4    0    0 -0.25002705252E+03 -0.22719596577E+03 -0.27068899728E+03  0.44034616100E+03  0.80626759876E+02 0.  0.
         13    1    5    5    0    0 -0.19419660385E+00  0.24270141118E+03 -0.17333565759E+03  0.29824363010E+03  0.00000000000E+00 0. -1.
        -14    1    5    5    0    0  0.21690520803E+02  0.43174880876E+02 -0.74935746804E+02  0.89162296855E+02  0.00000000000E+00 0.  1.
         15    1    3    3    0    0  0.21720880985E+03 -0.74577618430E+02  0.16425129116E+03  0.28235285127E+03  0.17770000000E+01 0. -1.
        -16    1    3    3    0    0  0.11321918479E+02  0.15897292146E+02  0.13384580892E+02  0.23665517980E+02  0.00000000000E+00 0.  1.
          2    1    6    6  502    0 -0.13968004494E+03 -0.16021877892E+03 -0.12884303119E+03  0.24855803901E+03  0.00000000000E+00 0. -1.
         -1    1    6    6    0  502 -0.11034700758E+03 -0.66977186856E+02 -0.14184596609E+03  0.19178812199E+03  0.00000000000E+00 0.  1.
<mgrwt>
<rscale>  0 0.44091888E+03</rscale>
<asrwt>0</asrwt>
<pdfrwt beam="1">  1        1 0.11346885E+00 0.44091888E+03</pdfrwt>
<pdfrwt beam="2">  1       -2 0.60957379E-01 0.44091888E+03</pdfrwt>
<totfact> 0.57899293E+01</totfact>
</mgrwt>
</event>
<event>
12    3  0.1176505E-007  0.3617775E+03  0.7818608E-02  0.1057882E+00
         -2   -1    0    0    0  501 -0.00000000000E+00  0.00000000000E+00  0.15129058035E+03  0.15129058035E+03  0.00000000000E+00 0.  1.
          1   -1    0    0  501    0  0.00000000000E+00 -0.00000000000E+00 -0.15795567118E+04  0.15795567118E+04  0.00000000000E+00 0. -1.
        -24    2    1    2    0    0  0.13017995951E+03 -0.19373036981E+03 -0.77654790657E+03  0.81471646137E+03  0.79107415426E+02 0.  0.
    5000000    2    1    2    0    0 -0.13017995951E+03  0.19373036981E+03 -0.65171822484E+03  0.91613083075E+03  0.60006730990E+03 0.  0.
        -24    2    4    4    0    0  0.88926462666E+02 -0.71371743435E+02 -0.52164450690E+03  0.53989668068E+03  0.79834783775E+02 0.  0.
         24    2    4    4    0    0 -0.21910642217E+03  0.26510211325E+03 -0.13007371794E+03  0.37623415007E+03  0.79663096207E+02 0.  0.
         11    1    5    5    0    0  0.10178990624E+02 -0.50724159608E+02 -0.28455346105E+03  0.28921829889E+03  0.00000000000E+00 0. -1.
        -12    1    5    5    0    0  0.78747472042E+02 -0.20647583827E+02 -0.23709104585E+03  0.25067838179E+03  0.00000000000E+00 0.  1.
         15    1    3    3    0    0  0.10820297281E+03 -0.91254818529E+02 -0.43562309395E+03  0.45804580878E+03  0.17770000000E+01 0. -1.
        -16    1    3    3    0    0  0.21976986699E+02 -0.10247555128E+03 -0.34092481262E+03  0.35667065258E+03  0.00000000000E+00 0.  1.
          2    1    6    6  502    0 -0.20138028155E+03  0.23959064303E+03 -0.14103631070E+03  0.34329132666E+03  0.00000000000E+00 0. -1.
         -1    1    6    6    0  502 -0.17726140625E+02  0.25511470214E+02  0.10962592768E+02  0.32942823408E+02  0.00000000000E+00 0.  1.
<mgrwt>
<rscale>  0 0.36177750E+03</rscale>
<asrwt>0</asrwt>
<pdfrwt beam="1">  1        1 0.24300874E+00 0.36177750E+03</pdfrwt>
<pdfrwt beam="2">  1       -2 0.23275473E-01 0.36177750E+03</pdfrwt>
<totfact> 0.88895197E+01</totfact>
</mgrwt>
</event>
<event>
12    3  0.1176505E-007  0.5795823E+03  0.7818608E-02  0.9948696E-01
          1   -1    0    0  501    0  0.00000000000E+00  0.00000000000E+00  0.11242153967E+04  0.11242153967E+04  0.00000000000E+00 0. -1.
         -2   -1    0    0    0  501 -0.00000000000E+00 -0.00000000000E+00 -0.35560770749E+03  0.35560770749E+03  0.00000000000E+00 0.  1.
        -24    2    1    2    0    0 -0.20103257156E+03 -0.43188713671E+03  0.41190716424E+03  0.63482087607E+03  0.79933966864E+02 0.  0.
    5000000    2    1    2    0    0  0.20103257156E+03  0.43188713671E+03  0.35670052492E+03  0.84500222807E+03  0.59987741022E+03 0.  0.
        -24    2    4    4    0    0  0.23160339461E+03  0.64954304814E+00  0.32193156048E+03  0.40459022166E+03  0.80079732303E+02 0.  0.
         24    2    4    4    0    0 -0.30570823058E+02  0.43123759366E+03  0.34768964441E+02  0.44041200641E+03  0.76507627708E+02 0.  0.
         11    1    5    5    0    0  0.23504527832E+03  0.71151980531E+01  0.29825457061E+03  0.37980613185E+03  0.00000000000E+00 0. -1.
        -12    1    5    5    0    0 -0.34418837071E+01 -0.64656550050E+01  0.23676989874E+02  0.24784089807E+02  0.00000000000E+00 0.  1.
         15    1    3    3    0    0 -0.36635235970E+02 -0.16517214090E+03  0.13030033164E+03  0.21355399973E+03  0.17770000000E+01 0. -1.
        -16    1    3    3    0    0 -0.16439733558E+03 -0.26671499581E+03  0.28160683260E+03  0.42126687634E+03  0.00000000000E+00 0.  1.
          2    1    6    6  502    0 -0.40498743104E+02  0.33893891392E+03  0.54042091242E+02  0.34560133563E+03  0.00000000000E+00 0. -1.
         -1    1    6    6    0  502  0.99279200455E+01  0.92298679735E+02 -0.19273126802E+02  0.94810670781E+02  0.00000000000E+00 0.  1.
<mgrwt>
<rscale>  0 0.57958225E+03</rscale>
<asrwt>0</asrwt>
<pdfrwt beam="1">  1        1 0.17295621E+00 0.57958225E+03</pdfrwt>
<pdfrwt beam="2">  1       -2 0.54708879E-01 0.57958225E+03</pdfrwt>
<totfact> 0.34981336E+01</totfact>
</mgrwt>
</event>
<event>
12    3  0.1176505E-007  0.1439206E+04  0.7818608E-02  0.8925918E-01
         -2   -1    0    0    0  501 -0.00000000000E+00  0.00000000000E+00  0.13299838525E+04  0.13299838525E+04  0.00000000000E+00 0.  1.
          1   -1    0    0  501    0  0.00000000000E+00 -0.00000000000E+00 -0.15977815496E+04  0.15977815496E+04  0.00000000000E+00 0. -1.
        -24    2    1    2    0    0  0.12043127776E+04 -0.70393014422E+03 -0.11618803382E+03  0.14017325686E+04  0.73943360848E+02 0.  0.
    5000000    2    1    2    0    0 -0.12043127776E+04  0.70393014422E+03 -0.15160966328E+03  0.15260328335E+04  0.59991983189E+03 0.  0.
        -24    2    4    4    0    0 -0.30358341795E+02  0.18290609345E+03 -0.12993595855E+03  0.23909627809E+03  0.76859670413E+02 0.  0.
         24    2    4    4    0    0 -0.11739544358E+04  0.52102405077E+03 -0.21673704736E+02  0.12869365554E+04  0.78108062054E+02 0.  0.
         11    1    5    5    0    0 -0.21021301716E+02  0.87915704246E+01 -0.31460728983E+02  0.38845389746E+02  0.00000000000E+00 0. -1.
        -12    1    5    5    0    0 -0.93370400798E+01  0.17411452302E+03 -0.98475229565E+02  0.20025088834E+03  0.00000000000E+00 0.  1.
         15    1    3    3    0    0  0.99346569611E+03 -0.58631619276E+03 -0.68315206457E+02  0.11555997977E+04  0.17770000000E+01 0. -1.
        -16    1    3    3    0    0  0.21084708146E+03 -0.11761395146E+03 -0.47872827361E+02  0.24613277095E+03  0.00000000000E+00 0.  1.
          4    1    6    6  502    0 -0.81046042596E+03  0.32427872846E+03 -0.31500446433E+02  0.87349589232E+03  0.00000000000E+00 0. -1.
         -3    1    6    6    0  502 -0.36349400981E+03  0.19674532231E+03  0.98267416967E+01  0.41344066306E+03  0.00000000000E+00 0.  1.
<mgrwt>
<rscale>  0 0.14392065E+04</rscale>
<asrwt>0</asrwt>
<pdfrwt beam="1">  1        1 0.24581255E+00 0.14392065E+04</pdfrwt>
<pdfrwt beam="2">  1       -2 0.20461290E+00 0.14392065E+04</pdfrwt>
<totfact> 0.57811695E-01</totfact>
</mgrwt>
</event>
<event>
12    3  0.1176505E-007  0.2386563E+03  0.7818608E-02  0.1120691E+00
          1   -1    0    0  501    0  0.00000000000E+00  0.00000000000E+00  0.54161142806E+03  0.54161142806E+03  0.00000000000E+00 0. -1.
         -2   -1    0    0    0  501 -0.00000000000E+00 -0.00000000000E+00 -0.26186305508E+03  0.26186305508E+03  0.00000000000E+00 0.  1.
        -24    2    1    2    0    0 -0.28447960435E+02  0.63310839020E+02  0.14947742347E+03  0.18547989940E+03  0.85098438072E+02 0.  0.
    5000000    2    1    2    0    0  0.28447960435E+02 -0.63310839020E+02  0.13027094951E+03  0.61799458374E+03  0.60010768738E+03 0.  0.
        -24    2    4    4    0    0 -0.14041558289E+03 -0.11951223165E+03 -0.16809767033E+03  0.26146806882E+03  0.78160186868E+02 0.  0.
         24    2    4    4    0    0  0.16886354332E+03  0.56201392629E+02  0.29836861984E+03  0.35652651492E+03  0.80086389209E+02 0.  0.
         13    1    5    5    0    0 -0.64907220677E+02 -0.61529979132E+02 -0.31201801562E+02  0.94722954181E+02  0.00000000000E+00 0. -1.
        -14    1    5    5    0    0 -0.75508362212E+02 -0.57982252517E+02 -0.13689586877E+03  0.16674511464E+03  0.00000000000E+00 0.  1.
         15    1    3    3    0    0 -0.56346324387E+02  0.31816391543E+02  0.11083097752E+03  0.12835051363E+03  0.17770000000E+01 0. -1.
        -16    1    3    3    0    0  0.27898363952E+02  0.31494447478E+02  0.38646445951E+02  0.57129385764E+02  0.00000000000E+00 0.  1.
          4    1    6    6  502    0  0.20442491617E+02 -0.10689882987E+02  0.85403217628E+02  0.88463996309E+02  0.00000000000E+00 0. -1.
         -3    1    6    6    0  502  0.14842105171E+03  0.66891275616E+02  0.21296540221E+03  0.26806251861E+03  0.00000000000E+00 0.  1.
<mgrwt>
<rscale>  0 0.23865626E+03</rscale>
<asrwt>0</asrwt>
<pdfrwt beam="1">  1        1 0.83324835E-01 0.23865626E+03</pdfrwt>
<pdfrwt beam="2">  1       -2 0.40286624E-01 0.23865626E+03</pdfrwt>
<totfact> 0.21180400E+02</totfact>
</mgrwt>
</event>
<event>
12    3  0.1512318E-007  0.1091242E+04  0.7818608E-02  0.9213770E-01
         -2   -1    0    0    0  501 -0.00000000000E+00  0.00000000000E+00  0.38148717370E+03  0.38148717370E+03  0.00000000000E+00 0.  1.
          1   -1    0    0  501    0  0.00000000000E+00 -0.00000000000E+00 -0.32241245364E+04  0.32241245364E+04  0.00000000000E+00 0. -1.
        -24    2    1    2    0    0 -0.22809542810E+03 -0.99528581363E+03 -0.11524854634E+04  0.15418097161E+04  0.79580665055E+02 0.  0.
    5000000    2    1    2    0    0  0.22809542810E+03  0.99528581363E+03 -0.16901518993E+04  0.20638019940E+04  0.60003654265E+03 0.  0.
        -24    2    4    4    0    0  0.40359601279E+03  0.58910039282E+03 -0.11983726747E+04  0.13974021377E+04  0.81894155200E+02 0.  0.
         24    2    4    4    0    0 -0.17550058469E+03  0.40618542081E+03 -0.49177922469E+03  0.66639985634E+03  0.80342463186E+02 0.  0.
         13    1    5    5    0    0  0.18495737571E+03  0.29495179971E+03 -0.50927274839E+03  0.61689912241E+03  0.00000000000E+00 0. -1.
        -14    1    5    5    0    0  0.21863863709E+03  0.29414859311E+03 -0.68909992626E+03  0.78050301526E+03  0.00000000000E+00 0.  1.
         15    1    3    3    0    0 -0.12409459161E+03 -0.50429125143E+03 -0.52749106171E+03  0.74024260337E+03  0.17770000000E+01 0. -1.
        -16    1    3    3    0    0 -0.10400083649E+03 -0.49099456220E+03 -0.62499440165E+03  0.80156711272E+03  0.00000000000E+00 0.  1.
          2    1    6    6  502    0 -0.79105036965E+02  0.25776169938E+03 -0.25793669205E+03  0.37313541462E+03  0.00000000000E+00 0. -1.
         -1    1    6    6    0  502 -0.96395547729E+02  0.14842372142E+03 -0.23384253264E+03  0.29326444172E+03  0.00000000000E+00 0.  1.
<mgrwt>
<rscale>  0 0.10912423E+04</rscale>
<asrwt>0</asrwt>
<pdfrwt beam="1">  1        1 0.49601915E+00 0.10912423E+04</pdfrwt>
<pdfrwt beam="2">  1       -2 0.58690335E-01 0.10912423E+04</pdfrwt>
<totfact> 0.98739213E-01</totfact>
</mgrwt>
</event>
<event>
12    3  0.1176505E-007  0.1553906E+04  0.7818608E-02  0.8849377E-01
          1   -1    0    0  501    0  0.00000000000E+00  0.00000000000E+00  0.16661423201E+04  0.16661423201E+04  0.00000000000E+00 0. -1.
         -2   -1    0    0    0  501 -0.00000000000E+00 -0.00000000000E+00 -0.22929835338E+04  0.22929835338E+04  0.00000000000E+00 0.  1.
        -24    2    1    2    0    0  0.54551998217E+03 -0.14209464962E+04 -0.14708888373E+04  0.21181714815E+04  0.80345861249E+02 0.  0.
    5000000    2    1    2    0    0 -0.54551998217E+03  0.14209464962E+04  0.84404762349E+03  0.18409543724E+04  0.60001301214E+03 0.  0.
        -24    2    4    4    0    0 -0.37945184990E+03  0.13506292390E+04  0.60181492622E+03  0.15286326532E+04  0.79709066404E+02 0.  0.
         24    2    4    4    0    0 -0.16606813228E+03  0.70317257125E+02  0.24223269727E+03  0.31232171923E+03  0.79655730928E+02 0.  0.
         11    1    5    5    0    0 -0.34347994887E+03  0.11126025355E+04  0.50289822549E+03  0.12683727774E+04  0.00000000000E+00 0. -1.
        -12    1    5    5    0    0 -0.35971901025E+02  0.23802670356E+03  0.98916700732E+02  0.26025987580E+03  0.00000000000E+00 0.  1.
         15    1    3    3    0    0  0.13588764400E+03 -0.32274268017E+03 -0.29502617813E+03  0.45789943537E+03  0.17770000000E+01 0. -1.
        -16    1    3    3    0    0  0.40963233817E+03 -0.10982038160E+04 -0.11758626591E+04  0.16602720461E+04  0.00000000000E+00 0.  1.
          2    1    6    6  502    0 -0.13273686611E+03  0.57460385085E+02  0.12977278827E+03  0.19432382266E+03  0.00000000000E+00 0. -1.
         -1    1    6    6    0  502 -0.33331266170E+02  0.12856872040E+02  0.11245990900E+03  0.11799789657E+03  0.00000000000E+00 0.  1.
<mgrwt>
<rscale>  0 0.15539056E+04</rscale>
<asrwt>0</asrwt>
<pdfrwt beam="1">  1        1 0.25632959E+00 0.15539056E+04</pdfrwt>
<pdfrwt beam="2">  1       -2 0.35276670E+00 0.15539056E+04</pdfrwt>
<totfact> 0.61703365E-02</totfact>
</mgrwt>
</event>
<event>
12    3  0.1176505E-007  0.4777916E+03  0.7818608E-02  0.1019744E+00
          1   -1    0    0  501    0  0.00000000000E+00  0.00000000000E+00  0.10306273286E+04  0.10306273286E+04  0.00000000000E+00 0. -1.
         -2   -1    0    0    0  501 -0.00000000000E+00 -0.00000000000E+00 -0.66238269421E+03  0.66238269421E+03  0.00000000000E+00 0.  1.
        -24    2    1    2    0    0  0.72653727845E+02  0.39741186471E+03  0.76477060032E+03  0.86807788287E+03  0.73962052704E+02 0.  0.
    5000000    2    1    2    0    0 -0.72653727845E+02 -0.39741186471E+03 -0.39652596594E+03  0.82493213991E+03  0.60005453036E+03 0.  0.
        -24    2    4    4    0    0  0.96307640492E+02  0.12630034987E+02 -0.34989823231E+03  0.37192136592E+03  0.80386877352E+02 0.  0.
         24    2    4    4    0    0 -0.16896136834E+03 -0.41004189970E+03 -0.46627733629E+02  0.45301077399E+03  0.79764104149E+02 0.  0.
         11    1    5    5    0    0  0.21889703954E+02 -0.15736562894E+02 -0.22924524411E+02  0.35388308385E+02  0.00000000000E+00 0. -1.
        -12    1    5    5    0    0  0.74417936538E+02  0.28366597881E+02 -0.32697370790E+03  0.33653305754E+03  0.00000000000E+00 0.  1.
         15    1    3    3    0    0  0.24558121094E+02  0.12428850480E+03  0.17188520444E+03  0.21353785372E+03  0.17770000000E+01 0. -1.
        -16    1    3    3    0    0  0.48095606751E+02  0.27312335991E+03  0.59288539588E+03  0.65454002915E+03  0.00000000000E+00 0.  1.
          2    1    6    6  502    0 -0.25702049508E+02 -0.10263084725E+03  0.19200357222E+02  0.10752832126E+03  0.00000000000E+00 0. -1.
         -1    1    6    6    0  502 -0.14325931883E+03 -0.30741105245E+03 -0.65828090851E+02  0.34548245273E+03  0.00000000000E+00 0.  1.
<mgrwt>
<rscale>  0 0.47779158E+03</rscale>
<asrwt>0</asrwt>
<pdfrwt beam="1">  1        1 0.15855805E+00 0.47779158E+03</pdfrwt>
<pdfrwt beam="2">  1       -2 0.10190503E+00 0.47779158E+03</pdfrwt>
<totfact> 0.10582211E+01</totfact>
</mgrwt>
</event>
<event>
12    3  0.1176505E-007  0.6102466E+03  0.7818608E-02  0.9884373E-01
          1   -1    0    0  501    0  0.00000000000E+00  0.00000000000E+00  0.97002137101E+03  0.97002137101E+03  0.00000000000E+00 0. -1.
         -2   -1    0    0    0  501 -0.00000000000E+00 -0.00000000000E+00 -0.47603573541E+03  0.47603573541E+03  0.00000000000E+00 0.  1.
        -24    2    1    2    0    0  0.42498199881E+03 -0.28176692009E+03  0.39913449317E+03  0.65297733460E+03  0.84075913858E+02 0.  0.
    5000000    2    1    2    0    0 -0.42498199881E+03  0.28176692009E+03  0.94851142426E+02  0.79307977182E+03  0.59998040691E+03 0.  0.
        -24    2    4    4    0    0 -0.17967493825E+03  0.38863568025E+03 -0.10631239417E+03  0.44861001880E+03  0.81411598791E+02 0.  0.
         24    2    4    4    0    0 -0.24530706056E+03 -0.10686876016E+03  0.20116353660E+03  0.34446975302E+03  0.81216725068E+02 0.  0.
         13    1    5    5    0    0 -0.13786085172E+02  0.84863747360E+02 -0.45221434745E+02  0.97143656101E+02  0.00000000000E+00 0. -1.
        -14    1    5    5    0    0 -0.16588885308E+03  0.30377193289E+03 -0.61090959426E+02  0.35146636270E+03  0.00000000000E+00 0.  1.
         15    1    3    3    0    0  0.17920562695E+03 -0.95151880202E+02  0.11358037075E+03  0.23253428862E+03  0.17770000000E+01 0. -1.
        -16    1    3    3    0    0  0.24577637186E+03 -0.18661503988E+03  0.28555412243E+03  0.42044304597E+03  0.00000000000E+00 0.  1.
          4    1    6    6  502    0 -0.70279058336E+02  0.28250583808E+01  0.73036893257E+02  0.10139780457E+03  0.00000000000E+00 0. -1.
         -3    1    6    6    0  502 -0.17502800222E+03 -0.10969381854E+03  0.12812664334E+03  0.24307194844E+03  0.00000000000E+00 0.  1.
<mgrwt>
<rscale>  0 0.61024659E+03</rscale>
<asrwt>0</asrwt>
<pdfrwt beam="1">  1        1 0.14923406E+00 0.61024659E+03</pdfrwt>
<pdfrwt beam="2">  1       -2 0.73236267E-01 0.61024659E+03</pdfrwt>
<totfact> 0.24490309E+01</totfact>
</mgrwt>
</event>
<event>
12    3  0.1176505E-007  0.5451675E+03  0.7818608E-02  0.1002619E+00
         -2   -1    0    0    0  501 -0.00000000000E+00  0.00000000000E+00  0.55259806945E+03  0.55259806945E+03  0.00000000000E+00 0.  1.
          1   -1    0    0  501    0  0.00000000000E+00 -0.00000000000E+00 -0.84412860967E+03  0.84412860967E+03  0.00000000000E+00 0. -1.
        -24    2    1    2    0    0 -0.43365348686E+03 -0.18887942469E+03 -0.40154680349E+03  0.62475712225E+03  0.73149454386E+02 0.  0.
    5000000    2    1    2    0    0  0.43365348686E+03  0.18887942469E+03  0.11001626326E+03  0.77196955686E+03  0.60008552291E+03 0.  0.
        -24    2    4    4    0    0 -0.45934025900E+02 -0.50646246029E+01  0.21846964011E+03  0.23729226585E+03  0.80268615430E+02 0.  0.
         24    2    4    4    0    0  0.47958751276E+03  0.19394404930E+03 -0.10845337685E+03  0.53467729101E+03  0.80617578260E+02 0.  0.
         13    1    5    5    0    0 -0.21308581476E+02 -0.40464370672E+02  0.78710799467E+02  0.91031922374E+02  0.00000000000E+00 0. -1.
        -14    1    5    5    0    0 -0.24625444424E+02  0.35399746069E+02  0.13975884065E+03  0.14626034347E+03  0.00000000000E+00 0.  1.
         15    1    3    3    0    0 -0.13916557921E+03 -0.24937389199E+02 -0.12666214361E+03  0.18982989272E+03  0.17770000000E+01 0. -1.
        -16    1    3    3    0    0 -0.29448790765E+03 -0.16394203549E+03 -0.27488465988E+03  0.43492722953E+03  0.00000000000E+00 0.  1.
          4    1    6    6  502    0  0.20694611836E+03  0.42865230031E+02 -0.32133175916E+02  0.21376778252E+03  0.00000000000E+00 0. -1.
         -3    1    6    6    0  502  0.27264139440E+03  0.15107881926E+03 -0.76320200932E+02  0.32090950849E+03  0.00000000000E+00 0.  1.
<mgrwt>
<rscale>  0 0.54516752E+03</rscale>
<asrwt>0</asrwt>
<pdfrwt beam="1">  1        1 0.12986594E+00 0.54516752E+03</pdfrwt>
<pdfrwt beam="2">  1       -2 0.85015088E-01 0.54516752E+03</pdfrwt>
<totfact> 0.22357312E+01</totfact>
</mgrwt>
</event>
<event>
12    3  0.1176505E-007  0.1493785E+04  0.7818608E-02  0.8888596E-01
          1   -1    0    0  501    0  0.00000000000E+00  0.00000000000E+00  0.22022520802E+04  0.22022520802E+04  0.00000000000E+00 0. -1.
         -2   -1    0    0    0  501 -0.00000000000E+00 -0.00000000000E+00 -0.10860818503E+04  0.10860818503E+04  0.00000000000E+00 0.  1.
        -24    2    1    2    0    0  0.58356564909E+03 -0.13639309370E+04  0.64895847301E+03  0.16212353644E+04  0.80003370732E+02 0.  0.
    5000000    2    1    2    0    0 -0.58356564909E+03  0.13639309370E+04  0.46721175688E+03  0.16670985662E+04  0.60006194347E+03 0.  0.
        -24    2    4    4    0    0 -0.15020616630E+03  0.63158754295E+03  0.48131008220E+03  0.81231626362E+03  0.82058516376E+02 0.  0.
         24    2    4    4    0    0 -0.43335948279E+03  0.73234339403E+03 -0.14098325316E+02  0.85478230258E+03  0.79540768926E+02 0.  0.
         11    1    5    5    0    0 -0.38845334757E+02  0.25162944117E+03  0.14620828966E+03  0.29360381411E+03  0.00000000000E+00 0. -1.
        -12    1    5    5    0    0 -0.11136083154E+03  0.37995810178E+03  0.33510179254E+03  0.51871244951E+03  0.00000000000E+00 0.  1.
         15    1    3    3    0    0  0.49627399295E+03 -0.10838228546E+04  0.53250678339E+03  0.13055751562E+04  0.17770000000E+01 0. -1.
        -16    1    3    3    0    0  0.87291656145E+02 -0.28010808234E+03  0.11645168962E+03  0.31566020820E+03  0.00000000000E+00 0.  1.
          2    1    6    6  502    0 -0.20630070584E+03  0.38067105162E+03  0.29100762897E+02  0.43395539537E+03  0.00000000000E+00 0. -1.
         -1    1    6    6    0  502 -0.22705877695E+03  0.35167234241E+03 -0.43199088213E+02  0.42082690721E+03  0.00000000000E+00 0.  1.
<mgrwt>
<rscale>  0 0.14937849E+04</rscale>
<asrwt>0</asrwt>
<pdfrwt beam="1">  1        1 0.33880801E+00 0.14937849E+04</pdfrwt>
<pdfrwt beam="2">  1       -2 0.16708952E+00 0.14937849E+04</pdfrwt>
<totfact> 0.40235601E-01</totfact>
</mgrwt>
</event>
<event>
12    3  0.1176505E-007  0.6275687E+03  0.7818608E-02  0.9849805E-01
         -2   -1    0    0    0  501 -0.00000000000E+00  0.00000000000E+00  0.28470358886E+04  0.28470358886E+04  0.00000000000E+00 0.  1.
          1   -1    0    0  501    0  0.00000000000E+00 -0.00000000000E+00 -0.14868872332E+03  0.14868872332E+03  0.00000000000E+00 0. -1.
        -24    2    1    2    0    0  0.39946174280E+03  0.29004271505E+03  0.13469216884E+04  0.14367424039E+04  0.79600502952E+02 0.  0.
    5000000    2    1    2    0    0 -0.39946174280E+03 -0.29004271505E+03  0.13514254769E+04  0.15589822080E+04  0.60031678698E+03 0.  0.
        -24    2    4    4    0    0  0.98145255953E+02 -0.23009875760E+03  0.36384949890E+03  0.44867086534E+03  0.79631388537E+02 0.  0.
         24    2    4    4    0    0 -0.49760699876E+03 -0.59943957455E+02  0.98757597801E+03  0.11103113427E+04  0.79239901993E+02 0.  0.
         11    1    5    5    0    0 -0.66417838300E+01  0.23276677880E-01  0.14845824913E+01  0.68057196109E+01  0.00000000000E+00 0. -1.
        -12    1    5    5    0    0  0.10478703978E+03 -0.23012203428E+03  0.36236491641E+03  0.44186514573E+03  0.00000000000E+00 0.  1.
         15    1    3    3    0    0  0.99589056862E+02  0.69639874735E+02  0.24153203660E+03  0.27038597381E+03  0.17770000000E+01 0. -1.
        -16    1    3    3    0    0  0.29987268594E+03  0.22040284032E+03  0.11053896518E+04  0.11663564301E+04  0.00000000000E+00 0.  1.
          4    1    6    6  502    0 -0.10454723946E+03 -0.23846532840E+02  0.14998646614E+03  0.18437657777E+03  0.00000000000E+00 0. -1.
         -3    1    6    6    0  502 -0.39305975930E+03 -0.36097424615E+02  0.83758951187E+03  0.92593476489E+03  0.00000000000E+00 0.  1.
<mgrwt>
<rscale>  0 0.62756866E+03</rscale>
<asrwt>0</asrwt>
<pdfrwt beam="1">  1        1 0.22875190E-01 0.62756866E+03</pdfrwt>
<pdfrwt beam="2">  1       -2 0.43800548E+00 0.62756866E+03</pdfrwt>
<totfact> 0.86958078E-01</totfact>
</mgrwt>
</event>
<event>
12    3  0.1176505E-007  0.7498731E+03  0.7818608E-02  0.9635549E-01
         -2   -1    0    0    0  501 -0.00000000000E+00  0.00000000000E+00  0.42617079127E+03  0.42617079127E+03  0.00000000000E+00 0.  1.
          1   -1    0    0  501    0  0.00000000000E+00 -0.00000000000E+00 -0.22710115232E+04  0.22710115232E+04  0.00000000000E+00 0. -1.
        -24    2    1    2    0    0  0.51983341726E+03 -0.51804148461E+03 -0.15294447925E+04  0.16982986542E+04  0.80144769498E+02 0.  0.
    5000000    2    1    2    0    0 -0.51983341726E+03  0.51804148461E+03 -0.31539593952E+03  0.99888366036E+03  0.59975012029E+03 0.  0.
        -24    2    4    4    0    0 -0.21778033816E+03  0.10113595703E+03 -0.39774937244E+03  0.47153087007E+03  0.80498699714E+02 0.  0.
         24    2    4    4    0    0 -0.30205307909E+03  0.41690552758E+03  0.82353432918E+02  0.52735279029E+03  0.79199722199E+02 0.  0.
         13    1    5    5    0    0 -0.94992858373E+02  0.30825923908E+02 -0.97301203323E+02  0.13943243846E+03  0.00000000000E+00 0. -1.
        -14    1    5    5    0    0 -0.12278747979E+03  0.70310033125E+02 -0.30044816912E+03  0.33209843161E+03  0.00000000000E+00 0.  1.
         15    1    3    3    0    0  0.47104607944E+03 -0.49724066745E+03 -0.14069117397E+04  0.15647800137E+04  0.17770000000E+01 0. -1.
        -16    1    3    3    0    0  0.48787337819E+02 -0.20800817162E+02 -0.12253305275E+03  0.13351864043E+03  0.00000000000E+00 0.  1.
          2    1    6    6  502    0 -0.25094949684E+03  0.28942254659E+03  0.50705369024E+02  0.38640923241E+03  0.00000000000E+00 0. -1.
         -1    1    6    6    0  502 -0.51103582251E+02  0.12748298099E+03  0.31648063894E+02  0.14094355788E+03  0.00000000000E+00 0.  1.
<mgrwt>
<rscale>  0 0.74987309E+03</rscale>
<asrwt>0</asrwt>
<pdfrwt beam="1">  1        1 0.34938639E+00 0.74987309E+03</pdfrwt>
<pdfrwt beam="2">  1       -2 0.65564737E-01 0.74987309E+03</pdfrwt>
<totfact> 0.38489552E+00</totfact>
</mgrwt>
</event>
<event>
12    3  0.1176505E-007  0.4988952E+03  0.7818608E-02  0.1014068E+00
         -2   -1    0    0    0  501 -0.00000000000E+00  0.00000000000E+00  0.13532217642E+03  0.13532217642E+03  0.00000000000E+00 0.  1.
          1   -1    0    0  501    0  0.00000000000E+00 -0.00000000000E+00 -0.25780439687E+04  0.25780439687E+04  0.00000000000E+00 0. -1.
        -24    2    1    2    0    0 -0.28583955800E+03 -0.15860193439E+03 -0.15664983926E+04  0.16021042061E+04  0.77212994631E+02 0.  0.
    5000000    2    1    2    0    0  0.28583955800E+03  0.15860193439E+03 -0.87622339964E+03  0.11112619390E+04  0.60023064277E+03 0.  0.
        -24    2    4    4    0    0  0.34455330299E+03 -0.11861730975E+03 -0.59513968204E+03  0.70412239912E+03  0.93861957321E+02 0.  0.
         24    2    4    4    0    0 -0.58713744987E+02  0.27721924413E+03 -0.28108371760E+03  0.40713953990E+03  0.80353814351E+02 0.  0.
         13    1    5    5    0    0  0.78846597470E+02 -0.55980244414E+02 -0.21863105818E+03  0.23906089872E+03  0.00000000000E+00 0. -1.
        -14    1    5    5    0    0  0.26570670552E+03 -0.62637065334E+02 -0.37650862386E+03  0.46506150040E+03  0.00000000000E+00 0.  1.
         15    1    3    3    0    0 -0.59616749038E+02 -0.66564521704E+02 -0.34187308365E+03  0.35336292302E+03  0.17770000000E+01 0. -1.
        -16    1    3    3    0    0 -0.22622280896E+03 -0.92037412683E+02 -0.12246253090E+04  0.12487412831E+04  0.00000000000E+00 0.  1.
          4    1    6    6  502    0 -0.84470328891E+01  0.21193426488E+03 -0.20558644243E+03  0.29538664544E+03  0.00000000000E+00 0. -1.
         -3    1    6    6    0  502 -0.50266712098E+02  0.65284979255E+02 -0.75497275175E+02  0.11175289446E+03  0.00000000000E+00 0.  1.
<mgrwt>
<rscale>  0 0.49889524E+03</rscale>
<asrwt>0</asrwt>
<pdfrwt beam="1">  1        1 0.39662212E+00 0.49889524E+03</pdfrwt>
<pdfrwt beam="2">  1       -2 0.20818798E-01 0.49889524E+03</pdfrwt>
<totfact> 0.22852295E+01</totfact>
</mgrwt>
</event>
<event>
12    3  0.1176505E-007  0.1352076E+04  0.7818608E-02  0.8989258E-01
          1   -1    0    0  501    0  0.00000000000E+00  0.00000000000E+00  0.11005120246E+04  0.11005120246E+04  0.00000000000E+00 0. -1.
         -2   -1    0    0    0  501 -0.00000000000E+00 -0.00000000000E+00 -0.23488893721E+04  0.23488893721E+04  0.00000000000E+00 0.  1.
        -24    2    1    2    0    0 -0.12071685762E+04  0.50966720662E+03  0.28694306889E+03  0.13436460464E+04  0.77664280193E+02 0.  0.
    5000000    2    1    2    0    0  0.12071685762E+04 -0.50966720662E+03 -0.15353204164E+04  0.21057553503E+04  0.59998348415E+03 0.  0.
        -24    2    4    4    0    0  0.46456957527E+03 -0.44174021555E+03 -0.97707916050E+03  0.11713678755E+04  0.80372293472E+02 0.  0.
         24    2    4    4    0    0  0.74259900095E+03 -0.67926991063E+02 -0.55824125589E+03  0.93438747476E+03  0.73343717458E+02 0.  0.
         11    1    5    5    0    0  0.11097331398E+03 -0.61804995228E+02 -0.18716135556E+03  0.22619528480E+03  0.00000000000E+00 0. -1.
        -12    1    5    5    0    0  0.35359626129E+03 -0.37993522033E+03 -0.78991780494E+03  0.94517259069E+03  0.00000000000E+00 0.  1.
         15    1    3    3    0    0 -0.22327887798E+03  0.64107059003E+02  0.61183772994E+02  0.24022860815E+03  0.17770000000E+01 0. -1.
        -16    1    3    3    0    0 -0.98388969824E+03  0.44556014761E+03  0.22575929589E+03  0.11034174383E+04  0.00000000000E+00 0.  1.
          2    1    6    6  502    0  0.73312111576E+03 -0.66331641455E+02 -0.55961143091E+03  0.92467908522E+03  0.00000000000E+00 0. -1.
         -1    1    6    6    0  502  0.94778851842E+01 -0.15953496087E+01  0.13701750192E+01  0.97083895432E+01  0.00000000000E+00 0.  1.
<mgrwt>
<rscale>  0 0.13520758E+04</rscale>
<asrwt>0</asrwt>
<pdfrwt beam="1">  1        1 0.16930954E+00 0.13520758E+04</pdfrwt>
<pdfrwt beam="2">  1       -2 0.36136760E+00 0.13520758E+04</pdfrwt>
<totfact> 0.14139909E-01</totfact>
</mgrwt>
</event>
<event>
12    3  0.1176505E-007  0.1172837E+04  0.7818608E-02  0.9136970E-01
          1   -1    0    0  501    0  0.00000000000E+00  0.00000000000E+00  0.26536689481E+04  0.26536689481E+04  0.00000000000E+00 0. -1.
         -2   -1    0    0    0  501 -0.00000000000E+00 -0.00000000000E+00 -0.61166798364E+03  0.61166798364E+03  0.00000000000E+00 0.  1.
        -24    2    1    2    0    0  0.93813466023E+03 -0.66785907482E+03  0.52394735189E+03  0.12676847753E+04  0.79821535205E+02 0.  0.
    5000000    2    1    2    0    0 -0.93813466023E+03  0.66785907482E+03  0.15180536126E+04  0.19976521564E+04  0.59999581905E+03 0.  0.
        -24    2    4    4    0    0 -0.11906729652E+03  0.21837178968E+03  0.66265094773E+02  0.26931194812E+03  0.79212391629E+02 0.  0.
         24    2    4    4    0    0 -0.81906736370E+03  0.44948728514E+03  0.14517885178E+04  0.17283402083E+04  0.80992650433E+02 0.  0.
         13    1    5    5    0    0 -0.13681383701E+02  0.87066243229E+02 -0.64552503114E+00  0.88136982434E+02  0.00000000000E+00 0. -1.
        -14    1    5    5    0    0 -0.10538591282E+03  0.13130554645E+03  0.66910619804E+02  0.18117496569E+03  0.00000000000E+00 0.  1.
         15    1    3    3    0    0  0.14592622670E+03 -0.70128227960E+02  0.70930136914E+02  0.17676728783E+03  0.17770000000E+01 0. -1.
        -16    1    3    3    0    0  0.79220843353E+03 -0.59773084686E+03  0.45301721498E+03  0.10909174875E+04  0.00000000000E+00 0.  1.
          4    1    6    6  502    0 -0.32272931703E+03  0.19512851958E+03  0.65375199696E+03  0.75473241931E+03  0.00000000000E+00 0. -1.
         -3    1    6    6    0  502 -0.49633804667E+03  0.25435876556E+03  0.79803652083E+03  0.97360778899E+03  0.00000000000E+00 0.  1.
<mgrwt>
<rscale>  0 0.11728372E+04</rscale>
<asrwt>0</asrwt>
<pdfrwt beam="1">  1        1 0.40825676E+00 0.11728372E+04</pdfrwt>
<pdfrwt beam="2">  1       -2 0.94102768E-01 0.11728372E+04</pdfrwt>
<totfact> 0.87819560E-01</totfact>
</mgrwt>
</event>
<event>
12    3  0.1176505E-007  0.3206972E+03  0.7818608E-02  0.1075329E+00
         -2   -1    0    0    0  501 -0.00000000000E+00  0.00000000000E+00  0.20000925533E+03  0.20000925533E+03  0.00000000000E+00 0.  1.
          1   -1    0    0  501    0  0.00000000000E+00 -0.00000000000E+00 -0.14128169631E+04  0.14128169631E+04  0.00000000000E+00 0. -1.
        -24    2    1    2    0    0  0.12784078014E+03  0.25642120847E+03 -0.96125046561E+02  0.31314324440E+03  0.81997351873E+02 0.  0.
    5000000    2    1    2    0    0 -0.12784078014E+03 -0.25642120847E+03 -0.11166826612E+04  0.12996829740E+04  0.60008379909E+03 0.  0.
        -24    2    4    4    0    0 -0.11785715908E+03 -0.28267879302E+03 -0.11600609551E+04  0.12020977018E+04  0.74161007809E+02 0.  0.
         24    2    4    4    0    0 -0.99836210533E+01  0.26257584546E+02  0.43378293944E+02  0.97585272218E+02  0.82777264589E+02 0.  0.
         13    1    5    5    0    0  0.91039720374E+01 -0.75875057769E+01 -0.54479738516E+02  0.55753873942E+02  0.00000000000E+00 0. -1.
        -14    1    5    5    0    0 -0.12696113112E+03 -0.27509128724E+03 -0.11055812166E+04  0.11463438278E+04  0.00000000000E+00 0.  1.
         15    1    3    3    0    0  0.32829264960E+02  0.92030399776E+02 -0.72761070441E+02  0.12183877142E+03  0.17770000000E+01 0. -1.
        -16    1    3    3    0    0  0.95011515178E+02  0.16439080869E+03 -0.23363976121E+02  0.19130447297E+03  0.00000000000E+00 0.  1.
          2    1    6    6  502    0  0.84468581575E+01  0.15434920466E+02 -0.22364070509E+02  0.28455892751E+02  0.00000000000E+00 0. -1.
         -1    1    6    6    0  502 -0.18430479211E+02  0.10822664079E+02  0.65742364453E+02  0.69129379467E+02  0.00000000000E+00 0.  1.
<mgrwt>
<rscale>  0 0.32069722E+03</rscale>
<asrwt>0</asrwt>
<pdfrwt beam="1">  1        1 0.21735646E+00 0.32069722E+03</pdfrwt>
<pdfrwt beam="2">  1       -2 0.30770654E-01 0.32069722E+03</pdfrwt>
<totfact> 0.70165518E+01</totfact>
</mgrwt>
</event>
<event>
12    3  0.1176505E-007  0.1520346E+04  0.7818608E-02  0.8871035E-01
         -2   -1    0    0    0  501 -0.00000000000E+00  0.00000000000E+00  0.12967734892E+04  0.12967734892E+04  0.00000000000E+00 0.  1.
          1   -1    0    0  501    0  0.00000000000E+00 -0.00000000000E+00 -0.18121056328E+04  0.18121056328E+04  0.00000000000E+00 0. -1.
        -24    2    1    2    0    0 -0.15903035606E+03 -0.14574789833E+04 -0.10286546755E+03  0.14718936503E+04  0.79711807731E+02 0.  0.
    5000000    2    1    2    0    0  0.15903035606E+03  0.14574789833E+04 -0.41246667610E+03  0.16369854717E+04  0.60004752710E+03 0.  0.
        -24    2    4    4    0    0  0.36566178817E+03  0.11010160710E+04 -0.33972574362E+03  0.12114671661E+04  0.79335879613E+02 0.  0.
         24    2    4    4    0    0 -0.20663143211E+03  0.35646291233E+03 -0.72740932482E+02  0.42551830561E+03  0.77538561669E+02 0.  0.
         11    1    5    5    0    0  0.35453435579E+03  0.10047968561E+04 -0.32100375458E+03  0.11128138846E+04  0.00000000000E+00 0. -1.
        -12    1    5    5    0    0  0.11127432376E+02  0.96219214932E+02 -0.18721989040E+02  0.98653281481E+02  0.00000000000E+00 0.  1.
         15    1    3    3    0    0 -0.14954521843E+03 -0.13089695587E+04 -0.11554410289E+03  0.13225425042E+04  0.17770000000E+01 0. -1.
        -16    1    3    3    0    0 -0.94851376261E+01 -0.14850942460E+03  0.12678635342E+02  0.14935114605E+03  0.00000000000E+00 0.  1.
          2    1    6    6  502    0 -0.65911533766E+02  0.11447437754E+03 -0.60585830645E+02  0.14532500223E+03  0.00000000000E+00 0. -1.
         -3    1    6    6    0  502 -0.14071989835E+03  0.24198853479E+03 -0.12155101836E+02  0.28019330339E+03  0.00000000000E+00 0.  1.
<mgrwt>
<rscale>  0 0.15203455E+04</rscale>
<asrwt>0</asrwt>
<pdfrwt beam="1">  1        1 0.27878548E+00 0.15203455E+04</pdfrwt>
<pdfrwt beam="2">  1       -2 0.19950361E+00 0.15203455E+04</pdfrwt>
<totfact> 0.44178284E-01</totfact>
</mgrwt>
</event>
<event>
12    3  0.1176505E-007  0.3572917E+03  0.7818608E-02  0.1059661E+00
          1   -1    0    0  501    0  0.00000000000E+00  0.00000000000E+00  0.36447189019E+03  0.36447189019E+03  0.00000000000E+00 0. -1.
         -2   -1    0    0    0  501 -0.00000000000E+00 -0.00000000000E+00 -0.13384022946E+04  0.13384022946E+04  0.00000000000E+00 0.  1.
        -24    2    1    2    0    0  0.16968013641E+02 -0.96489454314E+02  0.28097009616E+03  0.30844422650E+03  0.81212792399E+02 0.  0.
    5000000    2    1    2    0    0 -0.16968013641E+02  0.96489454314E+02 -0.12549005005E+04  0.13944299582E+04  0.60005125942E+03 0.  0.
        -24    2    4    4    0    0  0.25825235471E+03  0.15199475470E+03 -0.54600876632E+03  0.62786609634E+03  0.79332073380E+02 0.  0.
         24    2    4    4    0    0 -0.27522036835E+03 -0.55505300387E+02 -0.70889173421E+03  0.76656386190E+03  0.79155378925E+02 0.  0.
         11    1    5    5    0    0  0.16788529167E+03  0.57454201742E+02 -0.28086626698E+03  0.33222329296E+03  0.00000000000E+00 0. -1.
        -12    1    5    5    0    0  0.90367063045E+02  0.94540552959E+02 -0.26514249934E+03  0.29564280339E+03  0.00000000000E+00 0.  1.
         15    1    3    3    0    0 -0.31079111502E+02 -0.35419325553E+02  0.13629683088E+03  0.14422351969E+03  0.17770000000E+01 0. -1.
        -16    1    3    3    0    0  0.48047125144E+02 -0.61070128761E+02  0.14467326527E+03  0.16422070681E+03  0.00000000000E+00 0.  1.
          4    1    6    6  502    0 -0.63537554038E+02 -0.41502066608E+01 -0.88360476402E+02  0.10891197720E+03  0.00000000000E+00 0. -1.
         -3    1    6    6    0  502 -0.21168281432E+03 -0.51355093727E+02 -0.62053125781E+03  0.65765188470E+03  0.00000000000E+00 0.  1.
<mgrwt>
<rscale>  0 0.35729166E+03</rscale>
<asrwt>0</asrwt>
<pdfrwt beam="1">  1        1 0.56072599E-01 0.35729166E+03</pdfrwt>
<pdfrwt beam="2">  1       -2 0.20590804E+00 0.35729166E+03</pdfrwt>
<totfact> 0.78584004E+00</totfact>
</mgrwt>
</event>
<event>
12    3  0.1176505E-007  0.1151433E+04  0.7818608E-02  0.9156462E-01
          1   -1    0    0  501    0  0.00000000000E+00  0.00000000000E+00  0.60444219472E+03  0.60444219472E+03  0.00000000000E+00 0. -1.
         -2   -1    0    0    0  501 -0.00000000000E+00 -0.00000000000E+00 -0.23281667678E+04  0.23281667678E+04  0.00000000000E+00 0.  1.
        -24    2    1    2    0    0  0.95867448806E+03 -0.53225346520E+03 -0.10115527994E+04  0.14940281571E+04  0.80811774674E+02 0.  0.
    5000000    2    1    2    0    0 -0.95867448806E+03  0.53225346520E+03 -0.71217177367E+03  0.14385808054E+04  0.59997964404E+03 0.  0.
        -24    2    4    4    0    0 -0.23789282776E+03 -0.77460143682E+02 -0.16860930111E+02  0.26344364996E+03  0.80778675281E+02 0.  0.
         24    2    4    4    0    0 -0.72078166029E+03  0.60971360889E+03 -0.69531084356E+03  0.11751371555E+04  0.78824351033E+02 0.  0.
         11    1    5    5    0    0 -0.72359879845E+02  0.40403960097E+01 -0.30068652137E+02  0.78462735438E+02  0.00000000000E+00 0. -1.
        -12    1    5    5    0    0 -0.16553294792E+03 -0.81500539692E+02  0.13207722027E+02  0.18498091452E+03  0.00000000000E+00 0.  1.
         15    1    3    3    0    0  0.77032820284E+03 -0.45728726944E+03 -0.80038271563E+03  0.12013046392E+04  0.17770000000E+01 0. -1.
        -16    1    3    3    0    0  0.18834628521E+03 -0.74966195765E+02 -0.21117008381E+03  0.29272351794E+03  0.00000000000E+00 0.  1.
          4    1    6    6  502    0 -0.13082448998E+03  0.73248600865E+02 -0.11327054243E+03  0.18791120374E+03  0.00000000000E+00 0. -1.
         -3    1    6    6    0  502 -0.58995717031E+03  0.53646500802E+03 -0.58204030113E+03  0.98722595173E+03  0.00000000000E+00 0.  1.
<mgrwt>
<rscale>  0 0.11514333E+04</rscale>
<asrwt>0</asrwt>
<pdfrwt beam="1">  1        1 0.92991108E-01 0.11514333E+04</pdfrwt>
<pdfrwt beam="2">  1       -2 0.35817950E+00 0.11514333E+04</pdfrwt>
<totfact> 0.40876358E-01</totfact>
</mgrwt>
</event>
<event>
12    3  0.1176505E-007  0.4219469E+03  0.7818608E-02  0.1036435E+00
         -2   -1    0    0    0  501 -0.00000000000E+00  0.00000000000E+00  0.13302328793E+03  0.13302328793E+03  0.00000000000E+00 0.  1.
          1   -1    0    0  501    0  0.00000000000E+00 -0.00000000000E+00 -0.18478684200E+04  0.18478684200E+04  0.00000000000E+00 0. -1.
        -24    2    1    2    0    0 -0.29396555900E+03 -0.74911268254E+02 -0.64913064258E+03  0.72093993891E+03  0.79726760818E+02 0.  0.
    5000000    2    1    2    0    0  0.29396555900E+03  0.74911268254E+02 -0.10657144895E+04  0.12599517690E+04  0.59975298177E+03 0.  0.
        -24    2    4    4    0    0  0.11302444164E+03 -0.17378824167E+03 -0.10059563284E+03  0.24386551377E+03  0.79837523185E+02 0.  0.
         24    2    4    4    0    0  0.18094111735E+03  0.24869950992E+03 -0.96511885665E+03  0.10160862552E+04  0.79910803156E+02 0.  0.
         11    1    5    5    0    0  0.66317222765E+02 -0.56049916641E+02 -0.74788461532E+02  0.11459878345E+03  0.00000000000E+00 0. -1.
        -12    1    5    5    0    0  0.46707218876E+02 -0.11773832503E+03 -0.25807171311E+02  0.12926673031E+03  0.00000000000E+00 0.  1.
         15    1    3    3    0    0 -0.11706776386E+03 -0.68745803016E+02 -0.25519691322E+03  0.28906654773E+03  0.17770000000E+01 0. -1.
        -16    1    3    3    0    0 -0.17689779514E+03 -0.61654652376E+01 -0.39393372935E+03  0.43187339118E+03  0.00000000000E+00 0.  1.
          4    1    6    6  502    0  0.11174360010E+03  0.86607229061E+02 -0.41428150838E+03  0.43774034824E+03  0.00000000000E+00 0. -1.
         -3    1    6    6    0  502  0.69197517251E+02  0.16209228086E+03 -0.55083734827E+03  0.57834590701E+03  0.00000000000E+00 0.  1.
<mgrwt>
<rscale>  0 0.42194694E+03</rscale>
<asrwt>0</asrwt>
<pdfrwt beam="1">  1        1 0.28428742E+00 0.42194694E+03</pdfrwt>
<pdfrwt beam="2">  1       -2 0.20465123E-01 0.42194694E+03</pdfrwt>
<totfact> 0.73193982E+01</totfact>
</mgrwt>
</event>
<event>
12    3  0.1176505E-007  0.7374176E+03  0.7818608E-02  0.9655300E-01
          1   -1    0    0  501    0  0.00000000000E+00  0.00000000000E+00  0.14362813888E+04  0.14362813888E+04  0.00000000000E+00 0. -1.
         -2   -1    0    0    0  501 -0.00000000000E+00 -0.00000000000E+00 -0.49805862092E+03  0.49805862092E+03  0.00000000000E+00 0.  1.
        -24    2    1    2    0    0 -0.48437527282E+03  0.51776157988E+03  0.18105303751E+03  0.73604783516E+03  0.79307974031E+02 0.  0.
    5000000    2    1    2    0    0  0.48437527282E+03 -0.51776157988E+03  0.75716973039E+03  0.11982921746E+04  0.59991805815E+03 0.  0.
        -24    2    4    4    0    0  0.21869797875E+03 -0.40792725338E+03  0.76801732862E+03  0.90001940251E+03  0.77141803624E+02 0.  0.
         24    2    4    4    0    0  0.26567729406E+03 -0.10983432649E+03 -0.10847598234E+02  0.29827277205E+03  0.78746252641E+02 0.  0.
         13    1    5    5    0    0  0.17161137407E+03 -0.25483555786E+03  0.54165978314E+03  0.62272541777E+03  0.00000000000E+00 0. -1.
        -14    1    5    5    0    0  0.47086604684E+02 -0.15309169552E+03  0.22635754548E+03  0.27729398474E+03  0.00000000000E+00 0.  1.
         15    1    3    3    0    0 -0.26813949036E+03  0.24191808013E+03  0.65818394281E+02  0.36709448721E+03  0.17770000000E+01 0. -1.
        -16    1    3    3    0    0 -0.21623578246E+03  0.27584349975E+03  0.11523464323E+03  0.36895334796E+03  0.00000000000E+00 0.  1.
          4    1    6    6  502    0  0.53097661761E+02  0.64462540433E+01  0.12243393361E+02  0.54870908108E+02  0.00000000000E+00 0. -1.
         -3    1    6    6    0  502  0.21257963230E+03 -0.11628058054E+03 -0.23090991595E+02  0.24340186395E+03  0.00000000000E+00 0.  1.
<mgrwt>
<rscale>  0 0.73741756E+03</rscale>
<asrwt>0</asrwt>
<pdfrwt beam="1">  1        1 0.22096636E+00 0.73741756E+03</pdfrwt>
<pdfrwt beam="2">  1       -2 0.76624404E-01 0.73741756E+03</pdfrwt>
<totfact> 0.99969196E+00</totfact>
</mgrwt>
</event>
<event>
12    3  0.1176505E-007  0.4737685E+03  0.7818608E-02  0.1020862E+00
          1   -1    0    0  501    0  0.00000000000E+00  0.00000000000E+00  0.20109301125E+04  0.20109301125E+04  0.00000000000E+00 0. -1.
         -2   -1    0    0    0  501 -0.00000000000E+00 -0.00000000000E+00 -0.18130864519E+03  0.18130864519E+03  0.00000000000E+00 0.  1.
        -24    2    1    2    0    0  0.24296188397E+03  0.24689336351E+03  0.17061736741E+03  0.39438694706E+03  0.80274329276E+02 0.  0.
    5000000    2    1    2    0    0 -0.24296188397E+03 -0.24689336351E+03  0.16590040999E+04  0.17978518106E+04  0.59999143286E+03 0.  0.
        -24    2    4    4    0    0 -0.16064590043E+03  0.12103881574E+03  0.10869314107E+04  0.11082093029E+04  0.79059897649E+02 0.  0.
         24    2    4    4    0    0 -0.82315983536E+02 -0.36793217925E+03  0.57207268921E+03  0.68964250766E+03  0.78674118710E+02 0.  0.
         13    1    5    5    0    0 -0.15976970682E+03  0.10250440930E+03  0.10483580786E+04  0.10654051690E+04  0.00000000000E+00 0. -1.
        -14    1    5    5    0    0 -0.87619361080E+00  0.18534406444E+02  0.38573332037E+02  0.42804133935E+02  0.00000000000E+00 0.  1.
         15    1    3    3    0    0  0.64036147423E+02  0.11820040543E+03  0.76957766220E+02  0.15491165072E+03  0.17770000000E+01 0. -1.
        -16    1    3    3    0    0  0.17892573655E+03  0.12869295808E+03  0.93659601195E+02  0.23947529633E+03  0.00000000000E+00 0.  1.
          2    1    6    6  502    0 -0.62407506912E+02 -0.11709909823E+03  0.21949912938E+03  0.25648930489E+03  0.00000000000E+00 0. -1.
         -1    1    6    6    0  502 -0.19908476625E+02 -0.25083308102E+03  0.35257355983E+03  0.43315320277E+03  0.00000000000E+00 0.  1.
<mgrwt>
<rscale>  0 0.47376850E+03</rscale>
<asrwt>0</asrwt>
<pdfrwt beam="1">  1        1 0.30937385E+00 0.47376850E+03</pdfrwt>
<pdfrwt beam="2">  1       -2 0.27893639E-01 0.47376850E+03</pdfrwt>
<totfact> 0.32630010E+01</totfact>
</mgrwt>
</event>
<event>
12    3  0.1176505E-007  0.5343225E+03  0.7818608E-02  0.1005189E+00
         -2   -1    0    0    0  501 -0.00000000000E+00  0.00000000000E+00  0.12541965131E+03  0.12541965131E+03  0.00000000000E+00 0.  1.
          1   -1    0    0  501    0  0.00000000000E+00 -0.00000000000E+00 -0.23751426609E+04  0.23751426609E+04  0.00000000000E+00 0. -1.
        -24    2    1    2    0    0 -0.27741349139E+03 -0.24818772800E+03 -0.89591062890E+03  0.97352752735E+03  0.80898689773E+02 0.  0.
    5000000    2    1    2    0    0  0.27741349139E+03  0.24818772800E+03 -0.13538123807E+04  0.15270347849E+04  0.60039310333E+03 0.  0.
        -24    2    4    4    0    0 -0.12479012946E+03  0.25699612736E+03 -0.56304734385E+03  0.63632806338E+03  0.79192846513E+02 0.  0.
         24    2    4    4    0    0  0.40220362085E+03 -0.88083993659E+01 -0.79076503683E+03  0.89070672147E+03  0.78764076008E+02 0.  0.
         11    1    5    5    0    0 -0.67077916534E+02  0.11318008527E+03 -0.17862202699E+03  0.22184455620E+03  0.00000000000E+00 0. -1.
        -12    1    5    5    0    0 -0.57712212930E+02  0.14381604209E+03 -0.38442531686E+03  0.41448350719E+03  0.00000000000E+00 0.  1.
         15    1    3    3    0    0 -0.10692856530E+03 -0.50410155839E+02 -0.23961555408E+03  0.26719594566E+03  0.17770000000E+01 0. -1.
        -16    1    3    3    0    0 -0.17048492609E+03 -0.19777757216E+03 -0.65629507482E+03  0.70633158170E+03  0.00000000000E+00 0.  1.
          2    1    6    6  502    0  0.15814320762E+03  0.60676871697E+01 -0.23259950244E+03  0.28133364442E+03  0.00000000000E+00 0. -1.
         -1    1    6    6    0  502  0.24406041323E+03 -0.14876086536E+02 -0.55816553439E+03  0.60937307705E+03  0.00000000000E+00 0.  1.
<mgrwt>
<rscale>  0 0.53432245E+03</rscale>
<asrwt>0</asrwt>
<pdfrwt beam="1">  1        1 0.36540656E+00 0.53432245E+03</pdfrwt>
<pdfrwt beam="2">  1       -2 0.19295331E-01 0.53432245E+03</pdfrwt>
<totfact> 0.35513873E+01</totfact>
</mgrwt>
</event>
<event>
12    3  0.1176505E-007  0.2978515E+03  0.7818608E-02  0.1086320E+00
          1   -1    0    0  501    0  0.00000000000E+00  0.00000000000E+00  0.83645787776E+03  0.83645787776E+03  0.00000000000E+00 0. -1.
         -2   -1    0    0    0  501 -0.00000000000E+00 -0.00000000000E+00 -0.46482779109E+03  0.46482779109E+03  0.00000000000E+00 0.  1.
        -24    2    1    2    0    0  0.16792227876E+03 -0.16077359293E+03 -0.28873736030E+03  0.37925202587E+03  0.80104906234E+02 0.  0.
    5000000    2    1    2    0    0 -0.16792227876E+03  0.16077359293E+03  0.66036744697E+03  0.92203364298E+03  0.60001236144E+03 0.  0.
        -24    2    4    4    0    0 -0.19409298007E+03  0.10022215646E+02 -0.30633682627E+02  0.20952788337E+03  0.72048467582E+02 0.  0.
         24    2    4    4    0    0  0.26170701303E+02  0.15075137729E+03  0.69100112960E+03  0.71250575961E+03  0.82286165353E+02 0.  0.
         13    1    5    5    0    0 -0.19359124771E+03  0.12642327969E+02 -0.16010254551E+02  0.19466311386E+03  0.00000000000E+00 0. -1.
        -14    1    5    5    0    0 -0.50173235658E+00 -0.26201123227E+01 -0.14623428076E+02  0.14864769512E+02  0.00000000000E+00 0.  1.
         15    1    3    3    0    0  0.27918259505E+02  0.16731288064E+01 -0.15898978074E+02  0.32220549446E+02  0.17770000000E+01 0. -1.
        -16    1    3    3    0    0  0.14000401926E+03 -0.16244672174E+03 -0.27283838223E+03  0.34703147642E+03  0.00000000000E+00 0.  1.
          2    1    6    6  502    0  0.24014769542E+02  0.46996221565E+02  0.10645804497E+03  0.11882200696E+03  0.00000000000E+00 0. -1.
         -1    1    6    6    0  502  0.21559317608E+01  0.10375515572E+03  0.58454308463E+03  0.59368375266E+03  0.00000000000E+00 0.  1.
<mgrwt>
<rscale>  0 0.29785151E+03</rscale>
<asrwt>0</asrwt>
<pdfrwt beam="1">  1        1 0.12868583E+00 0.29785151E+03</pdfrwt>
<pdfrwt beam="2">  1       -2 0.71511968E-01 0.29785151E+03</pdfrwt>
<totfact> 0.34724634E+01</totfact>
</mgrwt>
</event>
<event>
12    3  0.1176505E-007  0.1441952E+04  0.7818608E-02  0.8923999E-01
          1   -1    0    0  501    0  0.00000000000E+00  0.00000000000E+00  0.24980242608E+04  0.24980242608E+04  0.00000000000E+00 0. -1.
         -2   -1    0    0    0  501 -0.00000000000E+00 -0.00000000000E+00 -0.12184528461E+04  0.12184528461E+04  0.00000000000E+00 0.  1.
        -24    2    1    2    0    0  0.13094774368E+04 -0.49593043469E+03 -0.39090137139E+03  0.14556551960E+04  0.73824210244E+02 0.  0.
    5000000    2    1    2    0    0 -0.13094774368E+04  0.49593043469E+03  0.16704727861E+04  0.22608219109E+04  0.60013184379E+03 0.  0.
        -24    2    4    4    0    0  0.98329261515E+01  0.65139531581E+02  0.29203465677E+02  0.10993835813E+03  0.83028640662E+02 0.  0.
         24    2    4    4    0    0 -0.13193103629E+04  0.43079090311E+03  0.16412693204E+04  0.21508835527E+04  0.79840085081E+02 0.  0.
         13    1    5    5    0    0  0.34757585897E+02  0.18973820601E+02  0.40097158962E+02  0.56354927046E+02  0.00000000000E+00 0. -1.
        -14    1    5    5    0    0 -0.24924659745E+02  0.46165710980E+02 -0.10893693285E+02  0.53583431087E+02  0.00000000000E+00 0.  1.
         15    1    3    3    0    0  0.36372726443E+03 -0.16997702753E+03 -0.12678770265E+03  0.42103205585E+03  0.17770000000E+01 0. -1.
        -16    1    3    3    0    0  0.94575017236E+03 -0.32595340716E+03 -0.26411366874E+03  0.10346231402E+04  0.00000000000E+00 0.  1.
          4    1    6    6  502    0 -0.26988512401E+03  0.55767053219E+02  0.31299295341E+03  0.41702821639E+03  0.00000000000E+00 0. -1.
         -1    1    6    6    0  502 -0.10494252389E+04  0.37502384990E+03  0.13282763670E+04  0.17338553363E+04  0.00000000000E+00 0.  1.
<mgrwt>
<rscale>  0 0.14419524E+04</rscale>
<asrwt>0</asrwt>
<pdfrwt beam="1">  1        1 0.38431142E+00 0.14419524E+04</pdfrwt>
<pdfrwt beam="2">  1       -2 0.18745428E+00 0.14419524E+04</pdfrwt>
<totfact> 0.18242796E-01</totfact>
</mgrwt>
</event>
<event>
12    3  0.1176505E-007  0.5682731E+03  0.7818608E-02  0.9973507E-01
         -2   -1    0    0    0  501 -0.00000000000E+00  0.00000000000E+00  0.14667853842E+03  0.14667853842E+03  0.00000000000E+00 0.  1.
          1   -1    0    0  501    0  0.00000000000E+00 -0.00000000000E+00 -0.27981443668E+04  0.27981443668E+04  0.00000000000E+00 0. -1.
        -24    2    1    2    0    0 -0.33929463318E+03  0.29652288172E+03 -0.56291118859E+03  0.72554369583E+03  0.80610054124E+02 0.  0.
    5000000    2    1    2    0    0  0.33929463318E+03 -0.29652288172E+03 -0.20885546398E+04  0.22192792094E+04  0.60007754359E+03 0.  0.
        -24    2    4    4    0    0  0.24758577940E+02 -0.35366506280E+03 -0.66423085528E+03  0.75724383345E+03  0.80768993823E+02 0.  0.
         24    2    4    4    0    0  0.31453605524E+03  0.57142181083E+02 -0.14243237845E+04  0.14620353759E+04  0.81553899040E+02 0.  0.
         13    1    5    5    0    0  0.89414695921E+01 -0.26191650784E+02 -0.19231355328E+02  0.33701594577E+02  0.00000000000E+00 0. -1.
        -14    1    5    5    0    0  0.15817108348E+02 -0.32747341202E+03 -0.64499949995E+03  0.72354223887E+03  0.00000000000E+00 0.  1.
         15    1    3    3    0    0 -0.66430987358E+02  0.36498963694E+02 -0.57981612419E+02  0.95447763410E+02  0.17770000000E+01 0. -1.
        -16    1    3    3    0    0 -0.27286364583E+03  0.26002391803E+03 -0.50492957618E+03  0.63009593242E+03  0.00000000000E+00 0.  1.
          2    1    6    6  502    0  0.87852045160E+02  0.50851561510E+02 -0.37569506911E+03  0.38916660712E+03  0.00000000000E+00 0. -1.
         -1    1    6    6    0  502  0.22668401008E+03  0.62906195725E+01 -0.10486287154E+04  0.10728687688E+04  0.00000000000E+00 0.  1.
<mgrwt>
<rscale>  0 0.56827314E+03</rscale>
<asrwt>0</asrwt>
<pdfrwt beam="1">  1        1 0.43048372E+00 0.56827314E+03</pdfrwt>
<pdfrwt beam="2">  1       -2 0.22565930E-01 0.56827314E+03</pdfrwt>
<totfact> 0.13792137E+01</totfact>
</mgrwt>
</event>
<event>
12    3  0.1494032E-007  0.6574219E+03  0.7818608E-02  0.9792951E-01
          1   -1    0    0  501    0  0.00000000000E+00  0.00000000000E+00  0.18523745730E+04  0.18523745730E+04  0.00000000000E+00 0. -1.
         -2   -1    0    0    0  501 -0.00000000000E+00 -0.00000000000E+00 -0.27434103734E+03  0.27434103734E+03  0.00000000000E+00 0.  1.
        -24    2    1    2    0    0 -0.57285129929E+03 -0.56007195904E+01  0.81412439391E+03  0.99896653590E+03  0.83340458010E+02 0.  0.
    5000000    2    1    2    0    0  0.57285129929E+03  0.56007195904E+01  0.76390914172E+03  0.11277490744E+04  0.60005901283E+03 0.  0.
        -24    2    4    4    0    0  0.10086478630E+02  0.15352615635E+03  0.40157548616E+03  0.43765585719E+03  0.81288132679E+02 0.  0.
         24    2    4    4    0    0  0.56276482066E+03 -0.14792543676E+03  0.36233365556E+03  0.69009321722E+03  0.79729494528E+02 0.  0.
         13    1    5    5    0    0  0.71102723061E+01  0.25160764606E+02  0.17736946638E+03  0.17928621713E+03  0.00000000000E+00 0. -1.
        -14    1    5    5    0    0  0.29762063237E+01  0.12836539174E+03  0.22420601978E+03  0.25836964006E+03  0.00000000000E+00 0.  1.
         15    1    3    3    0    0 -0.26564657623E+03  0.33638626324E+01  0.44900889728E+03  0.52171981618E+03  0.17770000000E+01 0. -1.
        -16    1    3    3    0    0 -0.30720472306E+03 -0.89645822229E+01  0.36511549663E+03  0.47724671972E+03  0.00000000000E+00 0.  1.
          4    1    6    6  502    0  0.23154417648E+03 -0.10156112846E+03  0.15944141779E+03  0.29891292074E+03  0.00000000000E+00 0. -1.
         -1    1    6    6    0  502  0.33122064417E+03 -0.46364308294E+02  0.20289223778E+03  0.39118029649E+03  0.00000000000E+00 0.  1.
<mgrwt>
<rscale>  0 0.65742195E+03</rscale>
<asrwt>0</asrwt>
<pdfrwt beam="1">  1        1 0.28498070E+00 0.65742195E+03</pdfrwt>
<pdfrwt beam="2">  1       -2 0.42206315E-01 0.65742195E+03</pdfrwt>
<totfact> 0.18407564E+01</totfact>
</mgrwt>
</event>
<event>
12    3  0.1176505E-007  0.4706521E+03  0.7818608E-02  0.1021736E+00
          1   -1    0    0  501    0  0.00000000000E+00  0.00000000000E+00  0.10848902887E+04  0.10848902887E+04  0.00000000000E+00 0. -1.
         -2   -1    0    0    0  501 -0.00000000000E+00 -0.00000000000E+00 -0.33820246002E+03  0.33820246002E+03  0.00000000000E+00 0.  1.
        -24    2    1    2    0    0 -0.35167573370E+02 -0.40372759095E+03  0.46256714348E+02  0.41554479776E+03  0.79404467221E+02 0.  0.
    5000000    2    1    2    0    0  0.35167573370E+02  0.40372759095E+03  0.70043111431E+03  0.10075479510E+04  0.60026361014E+03 0.  0.
        -24    2    4    4    0    0 -0.26927870209E+02 -0.32013080065E+02  0.51243562772E+03  0.52049027856E+03  0.81054981549E+02 0.  0.
         24    2    4    4    0    0  0.62095443579E+02  0.43574067101E+03  0.18799548659E+03  0.48705767239E+03  0.90316647235E+02 0.  0.
         13    1    5    5    0    0  0.29033423170E+02 -0.10055648846E+02  0.15174572102E+03  0.15482512581E+03  0.00000000000E+00 0. -1.
        -14    1    5    5    0    0 -0.55961293379E+02 -0.21957431218E+02  0.36068990670E+03  0.36566515275E+03  0.00000000000E+00 0.  1.
         15    1    3    3    0    0 -0.16742180013E+02 -0.17160794818E+03 -0.19648856856E+02  0.17354775647E+03  0.17770000000E+01 0. -1.
        -16    1    3    3    0    0 -0.18425393357E+02 -0.23211964276E+03  0.65905571204E+02  0.24199704129E+03  0.00000000000E+00 0.  1.
          2    1    6    6  502    0  0.16814562839E+01  0.24705336955E+03  0.71387551689E+02  0.25716604993E+03  0.00000000000E+00 0. -1.
         -1    1    6    6    0  502  0.60413987295E+02  0.18868730146E+03  0.11660793491E+03  0.22989162246E+03  0.00000000000E+00 0.  1.
<mgrwt>
<rscale>  0 0.47065207E+03</rscale>
<asrwt>0</asrwt>
<pdfrwt beam="1">  1        1 0.16690620E+00 0.47065207E+03</pdfrwt>
<pdfrwt beam="2">  1       -2 0.52031148E-01 0.47065207E+03</pdfrwt>
<totfact> 0.42083735E+01</totfact>
</mgrwt>
</event>
<event>
12    3  0.1176505E-007  0.5523086E+03  0.7818608E-02  0.1000961E+00
         -2   -1    0    0    0  501 -0.00000000000E+00  0.00000000000E+00  0.10016696692E+04  0.10016696692E+04  0.00000000000E+00 0.  1.
          1   -1    0    0  501    0  0.00000000000E+00 -0.00000000000E+00 -0.51064894163E+03  0.51064894163E+03  0.00000000000E+00 0. -1.
        -24    2    1    2    0    0 -0.37780311692E+03 -0.33556987750E+03  0.51807921862E+03  0.72751562478E+03  0.74367800164E+02 0.  0.
    5000000    2    1    2    0    0  0.37780311692E+03  0.33556987750E+03 -0.27058491040E+02  0.78480298606E+03  0.59986767471E+03 0.  0.
        -24    2    4    4    0    0  0.30979044750E+03  0.81230209866E+02 -0.26403383542E+03  0.42143176930E+03  0.72954791329E+02 0.  0.
         24    2    4    4    0    0  0.68012669420E+02  0.25433966763E+03  0.23697534438E+03  0.36337121676E+03  0.81036643521E+02 0.  0.
         11    1    5    5    0    0  0.23057382950E+03  0.90005909625E+02 -0.18343523362E+03  0.30808089774E+03  0.00000000000E+00 0. -1.
        -12    1    5    5    0    0  0.79216618000E+02 -0.87756997590E+01 -0.80598601793E+02  0.11335087157E+03  0.00000000000E+00 0.  1.
         15    1    3    3    0    0 -0.31056126409E+03 -0.26803895030E+03  0.37630165540E+03  0.55668597182E+03  0.17770000000E+01 0. -1.
        -16    1    3    3    0    0 -0.67241852825E+02 -0.67530927191E+02  0.14177756322E+03  0.17082965296E+03  0.00000000000E+00 0.  1.
          2    1    6    6  502    0  0.18994054806E+02  0.78660225906E+01  0.45306037152E+01  0.21051717255E+02  0.00000000000E+00 0. -1.
         -1    1    6    6    0  502  0.49018614614E+02  0.24647364504E+03  0.23244474066E+03  0.34231949950E+03  0.00000000000E+00 0.  1.
<mgrwt>
<rscale>  0 0.55230857E+03</rscale>
<asrwt>0</asrwt>
<pdfrwt beam="1">  1        1 0.78561376E-01 0.55230857E+03</pdfrwt>
<pdfrwt beam="2">  1       -2 0.15410303E+00 0.55230857E+03</pdfrwt>
<totfact> 0.10963159E+01</totfact>
</mgrwt>
</event>
<event>
12    3  0.1176505E-007  0.5474450E+03  0.7818608E-02  0.1002087E+00
          1   -1    0    0  501    0  0.00000000000E+00  0.00000000000E+00  0.99164859660E+03  0.99164859660E+03  0.00000000000E+00 0. -1.
         -2   -1    0    0    0  501 -0.00000000000E+00 -0.00000000000E+00 -0.30633743407E+03  0.30633743407E+03  0.00000000000E+00 0.  1.
        -24    2    1    2    0    0 -0.28686435536E+03  0.25338157757E+03  0.23503322062E+03  0.45584910159E+03  0.77874298687E+02 0.  0.
    5000000    2    1    2    0    0  0.28686435536E+03 -0.25338157757E+03  0.45027794191E+03  0.84213692909E+03  0.59995916539E+03 0.  0.
        -24    2    4    4    0    0  0.22492134624E+03  0.16065221235E+03  0.16804253941E+03  0.33283436544E+03  0.78368835896E+02 0.  0.
         24    2    4    4    0    0  0.61943009121E+02 -0.41403378992E+03  0.28223540250E+03  0.50930256365E+03  0.66868253600E+02 0.  0.
         11    1    5    5    0    0  0.82674847092E+02  0.15654484746E+02  0.51523749179E+02  0.98665545981E+02  0.00000000000E+00 0. -1.
        -12    1    5    5    0    0  0.14224649915E+03  0.14499772760E+03  0.11651879023E+03  0.23416881946E+03  0.00000000000E+00 0.  1.
         15    1    3    3    0    0 -0.13879558158E+03  0.10492511019E+03  0.64470337121E+02  0.18556151086E+03  0.17770000000E+01 0. -1.
        -16    1    3    3    0    0 -0.14806877378E+03  0.14845646738E+03  0.17056288350E+03  0.27028759073E+03  0.00000000000E+00 0.  1.
          4    1    6    6  502    0  0.28355061518E+02 -0.43696847083E+02  0.34326883323E+02  0.62383963303E+02  0.00000000000E+00 0. -1.
         -3    1    6    6    0  502  0.33587947604E+02 -0.37033694284E+03  0.24790851918E+03  0.44691860034E+03  0.00000000000E+00 0.  1.
<mgrwt>
<rscale>  0 0.54744505E+03</rscale>
<asrwt>0</asrwt>
<pdfrwt beam="1">  1        1 0.15256132E+00 0.54744505E+03</pdfrwt>
<pdfrwt beam="2">  1       -2 0.47128837E-01 0.54744505E+03</pdfrwt>
<totfact> 0.59824218E+01</totfact>
</mgrwt>
</event>
<event>
12    3  0.1176505E-007  0.5481091E+03  0.7818608E-02  0.1001933E+00
         -2   -1    0    0    0  501 -0.00000000000E+00  0.00000000000E+00  0.16123404835E+03  0.16123404835E+03  0.00000000000E+00 0.  1.
          1   -1    0    0  501    0  0.00000000000E+00 -0.00000000000E+00 -0.26378093802E+04  0.26378093802E+04  0.00000000000E+00 0. -1.
        -24    2    1    2    0    0  0.39434217999E+03 -0.50685414964E+02 -0.29400810676E+03  0.50085632763E+03  0.79633710676E+02 0.  0.
    5000000    2    1    2    0    0 -0.39434217999E+03  0.50685414964E+02 -0.21825672251E+04  0.22981871009E+04  0.59999124377E+03 0.  0.
        -24    2    4    4    0    0 -0.53124729220E+03  0.78076971010E+02 -0.14445285910E+04  0.15429180313E+04  0.74923309509E+02 0.  0.
         24    2    4    4    0    0  0.13690511222E+03 -0.27391556045E+02 -0.73803863410E+03  0.75526906960E+03  0.78974900954E+02 0.  0.
         13    1    5    5    0    0 -0.32757286278E+03  0.79124092548E+02 -0.95469937251E+03  0.10124304886E+04  0.00000000000E+00 0. -1.
        -14    1    5    5    0    0 -0.20367442942E+03 -0.10471215385E+01 -0.48982921850E+03  0.53048754270E+03  0.00000000000E+00 0.  1.
         15    1    3    3    0    0  0.32448898046E+03 -0.18479736266E+02 -0.26229305631E+03  0.41765464706E+03  0.17770000000E+01 0. -1.
        -16    1    3    3    0    0  0.69853199525E+02 -0.32205678699E+02 -0.31715050459E+02  0.83201680571E+02  0.00000000000E+00 0.  1.
          4    1    6    6  502    0  0.12596879104E+03 -0.20258267695E+01 -0.67163907334E+03  0.68335297257E+03  0.00000000000E+00 0. -1.
         -3    1    6    6    0  502  0.10936321176E+02 -0.25365729276E+02 -0.66399560760E+02  0.71916097027E+02  0.00000000000E+00 0.  1.
<mgrwt>
<rscale>  0 0.54810905E+03</rscale>
<asrwt>0</asrwt>
<pdfrwt beam="1">  1        1 0.40581676E+00 0.54810905E+03</pdfrwt>
<pdfrwt beam="2">  1       -2 0.24805242E-01 0.54810905E+03</pdfrwt>
<totfact> 0.15101109E+01</totfact>
</mgrwt>
</event>
<event>
12    3  0.1176505E-007  0.8487562E+03  0.7818608E-02  0.9492008E-01
          1   -1    0    0  501    0  0.00000000000E+00  0.00000000000E+00  0.21263176022E+04  0.21263176022E+04  0.00000000000E+00 0. -1.
         -4   -1    0    0    0  501 -0.00000000000E+00 -0.00000000000E+00 -0.52171185817E+03  0.52171185817E+03  0.00000000000E+00 0.  1.
        -24    2    1    2    0    0  0.62927952032E+03  0.47266211087E+03  0.14424750240E+04  0.16451647267E+04  0.80191004714E+02 0.  0.
    5000000    2    1    2    0    0 -0.62927952032E+03 -0.47266211087E+03  0.16213072004E+03  0.10028647337E+04  0.60004093026E+03 0.  0.
        -24    2    4    4    0    0 -0.54124111423E+03 -0.55151325433E+03  0.27467939430E+03  0.82397510900E+03  0.79858607328E+02 0.  0.
         24    2    4    4    0    0 -0.88038406091E+02  0.78851143463E+02 -0.11254867426E+03  0.17888962471E+03  0.73253190912E+02 0.  0.
         13    1    5    5    0    0 -0.41276035161E+03 -0.37632150331E+03  0.17855115363E+03  0.58640386781E+03  0.00000000000E+00 0. -1.
        -14    1    5    5    0    0 -0.12848076262E+03 -0.17519175102E+03  0.96128240664E+02  0.23757124120E+03  0.00000000000E+00 0.  1.
         15    1    3    3    0    0  0.46038388715E+03  0.30634922002E+03  0.10479941254E+04  0.11849464177E+04  0.17770000000E+01 0. -1.
        -16    1    3    3    0    0  0.16889563317E+03  0.16631289085E+03  0.39448089859E+03  0.46021830897E+03  0.00000000000E+00 0.  1.
          2    1    6    6  502    0 -0.33121123432E+02 -0.28271416251E+01 -0.58932341691E+01  0.33759913450E+02  0.00000000000E+00 0. -1.
         -1    1    6    6    0  502 -0.54917282659E+02  0.81678285088E+02 -0.10665544009E+03  0.14512971126E+03  0.00000000000E+00 0.  1.
<mgrwt>
<rscale>  0 0.84875616E+03</rscale>
<asrwt>0</asrwt>
<pdfrwt beam="1">  1        1 0.32712578E+00 0.84875616E+03</pdfrwt>
<pdfrwt beam="2">  1       -4 0.80263364E-01 0.84875616E+03</pdfrwt>
<totfact> 0.16622878E+00</totfact>
</mgrwt>
</event>
<event>
12    3  0.1176505E-007  0.5444836E+03  0.7818608E-02  0.1002779E+00
          1   -1    0    0  501    0  0.00000000000E+00  0.00000000000E+00  0.58976167942E+03  0.58976167942E+03  0.00000000000E+00 0. -1.
         -2   -1    0    0    0  501 -0.00000000000E+00 -0.00000000000E+00 -0.18721043096E+04  0.18721043096E+04  0.00000000000E+00 0.  1.
        -24    2    1    2    0    0  0.18357433619E+03  0.35202416868E+03  0.43828450196E+03  0.59686786484E+03  0.80854135127E+02 0.  0.
    5000000    2    1    2    0    0 -0.18357433619E+03 -0.35202416868E+03 -0.17206271321E+04  0.18649981241E+04  0.60003310168E+03 0.  0.
        -24    2    4    4    0    0  0.19984491482E+03 -0.17982203335E+03 -0.52270870285E+03  0.59308229510E+03  0.79045980762E+02 0.  0.
         24    2    4    4    0    0 -0.38341925102E+03 -0.17220213534E+03 -0.11979184293E+04  0.12719158290E+04  0.78085949863E+02 0.  0.
         11    1    5    5    0    0  0.13343655411E+03 -0.13509643436E+03 -0.43320342817E+03  0.47299214658E+03  0.00000000000E+00 0. -1.
        -12    1    5    5    0    0  0.66408360709E+02 -0.44725598986E+02 -0.89505274682E+02  0.12009014852E+03  0.00000000000E+00 0.  1.
         15    1    3    3    0    0  0.12309891370E+03  0.21818541268E+03  0.33037573449E+03  0.41461970591E+03  0.17770000000E+01 0. -1.
        -16    1    3    3    0    0  0.60475422491E+02  0.13383875600E+03  0.10790876747E+03  0.18224815892E+03  0.00000000000E+00 0.  1.
          2    1    6    6  502    0 -0.25280872105E+03 -0.96066909076E+02 -0.66282710405E+03  0.71587769229E+03  0.00000000000E+00 0. -1.
         -1    1    6    6    0  502 -0.13061052997E+03 -0.76135226259E+02 -0.53509132521E+03  0.55603813676E+03  0.00000000000E+00 0.  1.
<mgrwt>
<rscale>  0 0.54448364E+03</rscale>
<asrwt>0</asrwt>
<pdfrwt beam="1">  1        1 0.90732566E-01 0.54448364E+03</pdfrwt>
<pdfrwt beam="2">  1       -2 0.28801605E+00 0.54448364E+03</pdfrwt>
<totfact> 0.12597987E+00</totfact>
</mgrwt>
</event>
<event>
12    3  0.1176505E-007  0.1159755E+04  0.7818608E-02  0.9148831E-01
          1   -1    0    0  501    0  0.00000000000E+00  0.00000000000E+00  0.10818824803E+04  0.10818824803E+04  0.00000000000E+00 0. -1.
         -2   -1    0    0    0  501 -0.00000000000E+00 -0.00000000000E+00 -0.13732058551E+04  0.13732058551E+04  0.00000000000E+00 0.  1.
        -24    2    1    2    0    0  0.36610026027E+03  0.10649487978E+04  0.63335418252E+02  0.11307291209E+04  0.79947652584E+02 0.  0.
    5000000    2    1    2    0    0 -0.36610026027E+03 -0.10649487978E+04 -0.35465879306E+03  0.13243592144E+04  0.59999927239E+03 0.  0.
        -24    2    4    4    0    0  0.40847441760E+02 -0.46899691212E+03 -0.36459221802E+03  0.59838092539E+03  0.59208355496E+02 0.  0.
         24    2    4    4    0    0 -0.40694770203E+03 -0.59595188567E+03  0.99334249552E+01  0.72597828904E+03  0.78617561626E+02 0.  0.
         11    1    5    5    0    0  0.10517537363E+02 -0.87188002318E+02 -0.98750989912E+02  0.13215189877E+03  0.00000000000E+00 0. -1.
        -12    1    5    5    0    0  0.30329904397E+02 -0.38180890980E+03 -0.26584122811E+03  0.46622902662E+03  0.00000000000E+00 0.  1.
         15    1    3    3    0    0  0.23351021856E+03  0.65887806119E+03  0.77546920954E+02  0.70332354174E+03  0.17770000000E+01 0. -1.
        -16    1    3    3    0    0  0.13259004171E+03  0.40607073661E+03 -0.14211502702E+02  0.42740557916E+03  0.00000000000E+00 0.  1.
          4    1    6    6  502    0 -0.29351898891E+03 -0.40137092600E+03  0.39531934471E+02  0.49881338287E+03  0.00000000000E+00 0. -1.
         -3    1    6    6    0  502 -0.11342871312E+03 -0.19458095967E+03 -0.29598509515E+02  0.22716490617E+03  0.00000000000E+00 0.  1.
<mgrwt>
<rscale>  0 0.11597546E+04</rscale>
<asrwt>0</asrwt>
<pdfrwt beam="1">  1        1 0.16644346E+00 0.11597546E+04</pdfrwt>
<pdfrwt beam="2">  1       -2 0.21126244E+00 0.11597546E+04</pdfrwt>
<totfact> 0.12626357E+00</totfact>
</mgrwt>
</event>
<event>
12    3  0.1176505E-007  0.6850446E+03  0.7818608E-02  0.9743155E-01
         -2   -1    0    0    0  501 -0.00000000000E+00  0.00000000000E+00  0.14970695234E+03  0.14970695234E+03  0.00000000000E+00 0.  1.
          1   -1    0    0  501    0  0.00000000000E+00 -0.00000000000E+00 -0.35502805274E+04  0.35502805274E+04  0.00000000000E+00 0. -1.
        -24    2    1    2    0    0  0.47174706085E+03 -0.34451050673E+03 -0.17907045348E+04  0.18852489194E+04  0.79422784102E+02 0.  0.
    5000000    2    1    2    0    0 -0.47174706085E+03  0.34451050673E+03 -0.16098690403E+04  0.18147385604E+04  0.60030403697E+03 0.  0.
        -24    2    4    4    0    0  0.98652369622E+02  0.42653357055E+02 -0.59173624248E+03  0.60672657359E+03  0.80085925900E+02 0.  0.
         24    2    4    4    0    0 -0.57039943047E+03  0.30185714968E+03 -0.10181327978E+04  0.12080119868E+04  0.78900678461E+02 0.  0.
         11    1    5    5    0    0  0.10452575217E+03  0.54033793171E+02 -0.47790913452E+03  0.49218129234E+03  0.00000000000E+00 0. -1.
        -12    1    5    5    0    0 -0.58733825462E+01 -0.11380436115E+02 -0.11382710797E+03  0.11454528125E+03  0.00000000000E+00 0.  1.
         15    1    3    3    0    0  0.23948990018E+03 -0.22345354836E+03 -0.10085880803E+04  0.10604432912E+04  0.17770000000E+01 0. -1.
        -16    1    3    3    0    0  0.23225716067E+03 -0.12105695837E+03 -0.78211645453E+03  0.82480562819E+03  0.00000000000E+00 0.  1.
          2    1    6    6  502    0 -0.56795931467E+03  0.28936550934E+03 -0.99837258600E+03  0.11845074933E+04  0.00000000000E+00 0. -1.
         -1    1    6    6    0  502 -0.24401158016E+01  0.12491640333E+02 -0.19760211834E+02  0.23504493508E+02  0.00000000000E+00 0.  1.
<mgrwt>
<rscale>  0 0.68504459E+03</rscale>
<asrwt>0</asrwt>
<pdfrwt beam="1">  1        1 0.54619693E+00 0.68504459E+03</pdfrwt>
<pdfrwt beam="2">  1       -2 0.23031842E-01 0.68504459E+03</pdfrwt>
<totfact> 0.36451050E+00</totfact>
</mgrwt>
</event>
<event>
12    3  0.1176505E-007  0.1013448E+04  0.7818608E-02  0.9293917E-01
         -2   -1    0    0    0  501 -0.00000000000E+00  0.00000000000E+00  0.74761044813E+03  0.74761044813E+03  0.00000000000E+00 0.  1.
          1   -1    0    0  501    0  0.00000000000E+00 -0.00000000000E+00 -0.15681227456E+04  0.15681227456E+04  0.00000000000E+00 0. -1.
        -24    2    1    2    0    0  0.79785562087E+01 -0.99745488612E+03 -0.41427493855E+03  0.10828316550E+04  0.76946482123E+02 0.  0.
    5000000    2    1    2    0    0 -0.79785562087E+01  0.99745488612E+03 -0.40623735890E+03  0.12329015387E+04  0.60003125352E+03 0.  0.
        -24    2    4    4    0    0  0.99671144933E+01  0.89216590568E+03 -0.10310264685E+03  0.90192058866E+03  0.82287580114E+02 0.  0.
         24    2    4    4    0    0 -0.17945670702E+02  0.10528898044E+03 -0.30313471205E+03  0.33098095006E+03  0.79056430172E+02 0.  0.
         11    1    5    5    0    0 -0.31099448736E+02  0.58251515300E+03 -0.55989552779E+02  0.58602551924E+03  0.00000000000E+00 0. -1.
        -12    1    5    5    0    0  0.41066563229E+02  0.30965075268E+03 -0.47113094068E+02  0.31589506942E+03  0.00000000000E+00 0.  1.
         15    1    3    3    0    0 -0.14601358116E+02 -0.20196098592E+03 -0.11305472111E+03  0.23191801824E+03  0.17770000000E+01 0. -1.
        -16    1    3    3    0    0  0.22579914324E+02 -0.79549390020E+03 -0.30122021744E+03  0.85091363674E+03  0.00000000000E+00 0.  1.
          4    1    6    6  502    0 -0.48604663994E+02  0.50465935082E+02 -0.15872456407E+03  0.17350132912E+03  0.00000000000E+00 0. -1.
         -3    1    6    6    0  502  0.30658993292E+02  0.54823045362E+02 -0.14441014797E+03  0.15747962094E+03  0.00000000000E+00 0.  1.
<mgrwt>
<rscale>  0 0.10134482E+04</rscale>
<asrwt>0</asrwt>
<pdfrwt beam="1">  1        1 0.24124965E+00 0.10134482E+04</pdfrwt>
<pdfrwt beam="2">  1       -2 0.11501699E+00 0.10134482E+04</pdfrwt>
<totfact> 0.30315483E+00</totfact>
</mgrwt>
</event>
<event>
12    3  0.1176505E-007  0.1245962E+04  0.7818608E-02  0.9073551E-01
         -2   -1    0    0    0  501 -0.00000000000E+00  0.00000000000E+00  0.72068578557E+03  0.72068578557E+03  0.00000000000E+00 0.  1.
          1   -1    0    0  501    0  0.00000000000E+00 -0.00000000000E+00 -0.23350803760E+04  0.23350803760E+04  0.00000000000E+00 0. -1.
        -24    2    1    2    0    0 -0.11104289377E+04  0.46886228642E+03 -0.49790074246E+03  0.13066253677E+04  0.80501135329E+02 0.  0.
    5000000    2    1    2    0    0  0.11104289377E+04 -0.46886228642E+03 -0.11164938480E+04  0.17491407939E+04  0.60004227779E+03 0.  0.
        -24    2    4    4    0    0  0.74030928603E+03 -0.52994596873E+03 -0.98517762441E+03  0.13439607950E+04  0.82189403637E+02 0.  0.
         24    2    4    4    0    0  0.37011965165E+03  0.61083682311E+02 -0.13131622358E+03  0.40517999895E+03  0.78785202839E+02 0.  0.
         11    1    5    5    0    0  0.15595080019E+03 -0.11438762211E+03 -0.26096941350E+03  0.32482335962E+03  0.00000000000E+00 0. -1.
        -12    1    5    5    0    0  0.58435848585E+03 -0.41555834662E+03 -0.72420821091E+03  0.10191374354E+04  0.00000000000E+00 0.  1.
         15    1    3    3    0    0 -0.80932289893E+03  0.35094731289E+03 -0.40133265738E+03  0.96914324574E+03  0.17770000000E+01 0. -1.
        -16    1    3    3    0    0 -0.30110603876E+03  0.11791497353E+03 -0.96568085080E+02  0.33748212192E+03  0.00000000000E+00 0.  1.
          2    1    6    6  502    0  0.23049337390E+03  0.25735504409E+02 -0.41984824024E+02  0.23569522067E+03  0.00000000000E+00 0. -1.
         -1    1    6    6    0  502  0.13962627775E+03  0.35348177902E+02 -0.89331399558E+02  0.16948477827E+03  0.00000000000E+00 0.  1.
<mgrwt>
<rscale>  0 0.12459620E+04</rscale>
<asrwt>0</asrwt>
<pdfrwt beam="1">  1        1 0.35924314E+00 0.12459620E+04</pdfrwt>
<pdfrwt beam="2">  1       -2 0.11087474E+00 0.12459620E+04</pdfrwt>
<totfact> 0.97438061E-01</totfact>
</mgrwt>
</event>
<event>
12    3  0.1176505E-007  0.1016666E+04  0.7818608E-02  0.9290452E-01
          1   -1    0    0  501    0  0.00000000000E+00  0.00000000000E+00  0.13971610295E+04  0.13971610295E+04  0.00000000000E+00 0. -1.
         -2   -1    0    0    0  501 -0.00000000000E+00 -0.00000000000E+00 -0.94350310328E+03  0.94350310328E+03  0.00000000000E+00 0.  1.
        -24    2    1    2    0    0 -0.93199140865E+03 -0.12167414315E+03 -0.30555820294E+03  0.99164802589E+03  0.81162854483E+02 0.  0.
    5000000    2    1    2    0    0  0.93199140865E+03  0.12167414315E+03  0.75921612917E+03  0.13490161069E+04  0.60001895218E+03 0.  0.
        -24    2    4    4    0    0  0.61895759424E+03 -0.18600749511E+03  0.33076201670E+03  0.73044632755E+03  0.80256052948E+02 0.  0.
         24    2    4    4    0    0  0.31303381441E+03  0.30768163826E+03  0.42845411247E+03  0.61856977935E+03  0.79984285631E+02 0.  0.
         11    1    5    5    0    0  0.57650557154E+03 -0.16332715307E+03  0.32585146750E+03  0.68206569465E+03  0.00000000000E+00 0. -1.
        -12    1    5    5    0    0  0.42452022701E+02 -0.22680342044E+02  0.49105492042E+01  0.48380632903E+02  0.00000000000E+00 0.  1.
         15    1    3    3    0    0 -0.40466059951E+03 -0.49484859265E+02 -0.90563717104E+02  0.41761692576E+03  0.17770000000E+01 0. -1.
        -16    1    3    3    0    0 -0.52733080914E+03 -0.72189283885E+02 -0.21499448583E+03  0.57403110013E+03  0.00000000000E+00 0.  1.
          4    1    6    6  502    0  0.22402396042E+03  0.16626710508E+03  0.26233191560E+03  0.38294845478E+03  0.00000000000E+00 0. -1.
         -3    1    6    6    0  502  0.89009853994E+02  0.14141453317E+03  0.16612219687E+03  0.23562132457E+03  0.00000000000E+00 0.  1.
<mgrwt>
<rscale>  0 0.10166659E+04</rscale>
<asrwt>0</asrwt>
<pdfrwt beam="1">  1        1 0.21494785E+00 0.10166659E+04</pdfrwt>
<pdfrwt beam="2">  1       -2 0.14515432E+00 0.10166659E+04</pdfrwt>
<totfact> 0.22025309E+00</totfact>
</mgrwt>
</event>
<event>
12    3  0.1176505E-007  0.8680540E+03  0.7818608E-02  0.9466421E-01
         -2   -1    0    0    0  501 -0.00000000000E+00  0.00000000000E+00  0.61530395365E+03  0.61530395365E+03  0.00000000000E+00 0.  1.
          1   -1    0    0  501    0  0.00000000000E+00 -0.00000000000E+00 -0.28780176374E+04  0.28780176374E+04  0.00000000000E+00 0. -1.
        -24    2    1    2    0    0  0.72197281196E+03  0.27117141827E+03  0.23596737839E+03  0.81042843345E+03  0.79592479457E+02 0.  0.
    5000000    2    1    2    0    0 -0.72197281196E+03 -0.27117141827E+03 -0.24986810621E+04  0.26828931576E+04  0.59977492907E+03 0.  0.
        -24    2    4    4    0    0 -0.25711087484E+03  0.17928179856E+03 -0.77527957228E+03  0.84008150668E+03  0.80190756384E+02 0.  0.
         24    2    4    4    0    0 -0.46486193712E+03 -0.45045321682E+03 -0.17234014898E+04  0.18428116509E+04  0.82688357258E+02 0.  0.
         11    1    5    5    0    0 -0.21467277133E+03  0.14557379300E+03 -0.54590102906E+03  0.60438734391E+03  0.00000000000E+00 0. -1.
        -12    1    5    5    0    0 -0.42438103508E+02  0.33708005554E+02 -0.22937854323E+03  0.23569416277E+03  0.00000000000E+00 0.  1.
         15    1    3    3    0    0  0.47796280332E+03  0.21262688810E+03  0.13777250387E+03  0.54096492997E+03  0.17770000000E+01 0. -1.
        -16    1    3    3    0    0  0.24401000863E+03  0.58544530171E+02  0.98194874520E+02  0.26946350348E+03  0.00000000000E+00 0.  1.
          2    1    6    6  502    0 -0.23112777218E+03 -0.19693462742E+03 -0.91049402646E+03  0.95979303330E+03  0.00000000000E+00 0. -1.
         -1    1    6    6    0  502 -0.23373416494E+03 -0.25351858940E+03 -0.81290746336E+03  0.88301861760E+03  0.00000000000E+00 0.  1.
<mgrwt>
<rscale>  0 0.86805402E+03</rscale>
<asrwt>0</asrwt>
<pdfrwt beam="1">  1        1 0.44277194E+00 0.86805402E+03</pdfrwt>
<pdfrwt beam="2">  1       -2 0.94662148E-01 0.86805402E+03</pdfrwt>
<totfact> 0.63100528E-01</totfact>
</mgrwt>
</event>
<event>
12    3  0.1176505E-007  0.3869561E+03  0.7818608E-02  0.1048392E+00
          1   -1    0    0  501    0  0.00000000000E+00  0.00000000000E+00  0.52089199467E+03  0.52089199467E+03  0.00000000000E+00 0. -1.
         -2   -1    0    0    0  501 -0.00000000000E+00 -0.00000000000E+00 -0.32993438367E+03  0.32993438367E+03  0.00000000000E+00 0.  1.
        -24    2    1    2    0    0  0.38952330486E+02 -0.16606653494E+03 -0.26589613760E+02  0.19030758054E+03  0.80091132928E+02 0.  0.
    5000000    2    1    2    0    0 -0.38952330486E+02  0.16606653494E+03  0.21754722476E+03  0.66051879781E+03  0.59988574677E+03 0.  0.
        -24    2    4    4    0    0  0.11933624542E+03  0.33648857834E+03  0.69795161453E+02  0.37378008884E+03  0.85874835802E+02 0.  0.
         24    2    4    4    0    0 -0.15828857591E+03 -0.17042204340E+03  0.14775206331E+03  0.28673870897E+03  0.79306171691E+02 0.  0.
         13    1    5    5    0    0  0.43233213438E+01  0.15306186093E+02  0.25093972078E+02  0.29709895234E+02  0.00000000000E+00 0. -1.
        -14    1    5    5    0    0  0.11501292408E+03  0.32118239225E+03  0.44701189374E+02  0.34407019360E+03  0.00000000000E+00 0.  1.
         15    1    3    3    0    0  0.12297049538E+02 -0.15157654401E+02  0.22076126920E+02  0.29520925173E+02  0.17770000000E+01 0. -1.
        -16    1    3    3    0    0  0.26655280948E+02 -0.15090888054E+03 -0.48665740680E+02  0.16078665537E+03  0.00000000000E+00 0.  1.
          4    1    6    6  502    0  0.77882407276E+01 -0.13142368832E+02  0.17397362996E+01  0.15375475100E+02  0.00000000000E+00 0. -1.
         -3    1    6    6    0  502 -0.16607681664E+03 -0.15727967457E+03  0.14601232701E+03  0.27136323387E+03  0.00000000000E+00 0.  1.
<mgrwt>
<rscale>  0 0.38695606E+03</rscale>
<asrwt>0</asrwt>
<pdfrwt beam="1">  1        1 0.80137230E-01 0.38695606E+03</pdfrwt>
<pdfrwt beam="2">  1       -2 0.50759136E-01 0.38695606E+03</pdfrwt>
<totfact> 0.13972306E+02</totfact>
</mgrwt>
</event>
<event>
12    3  0.1176505E-007  0.5599260E+03  0.7818608E-02  0.9992222E-01
          1   -1    0    0  501    0  0.00000000000E+00  0.00000000000E+00  0.21265279188E+04  0.21265279188E+04  0.00000000000E+00 0. -1.
         -2   -1    0    0    0  501 -0.00000000000E+00 -0.00000000000E+00 -0.15522581683E+03  0.15522581683E+03  0.00000000000E+00 0.  1.
        -24    2    1    2    0    0  0.22858360488E+03  0.34298661946E+03  0.60677708138E+03  0.73520364215E+03  0.49554852359E+02 0.  0.
    5000000    2    1    2    0    0 -0.22858360488E+03 -0.34298661946E+03  0.13645250206E+04  0.15465500935E+04  0.59999864523E+03 0.  0.
        -24    2    4    4    0    0 -0.40643995701E+03 -0.16531937712E+03  0.68265336162E+03  0.81542485968E+03  0.79863349231E+02 0.  0.
         24    2    4    4    0    0  0.17785635212E+03 -0.17766724234E+03  0.68187165899E+03  0.73112523382E+03  0.79978854714E+02 0.  0.
         11    1    5    5    0    0 -0.73827603499E+02  0.15535273517E+01  0.11551428970E+03  0.13710025387E+03  0.00000000000E+00 0. -1.
        -12    1    5    5    0    0 -0.33261235351E+03 -0.16687290447E+03  0.56713907192E+03  0.67832460581E+03  0.00000000000E+00 0.  1.
         15    1    3    3    0    0  0.16305293055E+03  0.26245500368E+03  0.41862723315E+03  0.52030837509E+03  0.17770000000E+01 0. -1.
        -16    1    3    3    0    0  0.65530674334E+02  0.80531615776E+02  0.18814984822E+03  0.21489526706E+03  0.00000000000E+00 0.  1.
          4    1    6    6  502    0  0.12856724393E+03 -0.79325691726E+02  0.34157879901E+03  0.37349454817E+03  0.00000000000E+00 0. -1.
         -3    1    6    6    0  502  0.49289108189E+02 -0.98341550614E+02  0.34029285998E+03  0.35763068565E+03  0.00000000000E+00 0.  1.
<mgrwt>
<rscale>  0 0.55992605E+03</rscale>
<asrwt>0</asrwt>
<pdfrwt beam="1">  1        1 0.32715812E+00 0.55992605E+03</pdfrwt>
<pdfrwt beam="2">  1       -2 0.23880896E-01 0.55992605E+03</pdfrwt>
<totfact> 0.35624502E+01</totfact>
</mgrwt>
</event>
<event>
12    3  0.1176505E-007  0.1013681E+04  0.7818608E-02  0.9293666E-01
          1   -1    0    0  501    0  0.00000000000E+00  0.00000000000E+00  0.20665611160E+04  0.20665611160E+04  0.00000000000E+00 0. -1.
         -2   -1    0    0    0  501 -0.00000000000E+00 -0.00000000000E+00 -0.50603556150E+03  0.50603556150E+03  0.00000000000E+00 0.  1.
        -24    2    1    2    0    0  0.28223021597E+03  0.88228484289E+03  0.57790730240E+03  0.10948636767E+04  0.81665057322E+02 0.  0.
    5000000    2    1    2    0    0 -0.28223021597E+03 -0.88228484289E+03  0.98261825211E+03  0.14777330008E+04  0.60006312462E+03 0.  0.
        -24    2    4    4    0    0 -0.19598846800E+03 -0.20654123822E+01  0.14358270654E+03  0.25604926051E+03  0.80805226760E+02 0.  0.
         24    2    4    4    0    0 -0.86241747963E+02 -0.88021943050E+03  0.83903554558E+03  0.12216837403E+04  0.79414291362E+02 0.  0.
         13    1    5    5    0    0 -0.56368416290E+02 -0.36912370287E+02  0.36127646579E+02  0.76453438658E+02  0.00000000000E+00 0. -1.
        -14    1    5    5    0    0 -0.13962005171E+03  0.34846957905E+02  0.10745505996E+03  0.17959582185E+03  0.00000000000E+00 0.  1.
         15    1    3    3    0    0  0.15575749918E+03  0.38351018427E+03  0.22764069833E+03  0.47240227059E+03  0.17770000000E+01 0. -1.
        -16    1    3    3    0    0  0.12647271679E+03  0.49877465861E+03  0.35026660406E+03  0.62246140610E+03  0.00000000000E+00 0.  1.
          2    1    6    6  502    0  0.30295675094E+00 -0.37538868289E+03  0.33661587363E+03  0.50420928333E+03  0.00000000000E+00 0. -1.
         -1    1    6    6    0  502 -0.86544704714E+02 -0.50483074762E+03  0.50241967195E+03  0.71747445698E+03  0.00000000000E+00 0.  1.
<mgrwt>
<rscale>  0 0.10136812E+04</rscale>
<asrwt>0</asrwt>
<pdfrwt beam="1">  1        1 0.31793247E+00 0.10136812E+04</pdfrwt>
<pdfrwt beam="2">  1       -2 0.77851626E-01 0.10136812E+04</pdfrwt>
<totfact> 0.34874960E+00</totfact>
</mgrwt>
</event>
<event>
12    3  0.1176505E-007  0.1280353E+04  0.7818608E-02  0.9045292E-01
          1   -1    0    0  501    0  0.00000000000E+00  0.00000000000E+00  0.41501162311E+03  0.41501162311E+03  0.00000000000E+00 0. -1.
         -2   -1    0    0    0  501 -0.00000000000E+00 -0.00000000000E+00 -0.43413249980E+04  0.43413249980E+04  0.00000000000E+00 0.  1.
        -24    2    1    2    0    0 -0.90374668444E+03 -0.88659087670E+03 -0.21267291224E+04  0.24757340563E+04  0.58999194441E+02 0.  0.
    5000000    2    1    2    0    0  0.90374668444E+03  0.88659087670E+03 -0.17995842524E+04  0.22806025648E+04  0.59986925631E+03 0.  0.
        -24    2    4    4    0    0  0.12095023388E+03  0.48344664601E+02 -0.60051418228E+03  0.61948454540E+03  0.78598048336E+02 0.  0.
         24    2    4    4    0    0  0.78279645055E+03  0.83824621210E+03 -0.11990700701E+04  0.16611180194E+04  0.78211547128E+02 0.  0.
         13    1    5    5    0    0  0.69408133019E+02  0.61986338939E+02 -0.29425990175E+03  0.30862385670E+03  0.00000000000E+00 0. -1.
        -14    1    5    5    0    0  0.51542100862E+02 -0.13641674339E+02 -0.30625428053E+03  0.31086068870E+03  0.00000000000E+00 0.  1.
         15    1    3    3    0    0 -0.20064554847E+03 -0.16394122968E+03 -0.42818326722E+03  0.50047920133E+03  0.17770000000E+01 0. -1.
        -16    1    3    3    0    0 -0.70310113596E+03 -0.72264964702E+03 -0.16985458552E+04  0.19752548549E+04  0.00000000000E+00 0.  1.
          4    1    6    6  502    0  0.46754221372E+02  0.46560484567E+02 -0.97694865810E+02  0.11789029962E+03  0.00000000000E+00 0. -1.
         -3    1    6    6    0  502  0.73604222918E+03  0.79168572753E+03 -0.11013752043E+04  0.15432277198E+04  0.00000000000E+00 0.  1.
<mgrwt>
<rscale>  0 0.12803527E+04</rscale>
<asrwt>0</asrwt>
<pdfrwt beam="1">  1        1 0.63847944E-01 0.12803527E+04</pdfrwt>
<pdfrwt beam="2">  1       -2 0.66789613E+00 0.12803527E+04</pdfrwt>
<totfact> 0.14096522E-02</totfact>
</mgrwt>
</event>
<event>
12    3  0.1176505E-007  0.7979656E+03  0.7818608E-02  0.9562967E-01
          1   -1    0    0  501    0  0.00000000000E+00  0.00000000000E+00  0.31276438782E+04  0.31276438782E+04  0.00000000000E+00 0. -1.
         -2   -1    0    0    0  501 -0.00000000000E+00 -0.00000000000E+00 -0.32668186764E+03  0.32668186764E+03  0.00000000000E+00 0.  1.
        -24    2    1    2    0    0 -0.92909900254E+02  0.74167807630E+03  0.21952269861E+04  0.23204182247E+04  0.81244066971E+02 0.  0.
    5000000    2    1    2    0    0  0.92909900254E+02 -0.74167807630E+03  0.60573502445E+03  0.11339075212E+04  0.60009393287E+03 0.  0.
        -24    2    4    4    0    0  0.23724183539E+03 -0.39249499982E+03  0.68566680809E+02  0.47052913897E+03  0.79751285626E+02 0.  0.
         24    2    4    4    0    0 -0.14433193514E+03 -0.34918307648E+03  0.53716834364E+03  0.66337838219E+03  0.93597650313E+02 0.  0.
         13    1    5    5    0    0  0.14569057323E+03 -0.30138945313E+03  0.66818077734E+02  0.34135905012E+03  0.00000000000E+00 0. -1.
        -14    1    5    5    0    0  0.91551262163E+02 -0.91105546694E+02  0.17486030740E+01  0.12917008885E+03  0.00000000000E+00 0.  1.
         15    1    3    3    0    0 -0.60641544717E+02  0.63133413593E+03  0.19236201015E+04  0.20254820761E+04  0.17770000000E+01 0. -1.
        -16    1    3    3    0    0 -0.32268355536E+02  0.11034394038E+03  0.27160688469E+03  0.29493614861E+03  0.00000000000E+00 0.  1.
          4    1    6    6  502    0 -0.61781357187E+01 -0.80052579981E+02  0.68428843887E+02  0.10549450980E+03  0.00000000000E+00 0. -1.
         -3    1    6    6    0  502 -0.13815379942E+03 -0.26913049650E+03  0.46873949975E+03  0.55788387239E+03  0.00000000000E+00 0.  1.
<mgrwt>
<rscale>  0 0.79796557E+03</rscale>
<asrwt>0</asrwt>
<pdfrwt beam="1">  1        1 0.48117596E+00 0.79796557E+03</pdfrwt>
<pdfrwt beam="2">  1       -2 0.50258751E-01 0.79796557E+03</pdfrwt>
<totfact> 0.16841803E+00</totfact>
</mgrwt>
</event>
<event>
12    3  0.1176505E-007  0.6692268E+03  0.7818608E-02  0.9771356E-01
         -2   -1    0    0    0  501 -0.00000000000E+00  0.00000000000E+00  0.13132185704E+04  0.13132185704E+04  0.00000000000E+00 0.  1.
          1   -1    0    0  501    0  0.00000000000E+00 -0.00000000000E+00 -0.72586450487E+03  0.72586450487E+03  0.00000000000E+00 0. -1.
        -24    2    1    2    0    0  0.52369571120E+03 -0.17979705927E+03  0.98356237511E+03  0.11315441975E+04  0.80082112742E+02 0.  0.
    5000000    2    1    2    0    0 -0.52369571120E+03  0.17979705927E+03 -0.39620830955E+03  0.90753887778E+03  0.60005133920E+03 0.  0.
        -24    2    4    4    0    0  0.22157549057E+01 -0.15770223005E+03 -0.14743222561E+03  0.22981690804E+03  0.78769582592E+02 0.  0.
         24    2    4    4    0    0 -0.52591146611E+03  0.33749928932E+03 -0.24877608394E+03  0.67772196974E+03  0.83239941442E+02 0.  0.
         13    1    5    5    0    0  0.43277815119E+01 -0.65839322231E+02 -0.13426359531E+02  0.67333596183E+02  0.00000000000E+00 0. -1.
        -14    1    5    5    0    0 -0.21120266062E+01 -0.91862907815E+02 -0.13400586608E+03  0.16248331186E+03  0.00000000000E+00 0.  1.
         15    1    3    3    0    0  0.17390393261E+03 -0.42486009027E+02  0.38846675078E+03  0.42773497979E+03  0.17770000000E+01 0. -1.
        -16    1    3    3    0    0  0.34979177859E+03 -0.13731105025E+03  0.59509562433E+03  0.70380921775E+03  0.00000000000E+00 0.  1.
          2    1    6    6  502    0 -0.13298337778E+03  0.68449433388E+02 -0.25346858316E+02  0.15169827594E+03  0.00000000000E+00 0. -1.
         -1    1    6    6    0  502 -0.39292808833E+03  0.26904985593E+03 -0.22342922562E+03  0.52602369380E+03  0.00000000000E+00 0.  1.
<mgrwt>
<rscale>  0 0.66922679E+03</rscale>
<asrwt>0</asrwt>
<pdfrwt beam="1">  1        1 0.11167146E+00 0.66922679E+03</pdfrwt>
<pdfrwt beam="2">  1       -2 0.20203363E+00 0.66922679E+03</pdfrwt>
<totfact> 0.30302897E+00</totfact>
</mgrwt>
</event>
<event>
12    3  0.1176505E-007  0.3898250E+03  0.7818608E-02  0.1047361E+00
         -2   -1    0    0    0  501 -0.00000000000E+00  0.00000000000E+00  0.19516298872E+03  0.19516298872E+03  0.00000000000E+00 0.  1.
          1   -1    0    0  501    0  0.00000000000E+00 -0.00000000000E+00 -0.12581795912E+04  0.12581795912E+04  0.00000000000E+00 0. -1.
        -24    2    1    2    0    0  0.27320884267E+03  0.11934246253E+03 -0.23184501957E+03  0.38598630482E+03  0.79671948216E+02 0.  0.
    5000000    2    1    2    0    0 -0.27320884267E+03 -0.11934246253E+03 -0.83117158294E+03  0.10673562751E+04  0.59959780078E+03 0.  0.
        -24    2    4    4    0    0 -0.19005113902E+03  0.10085937397E+03 -0.78206483071E+03  0.81507089227E+03  0.80144314991E+02 0.  0.
         24    2    4    4    0    0 -0.83157703654E+02 -0.22020183651E+03 -0.49106752228E+02  0.25228538287E+03  0.76370078009E+02 0.  0.
         13    1    5    5    0    0 -0.91013064313E+02  0.92685858679E+02 -0.42153312214E+03  0.44109434290E+03  0.00000000000E+00 0. -1.
        -14    1    5    5    0    0 -0.99038074704E+02  0.81735152960E+01 -0.36053170858E+03  0.37397654937E+03  0.00000000000E+00 0.  1.
         15    1    3    3    0    0  0.17473796809E+03  0.40810215178E+02 -0.10851688480E+03  0.20970909177E+03  0.17770000000E+01 0. -1.
        -16    1    3    3    0    0  0.98470874582E+02  0.78532247354E+02 -0.12332813477E+03  0.17627721305E+03  0.00000000000E+00 0.  1.
          4    1    6    6  502    0  0.67726667880E+01 -0.66896717843E+02  0.22578942400E+01  0.67276578093E+02  0.00000000000E+00 0. -1.
         -3    1    6    6    0  502 -0.89930370441E+02 -0.15330511866E+03 -0.51364646468E+02  0.18500880477E+03  0.00000000000E+00 0.  1.
<mgrwt>
<rscale>  0 0.38982499E+03</rscale>
<asrwt>0</asrwt>
<pdfrwt beam="1">  1        1 0.19356608E+00 0.38982499E+03</pdfrwt>
<pdfrwt beam="2">  1       -2 0.30025076E-01 0.38982499E+03</pdfrwt>
<totfact> 0.92522713E+01</totfact>
</mgrwt>
</event>
<event>
12    3  0.1264764E-007  0.1369374E+04  0.7818608E-02  0.8976291E-01
          1   -1    0    0  501    0  0.00000000000E+00  0.00000000000E+00  0.17481982330E+04  0.17481982330E+04  0.00000000000E+00 0. -1.
         -2   -1    0    0    0  501 -0.00000000000E+00 -0.00000000000E+00 -0.11154119967E+04  0.11154119967E+04  0.00000000000E+00 0.  1.
        -24    2    1    2    0    0 -0.80530602964E+03  0.10263891562E+04  0.57072872304E+03  0.14263520383E+04  0.82197082264E+02 0.  0.
    5000000    2    1    2    0    0  0.80530602964E+03 -0.10263891562E+04  0.62057513340E+02  0.14372581914E+04  0.59988955028E+03 0.  0.
        -24    2    4    4    0    0  0.13576413345E+03 -0.63595148317E+03  0.53139350894E+02  0.65745776426E+03  0.80998347546E+02 0.  0.
         24    2    4    4    0    0  0.66954189619E+03 -0.39043767306E+03  0.89181624460E+01  0.77980042718E+03  0.85330213399E+02 0.  0.
         13    1    5    5    0    0  0.51034314485E+02 -0.40404567424E+03  0.14176063411E+02  0.40750259987E+03  0.00000000000E+00 0. -1.
        -14    1    5    5    0    0  0.84729818966E+02 -0.23190580892E+03  0.38963287483E+02  0.24995516439E+03  0.00000000000E+00 0.  1.
         15    1    3    3    0    0 -0.45246915529E+03  0.61933846862E+03  0.36865994926E+03  0.85101221561E+03  0.17770000000E+01 0. -1.
        -16    1    3    3    0    0 -0.35283687435E+03  0.40705068761E+03  0.20206877379E+03  0.57533982265E+03  0.00000000000E+00 0.  1.
          4    1    6    6  502    0  0.55375938819E+03 -0.28739908192E+03 -0.74910362308E+01  0.62394215110E+03  0.00000000000E+00 0. -1.
         -3    1    6    6    0  502  0.11578250800E+03 -0.10303859114E+03  0.16409198677E+02  0.15585827609E+03  0.00000000000E+00 0.  1.
<mgrwt>
<rscale>  0 0.13693735E+04</rscale>
<asrwt>0</asrwt>
<pdfrwt beam="1">  1        1 0.26895357E+00 0.13693735E+04</pdfrwt>
<pdfrwt beam="2">  1       -2 0.17160185E+00 0.13693735E+04</pdfrwt>
<totfact> 0.77016101E-01</totfact>
</mgrwt>
</event>
<event>
12    3  0.1176505E-007  0.1417853E+04  0.7818608E-02  0.8940996E-01
         -2   -1    0    0    0  501 -0.00000000000E+00  0.00000000000E+00  0.61991720635E+03  0.61991720635E+03  0.00000000000E+00 0.  1.
          1   -1    0    0  501    0  0.00000000000E+00 -0.00000000000E+00 -0.35795121676E+04  0.35795121676E+04  0.00000000000E+00 0. -1.
        -24    2    1    2    0    0 -0.69186265075E+02  0.13568651212E+04 -0.80043735004E+03  0.15787671272E+04  0.77045404115E+02 0.  0.
    5000000    2    1    2    0    0  0.69186265075E+02 -0.13568651212E+04 -0.21591576112E+04  0.26206622467E+04  0.60003276999E+03 0.  0.
        -24    2    4    4    0    0  0.30454031594E+03 -0.10102126442E+04 -0.15706076640E+04  0.18937850829E+04  0.79618563579E+02 0.  0.
         24    2    4    4    0    0 -0.23535405086E+03 -0.34665247698E+03 -0.58854994721E+03  0.72687716378E+03  0.79999386337E+02 0.  0.
         13    1    5    5    0    0  0.22399669230E+03 -0.64982040462E+03 -0.10689608673E+04  0.12708730906E+04  0.00000000000E+00 0. -1.
        -14    1    5    5    0    0  0.80543623640E+02 -0.36039223958E+03 -0.50164679662E+03  0.62291199235E+03  0.00000000000E+00 0.  1.
         15    1    3    3    0    0 -0.66834447209E+02  0.13396952178E+04 -0.77884852860E+03  0.15510829469E+04  0.17770000000E+01 0. -1.
        -16    1    3    3    0    0 -0.23518178660E+01  0.17169903416E+02 -0.21588821433E+02  0.27684180347E+02  0.00000000000E+00 0.  1.
          2    1    6    6  502    0 -0.15300776091E+03 -0.19548869274E+03 -0.40667664877E+03  0.47645891801E+03  0.00000000000E+00 0. -1.
         -1    1    6    6    0  502 -0.82346289946E+02 -0.15116378424E+03 -0.18187329844E+03  0.25041824578E+03  0.00000000000E+00 0.  1.
<mgrwt>
<rscale>  0 0.14178525E+04</rscale>
<asrwt>0</asrwt>
<pdfrwt beam="1">  1        1 0.55069418E+00 0.14178525E+04</pdfrwt>
<pdfrwt beam="2">  1       -2 0.95371879E-01 0.14178525E+04</pdfrwt>
<totfact> 0.17038836E-01</totfact>
</mgrwt>
</event>
<event>
12    3  0.1176505E-007  0.1744924E+04  0.7818608E-02  0.8736149E-01
         -2   -1    0    0    0  501 -0.00000000000E+00  0.00000000000E+00  0.11102923366E+04  0.11102923366E+04  0.00000000000E+00 0.  1.
          1   -1    0    0  501    0  0.00000000000E+00 -0.00000000000E+00 -0.33630819521E+04  0.33630819521E+04  0.00000000000E+00 0. -1.
        -24    2    1    2    0    0  0.16276805247E+04 -0.51646223355E+03 -0.20232867027E+04  0.26488161352E+04  0.80378528538E+02 0.  0.
    5000000    2    1    2    0    0 -0.16276805247E+04  0.51646223355E+03 -0.22950291278E+03  0.18245581534E+04  0.60021974229E+03 0.  0.
        -24    2    4    4    0    0 -0.16235145516E+04  0.48170246727E+03 -0.14314260570E+03  0.17013906041E+04  0.80021348206E+02 0.  0.
         24    2    4    4    0    0 -0.41659731291E+01  0.34759766275E+02 -0.86360307085E+02  0.12316754927E+03  0.80539095285E+02 0.  0.
         11    1    5    5    0    0 -0.96540404928E+03  0.26005927591E+03 -0.11471677825E+03  0.10063775358E+04  0.00000000000E+00 0. -1.
        -12    1    5    5    0    0 -0.65811050227E+03  0.22164319136E+03 -0.28425827448E+02  0.69501306833E+03  0.00000000000E+00 0.  1.
         15    1    3    3    0    0  0.26396920138E+03 -0.74102831995E+02 -0.36958955028E+03  0.46018535656E+03  0.17770000000E+01 0. -1.
        -16    1    3    3    0    0  0.13637113233E+04 -0.44235940155E+03 -0.16536971524E+04  0.21886307787E+04  0.00000000000E+00 0.  1.
          2    1    6    6  502    0 -0.62068336707E+00 -0.26443777491E+02 -0.28170941824E+02  0.38642729964E+02  0.00000000000E+00 0. -1.
         -1    1    6    6    0  502 -0.35452897621E+01  0.61203543766E+02 -0.58189365261E+02  0.84524819304E+02  0.00000000000E+00 0.  1.
<mgrwt>
<rscale>  0 0.17449244E+04</rscale>
<asrwt>0</asrwt>
<pdfrwt beam="1">  1        1 0.51739722E+00 0.17449244E+04</pdfrwt>
<pdfrwt beam="2">  1       -2 0.17081421E+00 0.17449244E+04</pdfrwt>
<totfact> 0.54323789E-02</totfact>
</mgrwt>
</event>
<event>
12    3  0.1176505E-007  0.1012648E+04  0.7818608E-02  0.9294781E-01
         -2   -1    0    0    0  501 -0.00000000000E+00  0.00000000000E+00  0.18685696980E+04  0.18685696980E+04  0.00000000000E+00 0.  1.
          1   -1    0    0  501    0  0.00000000000E+00 -0.00000000000E+00 -0.60790308369E+03  0.60790308369E+03  0.00000000000E+00 0. -1.
        -24    2    1    2    0    0  0.90049936208E+03 -0.24517967990E+03  0.92718996649E+03  0.13179676622E+04  0.79657692762E+02 0.  0.
    5000000    2    1    2    0    0 -0.90049936208E+03  0.24517967990E+03  0.33347664781E+03  0.11585051195E+04  0.59992937983E+03 0.  0.
        -24    2    4    4    0    0 -0.27455975203E+03 -0.17873075738E+03  0.23248932027E+02  0.33751099021E+03  0.77752264321E+02 0.  0.
         24    2    4    4    0    0 -0.62593961004E+03  0.42391043727E+03  0.31022771578E+03  0.82099412930E+03  0.79307442668E+02 0.  0.
         13    1    5    5    0    0 -0.13106075604E+03 -0.11372348830E+03 -0.18583555233E+02  0.17451447530E+03  0.00000000000E+00 0. -1.
        -14    1    5    5    0    0 -0.14349899599E+03 -0.65007269079E+02  0.41832487260E+02  0.16299651491E+03  0.00000000000E+00 0.  1.
         15    1    3    3    0    0  0.59479976340E+03 -0.13174361392E+03  0.56934003595E+03  0.83384313430E+03  0.17770000000E+01 0. -1.
        -16    1    3    3    0    0  0.30569959867E+03 -0.11343606597E+03  0.35784993054E+03  0.48412452786E+03  0.00000000000E+00 0.  1.
          2    1    6    6  502    0 -0.52649077514E+03  0.38464717257E+03  0.25028649023E+03  0.69841915127E+03  0.00000000000E+00 0. -1.
         -1    1    6    6    0  502 -0.99448834904E+02  0.39263264706E+02  0.59941225552E+02  0.12257497803E+03  0.00000000000E+00 0.  1.
<mgrwt>
<rscale>  0 0.10126478E+04</rscale>
<asrwt>0</asrwt>
<pdfrwt beam="1">  1        1 0.93523553E-01 0.10126478E+04</pdfrwt>
<pdfrwt beam="2">  1       -2 0.28747226E+00 0.10126478E+04</pdfrwt>
<totfact> 0.11226141E+00</totfact>
</mgrwt>
</event>
<event>
12    3  0.1176505E-007  0.9363684E+03  0.7818608E-02  0.9381227E-01
          1   -1    0    0  501    0  0.00000000000E+00  0.00000000000E+00  0.28661350473E+04  0.28661350473E+04  0.00000000000E+00 0. -1.
         -2   -1    0    0    0  501 -0.00000000000E+00 -0.00000000000E+00 -0.54819973070E+03  0.54819973070E+03  0.00000000000E+00 0.  1.
        -24    2    1    2    0    0 -0.69605914640E+03  0.60415574979E+03  0.89968454421E+02  0.92961606895E+03  0.81173934055E+02 0.  0.
    5000000    2    1    2    0    0  0.69605914640E+03 -0.60415574979E+03  0.22279668622E+04  0.24847187091E+04  0.60040671124E+03 0.  0.
        -24    2    4    4    0    0  0.89118770810E+02 -0.68934350554E+02  0.10152939795E+04  0.10246140298E+04  0.79485503034E+02 0.  0.
         24    2    4    4    0    0  0.60694037559E+03 -0.53522139923E+03  0.12126728827E+04  0.14601046793E+04  0.80570393927E+02 0.  0.
         13    1    5    5    0    0 -0.24210165346E+01 -0.40387045837E+02  0.37569165986E+03  0.37786399416E+03  0.00000000000E+00 0. -1.
        -14    1    5    5    0    0  0.91539787345E+02 -0.28547304716E+02  0.63960231966E+03  0.64675003564E+03  0.00000000000E+00 0.  1.
         15    1    3    3    0    0 -0.42362957168E+03  0.32331598959E+03  0.73962783953E+02  0.53802313543E+03  0.17770000000E+01 0. -1.
        -16    1    3    3    0    0 -0.27242957472E+03  0.28083976020E+03  0.16005670468E+02  0.39159293352E+03  0.00000000000E+00 0.  1.
          4    1    6    6  502    0  0.19556488546E+03 -0.21697621173E+03  0.47152203018E+03  0.55466866310E+03  0.00000000000E+00 0. -1.
         -3    1    6    6    0  502  0.41137549013E+03 -0.31824518750E+03  0.74115085249E+03  0.90543601618E+03  0.00000000000E+00 0.  1.
<mgrwt>
<rscale>  0 0.93636845E+03</rscale>
<asrwt>0</asrwt>
<pdfrwt beam="1">  1        1 0.44094385E+00 0.93636845E+03</pdfrwt>
<pdfrwt beam="2">  1       -2 0.84338422E-01 0.93636845E+03</pdfrwt>
<totfact> 0.83012240E-01</totfact>
</mgrwt>
</event>
<event>
12    3  0.1176505E-007  0.5937881E+03  0.7818608E-02  0.9918378E-01
         -2   -1    0    0    0  501 -0.00000000000E+00  0.00000000000E+00  0.62686694520E+03  0.62686694520E+03  0.00000000000E+00 0.  1.
          1   -1    0    0  501    0  0.00000000000E+00 -0.00000000000E+00 -0.66402751619E+03  0.66402751619E+03  0.00000000000E+00 0. -1.
        -24    2    1    2    0    0  0.57551859214E+02  0.45025694077E+03  0.19950993194E+03  0.50218690672E+03  0.79648899087E+02 0.  0.
    5000000    2    1    2    0    0 -0.57551859214E+02 -0.45025694077E+03 -0.23667050293E+03  0.78870755468E+03  0.60000262553E+03 0.  0.
        -24    2    4    4    0    0 -0.73706389417E+02  0.12791039923E+03 -0.64973984876E+02  0.18011280760E+03  0.80157985747E+02 0.  0.
         24    2    4    4    0    0  0.16154530203E+02 -0.57816734000E+03 -0.17169651806E+03  0.60859474708E+03  0.79808708584E+02 0.  0.
         11    1    5    5    0    0 -0.18323870280E+02  0.77467781838E+02  0.19963465235E+01  0.79630439182E+02  0.00000000000E+00 0. -1.
        -12    1    5    5    0    0 -0.55382519136E+02  0.50442617395E+02 -0.66970331400E+02  0.10048236842E+03  0.00000000000E+00 0.  1.
         15    1    3    3    0    0  0.12973856657E+02  0.17065897571E+03  0.11683027760E+03  0.20723242613E+03  0.17770000000E+01 0. -1.
        -16    1    3    3    0    0  0.44578002557E+02  0.27959796506E+03  0.82679654347E+02  0.29495448059E+03  0.00000000000E+00 0.  1.
          2    1    6    6  502    0  0.12670523600E+02 -0.13606841348E+03 -0.75542280949E+02  0.15614669874E+03  0.00000000000E+00 0. -1.
         -1    1    6    6    0  502  0.34840066034E+01 -0.44209892652E+03 -0.96154237110E+02  0.45244804834E+03  0.00000000000E+00 0.  1.
<mgrwt>
<rscale>  0 0.59378813E+03</rscale>
<asrwt>0</asrwt>
<pdfrwt beam="1">  1        1 0.10215808E+00 0.59378813E+03</pdfrwt>
<pdfrwt beam="2">  1       -2 0.96441069E-01 0.59378813E+03</pdfrwt>
<totfact> 0.24068161E+01</totfact>
</mgrwt>
</event>
<event>
12    3  0.1176505E-007  0.9412554E+03  0.7818608E-02  0.9375430E-01
          3   -1    0    0  501    0  0.00000000000E+00  0.00000000000E+00  0.12868269192E+04  0.12868269192E+04  0.00000000000E+00 0. -1.
         -4   -1    0    0    0  501 -0.00000000000E+00 -0.00000000000E+00 -0.70411860239E+03  0.70411860239E+03  0.00000000000E+00 0.  1.
        -24    2    1    2    0    0 -0.83097431616E+03 -0.17049511090E+03  0.14873943708E+03  0.86491586892E+03  0.79806912022E+02 0.  0.
    5000000    2    1    2    0    0  0.83097431616E+03  0.17049511090E+03  0.43396887970E+03  0.11260296526E+04  0.60002241051E+03 0.  0.
        -24    2    4    4    0    0  0.27419260078E+03  0.34657571376E+03  0.19701786116E+03  0.49065547162E+03  0.81427553849E+02 0.  0.
         24    2    4    4    0    0  0.55678171538E+03 -0.17608060287E+03  0.23695101854E+03  0.63537418101E+03  0.80896893760E+02 0.  0.
         11    1    5    5    0    0  0.37981539262E+02  0.46199153740E+02 -0.19323372202E+01  0.59838892521E+02  0.00000000000E+00 0. -1.
        -12    1    5    5    0    0  0.23621106152E+03  0.30037656002E+03  0.19895019838E+03  0.43081657910E+03  0.00000000000E+00 0.  1.
         15    1    3    3    0    0 -0.62741671803E+03 -0.16340842825E+03  0.11311268206E+03  0.65814260542E+03  0.17770000000E+01 0. -1.
        -16    1    3    3    0    0 -0.20355759813E+03 -0.70866826417E+01  0.35626755012E+02  0.20677326350E+03  0.00000000000E+00 0.  1.
          2    1    6    6  502    0  0.35189633855E+03 -0.73814236459E+02  0.12669775450E+03  0.38122420645E+03  0.00000000000E+00 0. -1.
         -1    1    6    6    0  502  0.20488537684E+03 -0.10226636641E+03  0.11025326404E+03  0.25414997457E+03  0.00000000000E+00 0.  1.
<mgrwt>
<rscale>  0 0.94125541E+03</rscale>
<asrwt>0</asrwt>
<pdfrwt beam="1">  1        3 0.19797337E+00 0.94125541E+03</pdfrwt>
<pdfrwt beam="2">  1       -4 0.10832594E+00 0.94125541E+03</pdfrwt>
<totfact> 0.23009545E-01</totfact>
</mgrwt>
</event>
<event>
12    3  0.1176505E-007  0.7120651E+03  0.7818608E-02  0.9696819E-01
          1   -1    0    0  501    0  0.00000000000E+00  0.00000000000E+00  0.20114096750E+04  0.20114096750E+04  0.00000000000E+00 0. -1.
         -2   -1    0    0    0  501 -0.00000000000E+00 -0.00000000000E+00 -0.40198393706E+03  0.40198393706E+03  0.00000000000E+00 0.  1.
        -24    2    1    2    0    0 -0.46375262573E+03  0.51073360821E+03  0.12544348034E+04  0.14326119287E+04  0.53431692060E+02 0.  0.
    5000000    2    1    2    0    0  0.46375262573E+03 -0.51073360821E+03  0.35499093454E+03  0.98078168340E+03  0.59999902537E+03 0.  0.
        -24    2    4    4    0    0  0.25132628327E+03 -0.11127599951E+03 -0.12843172748E+03  0.31377414949E+03  0.80076585427E+02 0.  0.
         24    2    4    4    0    0  0.21242634246E+03 -0.39945760870E+03  0.48342266202E+03  0.66700753391E+03  0.80686107946E+02 0.  0.
         13    1    5    5    0    0  0.19216752310E+03 -0.10136174937E+03 -0.65696864144E+02  0.22697717754E+03  0.00000000000E+00 0. -1.
        -14    1    5    5    0    0  0.59158760178E+02 -0.99142501478E+01 -0.62734863332E+02  0.86796971946E+02  0.00000000000E+00 0.  1.
         15    1    3    3    0    0 -0.22132296982E+03  0.21271419080E+03  0.52343024968E+03  0.60680603815E+03  0.17770000000E+01 0. -1.
        -16    1    3    3    0    0 -0.24242965592E+03  0.29801941742E+03  0.73100455373E+03  0.82580589051E+03  0.00000000000E+00 0.  1.
          2    1    6    6  502    0  0.37121955480E+02 -0.12214272811E+03  0.98515351464E+02  0.16125185296E+03  0.00000000000E+00 0. -1.
         -1    1    6    6    0  502  0.17530438698E+03 -0.27731488059E+03  0.38490731056E+03  0.50575568095E+03  0.00000000000E+00 0.  1.
<mgrwt>
<rscale>  0 0.71206505E+03</rscale>
<asrwt>0</asrwt>
<pdfrwt beam="1">  1        1 0.30944764E+00 0.71206505E+03</pdfrwt>
<pdfrwt beam="2">  1       -2 0.61843684E-01 0.71206505E+03</pdfrwt>
<totfact> 0.65501783E+00</totfact>
</mgrwt>
</event>
<event>
12    3  0.1176505E-007  0.6022976E+03  0.7818608E-02  0.9900651E-01
          1   -1    0    0  501    0  0.00000000000E+00  0.00000000000E+00  0.20835202030E+04  0.20835202030E+04  0.00000000000E+00 0. -1.
         -2   -1    0    0    0  501 -0.00000000000E+00 -0.00000000000E+00 -0.45547343053E+03  0.45547343053E+03  0.00000000000E+00 0.  1.
        -24    2    1    2    0    0 -0.49822528847E+03  0.22600897497E+03  0.16361713998E+04  0.17269817777E+04  0.78107081502E+02 0.  0.
    5000000    2    1    2    0    0  0.49822528847E+03 -0.22600897497E+03 -0.81246273336E+01  0.81201185581E+03  0.59999062457E+03 0.  0.
        -24    2    4    4    0    0 -0.21499387126E+02 -0.84681897517E+02  0.19659767124E+03  0.22971002311E+03  0.80515855373E+02 0.  0.
         24    2    4    4    0    0  0.51972467559E+03 -0.14132707746E+03 -0.20472229858E+03  0.58230183269E+03  0.84125641633E+02 0.  0.
         13    1    5    5    0    0 -0.48017348621E+02 -0.74216698799E+02  0.16475349143E+03  0.18696924102E+03  0.00000000000E+00 0. -1.
        -14    1    5    5    0    0  0.26517961494E+02 -0.10465198718E+02  0.31844179817E+02  0.42740782097E+02  0.00000000000E+00 0.  1.
         15    1    3    3    0    0 -0.21358257948E+03  0.11161118277E+03  0.83519199948E+03  0.86926601688E+03  0.17770000000E+01 0. -1.
        -16    1    3    3    0    0 -0.28464270899E+03  0.11439779220E+03  0.80097940034E+03  0.85771576085E+03  0.00000000000E+00 0.  1.
          2    1    6    6  502    0  0.33204997239E+02  0.32175184800E+00 -0.34173769576E+02  0.47649993630E+02  0.00000000000E+00 0. -1.
         -1    1    6    6    0  502  0.48651967836E+03 -0.14164882930E+03 -0.17054852900E+03  0.53465183906E+03  0.00000000000E+00 0.  1.
<mgrwt>
<rscale>  0 0.60229755E+03</rscale>
<asrwt>0</asrwt>
<pdfrwt beam="1">  1        1 0.32054156E+00 0.60229755E+03</pdfrwt>
<pdfrwt beam="2">  1       -2 0.70072837E-01 0.60229755E+03</pdfrwt>
<totfact> 0.45746226E+00</totfact>
</mgrwt>
</event>
<event>
12    3  0.1176505E-007  0.3642125E+03  0.7818608E-02  0.1056928E+00
          1   -1    0    0  501    0  0.00000000000E+00  0.00000000000E+00  0.11829251955E+03  0.11829251955E+03  0.00000000000E+00 0. -1.
         -2   -1    0    0    0  501 -0.00000000000E+00 -0.00000000000E+00 -0.12597305091E+04  0.12597305091E+04  0.00000000000E+00 0.  1.
        -24    2    1    2    0    0  0.12996405742E+03  0.25814736165E+02 -0.27451719889E+03  0.31543450658E+03  0.81130626941E+02 0.  0.
    5000000    2    1    2    0    0 -0.12996405742E+03 -0.25814736165E+02 -0.86692079069E+03  0.10625885221E+04  0.59998804418E+03 0.  0.
        -24    2    4    4    0    0 -0.32108458888E+03 -0.13373036174E+03 -0.37298627266E+03  0.51624264068E+03  0.80053616996E+02 0.  0.
         24    2    4    4    0    0  0.19112053146E+03  0.10791562557E+03 -0.49393451803E+03  0.54634588143E+03  0.79684843393E+02 0.  0.
         13    1    5    5    0    0 -0.11663228884E+03 -0.41704216941E+02 -0.19015362143E+03  0.22693772770E+03  0.00000000000E+00 0. -1.
        -14    1    5    5    0    0 -0.20445230004E+03 -0.92026144794E+02 -0.18283265124E+03  0.28930491298E+03  0.00000000000E+00 0.  1.
         15    1    3    3    0    0  0.57688438150E+02  0.47792244480E+02 -0.97480145717E+02  0.12295361348E+03  0.17770000000E+01 0. -1.
        -16    1    3    3    0    0  0.72275619273E+02 -0.21977508315E+02 -0.17703705318E+03  0.19248089310E+03  0.00000000000E+00 0.  1.
          2    1    6    6  502    0  0.11399441640E+03  0.10123817319E+03 -0.37052063062E+03  0.40066124395E+03  0.00000000000E+00 0. -1.
         -1    1    6    6    0  502  0.77126115058E+02  0.66774523757E+01 -0.12341388740E+03  0.14568463748E+03  0.00000000000E+00 0.  1.
<mgrwt>
<rscale>  0 0.36421247E+03</rscale>
<asrwt>0</asrwt>
<pdfrwt beam="1">  1        1 0.18198850E-01 0.36421247E+03</pdfrwt>
<pdfrwt beam="2">  1       -2 0.19380469E+00 0.36421247E+03</pdfrwt>
<totfact> 0.39761175E+01</totfact>
</mgrwt>
</event>
<event>
12    3  0.1176505E-007  0.3426944E+03  0.7818608E-02  0.1065654E+00
         -2   -1    0    0    0  501 -0.00000000000E+00  0.00000000000E+00  0.23813463520E+03  0.23813463520E+03  0.00000000000E+00 0.  1.
          1   -1    0    0  501    0  0.00000000000E+00 -0.00000000000E+00 -0.10807315889E+04  0.10807315889E+04  0.00000000000E+00 0. -1.
        -24    2    1    2    0    0  0.13783303170E+03  0.12766991067E+03 -0.61774304409E+03  0.65079292139E+03  0.81408889524E+02 0.  0.
    5000000    2    1    2    0    0 -0.13783303170E+03 -0.12766991067E+03 -0.22485390962E+03  0.66807330272E+03  0.60038746358E+03 0.  0.
        -24    2    4    4    0    0 -0.79662508619E+00  0.15809828581E+03 -0.29062616483E+03  0.33758747259E+03  0.67126979481E+02 0.  0.
         24    2    4    4    0    0 -0.13703640662E+03 -0.28576819648E+03  0.65772255210E+02  0.33048583014E+03  0.66726722581E+02 0.  0.
         11    1    5    5    0    0 -0.31765444510E+02  0.10426544863E+03 -0.17062508176E+03  0.20246788824E+03  0.00000000000E+00 0. -1.
        -12    1    5    5    0    0  0.30968819423E+02  0.53832837182E+02 -0.12000108307E+03  0.13511958434E+03  0.00000000000E+00 0.  1.
         15    1    3    3    0    0  0.36632512740E+02  0.53852283377E+02 -0.11019440095E+03  0.12801551916E+03  0.17770000000E+01 0. -1.
        -16    1    3    3    0    0  0.10120051896E+03  0.73817627293E+02 -0.50754864314E+03  0.52277740224E+03  0.00000000000E+00 0.  1.
          4    1    6    6  502    0 -0.12972389228E+02 -0.97758287340E+02  0.19179322961E+02  0.10046298848E+03  0.00000000000E+00 0. -1.
         -3    1    6    6    0  502 -0.12406401739E+03 -0.18800990914E+03  0.46592932250E+02  0.23002284165E+03  0.00000000000E+00 0.  1.
<mgrwt>
<rscale>  0 0.34269440E+03</rscale>
<asrwt>0</asrwt>
<pdfrwt beam="1">  1        1 0.16626639E+00 0.34269440E+03</pdfrwt>
<pdfrwt beam="2">  1       -2 0.36636099E-01 0.34269440E+03</pdfrwt>
<totfact> 0.86171162E+01</totfact>
</mgrwt>
</event>
<event>
12    3  0.1176505E-007  0.1129336E+04  0.7818608E-02  0.9177062E-01
         -2   -1    0    0    0  501 -0.00000000000E+00  0.00000000000E+00  0.79015916984E+03  0.79015916984E+03  0.00000000000E+00 0.  1.
          1   -1    0    0  501    0  0.00000000000E+00 -0.00000000000E+00 -0.19100521550E+04  0.19100521550E+04  0.00000000000E+00 0. -1.
        -24    2    1    2    0    0  0.23702685265E+03  0.10949198092E+04 -0.82992208700E+03  0.13967032299E+04  0.83535169163E+02 0.  0.
    5000000    2    1    2    0    0 -0.23702685265E+03 -0.10949198092E+04 -0.28997089813E+03  0.13035080949E+04  0.60001592819E+03 0.  0.
        -24    2    4    4    0    0 -0.22768908566E+03 -0.70746747008E+03 -0.45497669616E+03  0.87511234737E+03  0.80406999299E+02 0.  0.
         24    2    4    4    0    0 -0.93377669906E+01 -0.38745233916E+03  0.16500579803E+03  0.42839574749E+03  0.78035210461E+02 0.  0.
         11    1    5    5    0    0 -0.56582237779E+02 -0.16254003541E+03 -0.14625541252E+03  0.22585716379E+03  0.00000000000E+00 0. -1.
        -12    1    5    5    0    0 -0.17110684788E+03 -0.54492743467E+03 -0.30872128364E+03  0.64925518359E+03  0.00000000000E+00 0.  1.
         15    1    3    3    0    0  0.17278415522E+03  0.82044724997E+03 -0.57527218654E+03  0.10168231413E+04  0.17770000000E+01 0. -1.
        -16    1    3    3    0    0  0.64242697435E+02  0.27447255927E+03 -0.25464990046E+03  0.37988008867E+03  0.00000000000E+00 0.  1.
          2    1    6    6  502    0  0.13358429334E+02 -0.93976067456E+01  0.37367406840E+01  0.16754876238E+02  0.00000000000E+00 0. -1.
         -1    1    6    6    0  502 -0.22696196324E+02 -0.37805473242E+03  0.16126905735E+03  0.41164087126E+03  0.00000000000E+00 0.  1.
<mgrwt>
<rscale>  0 0.11293357E+04</rscale>
<asrwt>0</asrwt>
<pdfrwt beam="1">  1        1 0.29385417E+00 0.11293357E+04</pdfrwt>
<pdfrwt beam="2">  1       -2 0.12156295E+00 0.11293357E+04</pdfrwt>
<totfact> 0.15279177E+00</totfact>
</mgrwt>
</event>
<event>
12    3  0.1176505E-007  0.4144301E+03  0.7818608E-02  0.1038895E+00
          1   -1    0    0  501    0  0.00000000000E+00  0.00000000000E+00  0.24513103354E+04  0.24513103354E+04  0.00000000000E+00 0. -1.
         -2   -1    0    0    0  501 -0.00000000000E+00 -0.00000000000E+00 -0.11571733446E+03  0.11571733446E+03  0.00000000000E+00 0.  1.
        -24    2    1    2    0    0 -0.29695579117E+03  0.20301870744E+03  0.79713955899E+03  0.87702617165E+03  0.65909724350E+02 0.  0.
    5000000    2    1    2    0    0  0.29695579117E+03 -0.20301870744E+03  0.15384534419E+04  0.16900014982E+04  0.59988893426E+03 0.  0.
        -24    2    4    4    0    0  0.31140338764E+03 -0.24038688494E+03  0.47031051366E+03  0.61809819474E+03  0.78073521721E+02 0.  0.
         24    2    4    4    0    0 -0.14447596468E+02  0.37368177509E+02  0.10681429283E+04  0.10719033035E+04  0.80263709274E+02 0.  0.
         13    1    5    5    0    0  0.41195433734E+02 -0.49868349158E+02  0.42396328322E+02  0.77339282796E+02  0.00000000000E+00 0. -1.
        -14    1    5    5    0    0  0.27020795390E+03 -0.19051853579E+03  0.42791418534E+03  0.54075891194E+03  0.00000000000E+00 0.  1.
         15    1    3    3    0    0 -0.82555979812E+02  0.71352258284E+02  0.31180775183E+03  0.33035415298E+03  0.17770000000E+01 0. -1.
        -16    1    3    3    0    0 -0.21439981136E+03  0.13166644915E+03  0.48533180717E+03  0.54667201866E+03  0.00000000000E+00 0.  1.
          2    1    6    6  502    0 -0.37888546285E+02  0.16083713180E+02  0.26876883341E+03  0.27190239716E+03  0.00000000000E+00 0. -1.
         -1    1    6    6    0  502  0.23440949817E+02  0.21284464329E+02  0.79937409485E+03  0.80000090629E+03  0.00000000000E+00 0.  1.
<mgrwt>
<rscale>  0 0.41443011E+03</rscale>
<asrwt>0</asrwt>
<pdfrwt beam="1">  1        1 0.37712463E+00 0.41443011E+03</pdfrwt>
<pdfrwt beam="2">  1       -2 0.17802669E-01 0.41443011E+03</pdfrwt>
<totfact> 0.37163241E+01</totfact>
</mgrwt>
</event>
<event>
12    3  0.1176505E-007  0.2196834E+04  0.7818608E-02  0.8519747E-01
         -2   -1    0    0    0  501 -0.00000000000E+00  0.00000000000E+00  0.25250494044E+04  0.25250494044E+04  0.00000000000E+00 0.  1.
          1   -1    0    0  501    0  0.00000000000E+00 -0.00000000000E+00 -0.20229576915E+04  0.20229576915E+04  0.00000000000E+00 0. -1.
        -24    2    1    2    0    0  0.15342708059E+04 -0.15404201140E+04 -0.20276844545E+03  0.21850347046E+04  0.79878559367E+02 0.  0.
    5000000    2    1    2    0    0 -0.15342708059E+04  0.15404201140E+04  0.70486015840E+03  0.23629723913E+04  0.59994136863E+03 0.  0.
        -24    2    4    4    0    0 -0.14855736281E+04  0.13554317938E+04  0.75478086981E+03  0.21494269490E+04  0.78852362624E+02 0.  0.
         24    2    4    4    0    0 -0.48697177737E+02  0.18498832019E+03 -0.49920711414E+02  0.21354544237E+03  0.80730940797E+02 0.  0.
         11    1    5    5    0    0 -0.96120646605E+03  0.89060129220E+03  0.53029646719E+03  0.14136134108E+04  0.00000000000E+00 0. -1.
        -12    1    5    5    0    0 -0.52436716209E+03  0.46483050165E+03  0.22448440263E+03  0.73581353818E+03  0.00000000000E+00 0.  1.
         15    1    3    3    0    0  0.89291384935E+03 -0.93877275030E+03 -0.95263674530E+02  0.12991026690E+04  0.17770000000E+01 0. -1.
        -16    1    3    3    0    0  0.64135695653E+03 -0.60164736374E+03 -0.10750477092E+03  0.88593203563E+03  0.00000000000E+00 0.  1.
          4    1    6    6  502    0 -0.10685666835E+02  0.16360285718E+03 -0.41559732229E+02  0.16913689632E+03  0.00000000000E+00 0. -1.
         -3    1    6    6    0  502 -0.38011510902E+02  0.21385463006E+02 -0.83609791857E+01  0.44408546047E+02  0.00000000000E+00 0.  1.
<mgrwt>
<rscale>  0 0.21968337E+04</rscale>
<asrwt>0</asrwt>
<pdfrwt beam="1">  1        1 0.31122426E+00 0.21968337E+04</pdfrwt>
<pdfrwt beam="2">  1       -2 0.38846914E+00 0.21968337E+04</pdfrwt>
<totfact> 0.19340607E-02</totfact>
</mgrwt>
</event>
<event>
12    3  0.1176505E-007  0.9682562E+03  0.7818608E-02  0.9344063E-01
         -2   -1    0    0    0  501 -0.00000000000E+00  0.00000000000E+00  0.83032762128E+03  0.83032762128E+03  0.00000000000E+00 0.  1.
          1   -1    0    0  501    0  0.00000000000E+00 -0.00000000000E+00 -0.11791429769E+04  0.11791429769E+04  0.00000000000E+00 0. -1.
        -24    2    1    2    0    0 -0.77074966232E+03 -0.43063596328E+03  0.29663785918E+00  0.88647110312E+03  0.79552208331E+02 0.  0.
    5000000    2    1    2    0    0  0.77074966232E+03  0.43063596328E+03 -0.34911199344E+03  0.11229994950E+04  0.59978855191E+03 0.  0.
        -24    2    4    4    0    0 -0.82751320673E+02  0.17324136615E+02 -0.24520199508E+02  0.11851743635E+03  0.79355124293E+02 0.  0.
         24    2    4    4    0    0  0.85350098299E+03  0.41331182666E+03 -0.32459179394E+03  0.10044820587E+04  0.65831447442E+02 0.  0.
         11    1    5    5    0    0  0.64714675440E+01  0.10486012289E+02  0.16075767968E+02  0.20255040401E+02  0.00000000000E+00 0. -1.
        -12    1    5    5    0    0 -0.89222788217E+02  0.68381243264E+01 -0.40595967476E+02  0.98262395945E+02  0.00000000000E+00 0.  1.
         15    1    3    3    0    0 -0.36857946649E+03 -0.17302511914E+03  0.27432325936E+02  0.40809827885E+03  0.17770000000E+01 0. -1.
        -16    1    3    3    0    0 -0.40217019583E+03 -0.25761084414E+03 -0.27135688077E+02  0.47837282427E+03  0.00000000000E+00 0.  1.
          2    1    6    6  502    0  0.12309135423E+03  0.81899832028E+02 -0.37063465089E+02  0.15242297863E+03  0.00000000000E+00 0. -1.
         -1    1    6    6    0  502  0.73040962877E+03  0.33141199463E+03 -0.28752832885E+03  0.85205908004E+03  0.00000000000E+00 0.  1.
<mgrwt>
<rscale>  0 0.96825622E+03</rscale>
<asrwt>0</asrwt>
<pdfrwt beam="1">  1        1 0.18140661E+00 0.96825622E+03</pdfrwt>
<pdfrwt beam="2">  1       -2 0.12774271E+00 0.96825622E+03</pdfrwt>
<totfact> 0.44093778E+00</totfact>
</mgrwt>
</event>
<event>
12    3  0.1176505E-007  0.1333283E+04  0.7818608E-02  0.9003580E-01
         -2   -1    0    0    0  501 -0.00000000000E+00  0.00000000000E+00  0.11391531764E+04  0.11391531764E+04  0.00000000000E+00 0.  1.
          1   -1    0    0  501    0  0.00000000000E+00 -0.00000000000E+00 -0.17320257523E+04  0.17320257523E+04  0.00000000000E+00 0. -1.
        -24    2    1    2    0    0 -0.35955530483E+03  0.12729309166E+04 -0.67020518596E+02  0.13265572047E+04  0.75027540782E+02 0.  0.
    5000000    2    1    2    0    0  0.35955530483E+03 -0.12729309166E+04 -0.52585205731E+03  0.15446217240E+04  0.59975223918E+03 0.  0.
        -24    2    4    4    0    0  0.22996497148E+03 -0.50521643795E+03 -0.51601246126E+03  0.76191783803E+03  0.78245731214E+02 0.  0.
         24    2    4    4    0    0  0.12959033335E+03 -0.76771447860E+03 -0.98395960482E+01  0.78270388593E+03  0.79682998420E+02 0.  0.
         13    1    5    5    0    0  0.12917180766E+03 -0.36892457210E+03 -0.35093465194E+03  0.52530545945E+03  0.00000000000E+00 0. -1.
        -14    1    5    5    0    0  0.10079316382E+03 -0.13629186585E+03 -0.16507780932E+03  0.23661237858E+03  0.00000000000E+00 0.  1.
         15    1    3    3    0    0 -0.17179629522E+03  0.51679526465E+03 -0.27648729358E+00  0.54460494562E+03  0.17770000000E+01 0. -1.
        -16    1    3    3    0    0 -0.18775900962E+03  0.75613565190E+03 -0.66744031303E+02  0.78195225908E+03  0.00000000000E+00 0.  1.
          4    1    6    6  502    0  0.11999201670E+03 -0.48624561772E+03  0.17006231386E+01  0.50083507958E+03  0.00000000000E+00 0. -1.
         -3    1    6    6    0  502  0.95983166569E+01 -0.28146886089E+03 -0.11540219187E+02  0.28186880634E+03  0.00000000000E+00 0.  1.
<mgrwt>
<rscale>  0 0.13332829E+04</rscale>
<asrwt>0</asrwt>
<pdfrwt beam="1">  1        1 0.26646550E+00 0.13332829E+04</pdfrwt>
<pdfrwt beam="2">  1       -2 0.17525433E+00 0.13332829E+04</pdfrwt>
<totfact> 0.74706902E-01</totfact>
</mgrwt>
</event>
<event>
12    3  0.1176505E-007  0.1031437E+04  0.7818608E-02  0.9274722E-01
         -2   -1    0    0    0  501 -0.00000000000E+00  0.00000000000E+00  0.10283051150E+04  0.10283051150E+04  0.00000000000E+00 0.  1.
          1   -1    0    0  501    0  0.00000000000E+00 -0.00000000000E+00 -0.11845975774E+04  0.11845975774E+04  0.00000000000E+00 0. -1.
        -24    2    1    2    0    0  0.17811160781E+03  0.93114740520E+03  0.30602528866E+03  0.99945242609E+03  0.80588086400E+02 0.  0.
    5000000    2    1    2    0    0 -0.17811160781E+03 -0.93114740520E+03 -0.46231775104E+03  0.12134502663E+04  0.59997050830E+03 0.  0.
        -24    2    4    4    0    0  0.19275406437E+03 -0.52834484736E+03 -0.23100611866E+03  0.61379093767E+03  0.84101612594E+02 0.  0.
         24    2    4    4    0    0 -0.37086567219E+03 -0.40280255784E+03 -0.23131163238E+03  0.59965932864E+03  0.79340984018E+02 0.  0.
         11    1    5    5    0    0  0.78831013037E+02 -0.20283293459E+03 -0.13390020628E+03  0.25550889067E+03  0.00000000000E+00 0. -1.
        -12    1    5    5    0    0  0.11392305134E+03 -0.32551191277E+03 -0.97105912386E+02  0.35828204700E+03  0.00000000000E+00 0.  1.
         15    1    3    3    0    0  0.71291990200E+02  0.43409600802E+03  0.18245334594E+03  0.47625022123E+03  0.17770000000E+01 0. -1.
        -16    1    3    3    0    0  0.10681961761E+03  0.49705139717E+03  0.12357194272E+03  0.52320220486E+03  0.00000000000E+00 0.  1.
          4    1    6    6  502    0 -0.67568047724E+01 -0.30810633594E+02 -0.22791250200E+02  0.38915172348E+02  0.00000000000E+00 0. -1.
         -3    1    6    6    0  502 -0.36410886741E+03 -0.37199192425E+03 -0.20852038218E+03  0.56074415629E+03  0.00000000000E+00 0.  1.
<mgrwt>
<rscale>  0 0.10314371E+04</rscale>
<asrwt>0</asrwt>
<pdfrwt beam="1">  1        1 0.18224578E+00 0.10314371E+04</pdfrwt>
<pdfrwt beam="2">  1       -2 0.15820079E+00 0.10314371E+04</pdfrwt>
<totfact> 0.24800806E+00</totfact>
</mgrwt>
</event>
<event>
12    3  0.1176505E-007  0.4338457E+03  0.7818608E-02  0.1032652E+00
         -2   -1    0    0    0  501 -0.00000000000E+00  0.00000000000E+00  0.68243173763E+03  0.68243173763E+03  0.00000000000E+00 0.  1.
          1   -1    0    0  501    0  0.00000000000E+00 -0.00000000000E+00 -0.59574336745E+03  0.59574336745E+03  0.00000000000E+00 0. -1.
        -24    2    1    2    0    0 -0.23988298321E+03  0.32949214960E+03 -0.24313204775E+03  0.48131850974E+03  0.80283204352E+02 0.  0.
    5000000    2    1    2    0    0  0.23988298321E+03 -0.32949214960E+03  0.32982041793E+03  0.79685659533E+03  0.60007499795E+03 0.  0.
        -24    2    4    4    0    0  0.99539439946E+02 -0.67619194094E+02 -0.15991839146E+03  0.21835958034E+03  0.87330171663E+02 0.  0.
         24    2    4    4    0    0  0.14034354326E+03 -0.26187295550E+03  0.48973880939E+03  0.57849701500E+03  0.80876077908E+02 0.  0.
         13    1    5    5    0    0 -0.10002280000E+02  0.99711001419E+01 -0.19748957712E+02  0.24279410495E+02  0.00000000000E+00 0. -1.
        -14    1    5    5    0    0  0.10954171995E+03 -0.77590294236E+02 -0.14016943375E+03  0.19408016984E+03  0.00000000000E+00 0.  1.
         15    1    3    3    0    0 -0.16021465057E+03  0.15220119697E+03 -0.12615631196E+03  0.25446514770E+03  0.17770000000E+01 0. -1.
        -16    1    3    3    0    0 -0.79668332638E+02  0.17729095263E+03 -0.11697573579E+03  0.22685336205E+03  0.00000000000E+00 0.  1.
          4    1    6    6  502    0  0.42363317764E+02 -0.14702666715E+03  0.29264923670E+03  0.33023486686E+03  0.00000000000E+00 0. -1.
         -3    1    6    6    0  502  0.97980225496E+02 -0.11484628835E+03  0.19708957269E+03  0.24826214814E+03  0.00000000000E+00 0.  1.
<mgrwt>
<rscale>  0 0.43384566E+03</rscale>
<asrwt>0</asrwt>
<pdfrwt beam="1">  1        1 0.91652826E-01 0.43384566E+03</pdfrwt>
<pdfrwt beam="2">  1       -2 0.10498950E+00 0.43384566E+03</pdfrwt>
<totfact> 0.23517506E+01</totfact>
</mgrwt>
</event>
<event>
12    3  0.1176505E-007  0.1161606E+04  0.7818608E-02  0.9147142E-01
          1   -1    0    0  501    0  0.00000000000E+00  0.00000000000E+00  0.19656009108E+04  0.19656009108E+04  0.00000000000E+00 0. -1.
         -2   -1    0    0    0  501 -0.00000000000E+00 -0.00000000000E+00 -0.75662941648E+03  0.75662941648E+03  0.00000000000E+00 0.  1.
        -24    2    1    2    0    0 -0.69226314318E+03 -0.89250426111E+03  0.36424412636E+03  0.11894913013E+04  0.80147718697E+02 0.  0.
    5000000    2    1    2    0    0  0.69226314318E+03  0.89250426111E+03  0.84472736799E+03  0.15327390260E+04  0.59994373077E+03 0.  0.
        -24    2    4    4    0    0  0.55806054452E+03  0.86732168806E+03  0.49088285309E+03  0.11449808127E+04  0.79602789766E+02 0.  0.
         24    2    4    4    0    0  0.13420259866E+03  0.25182573054E+02  0.35384451490E+03  0.38775821327E+03  0.80659728261E+02 0.  0.
         11    1    5    5    0    0  0.36990004959E+03  0.63610034980E+03  0.33352357329E+03  0.80789088102E+03  0.00000000000E+00 0. -1.
        -12    1    5    5    0    0  0.18816049494E+03  0.23122133825E+03  0.15735927980E+03  0.33708993171E+03  0.00000000000E+00 0.  1.
         15    1    3    3    0    0 -0.59898795726E+03 -0.79922639113E+03  0.30062032089E+03  0.10430364961E+04  0.17770000000E+01 0. -1.
        -16    1    3    3    0    0 -0.93275185923E+02 -0.93277869986E+02  0.63623805468E+02  0.14645480518E+03  0.00000000000E+00 0.  1.
          4    1    6    6  502    0  0.13452840786E+03  0.42639997754E+02  0.31398206839E+03  0.34423945329E+03  0.00000000000E+00 0. -1.
         -3    1    6    6    0  502 -0.32580920151E+00 -0.17457424700E+02  0.39862446509E+02  0.43518759984E+02  0.00000000000E+00 0.  1.
<mgrwt>
<rscale>  0 0.11616063E+04</rscale>
<asrwt>0</asrwt>
<pdfrwt beam="1">  1        1 0.30240014E+00 0.11616063E+04</pdfrwt>
<pdfrwt beam="2">  1       -2 0.11640453E+00 0.11616063E+04</pdfrwt>
<totfact> 0.15552480E+00</totfact>
</mgrwt>
</event>
<event>
12    3  0.1176505E-007  0.9093076E+03  0.7818608E-02  0.9414021E-01
         -2   -1    0    0    0  501 -0.00000000000E+00  0.00000000000E+00  0.52700863648E+03  0.52700863648E+03  0.00000000000E+00 0.  1.
          1   -1    0    0  501    0  0.00000000000E+00 -0.00000000000E+00 -0.16996246950E+04  0.16996246950E+04  0.00000000000E+00 0. -1.
        -24    2    1    2    0    0  0.63073475628E+03 -0.51619557800E+03 -0.24760289549E+03  0.85551375948E+03  0.79450558682E+02 0.  0.
    5000000    2    1    2    0    0 -0.63073475628E+03  0.51619557800E+03 -0.92501316306E+03  0.13711195720E+04  0.60002943380E+03 0.  0.
        -24    2    4    4    0    0 -0.20890039187E+03 -0.11272717765E+03 -0.23242852325E+03  0.34181696467E+03  0.80430271763E+02 0.  0.
         24    2    4    4    0    0 -0.42183436441E+03  0.62892275565E+03 -0.69258463981E+03  0.10293026074E+04  0.79387093538E+02 0.  0.
         13    1    5    5    0    0 -0.63073454211E+02 -0.64744723735E+02 -0.49672820050E+02  0.10313839697E+03  0.00000000000E+00 0. -1.
        -14    1    5    5    0    0 -0.14582693766E+03 -0.47982453915E+02 -0.18275570320E+03  0.23867856770E+03  0.00000000000E+00 0.  1.
         15    1    3    3    0    0  0.16858992287E+03 -0.11243197115E+03 -0.32564647264E+02  0.20524893230E+03  0.17770000000E+01 0. -1.
        -16    1    3    3    0    0  0.46214483341E+03 -0.40376360686E+03 -0.21503824823E+03  0.65026482718E+03  0.00000000000E+00 0.  1.
          2    1    6    6  502    0 -0.34637689037E+03  0.48660497490E+03 -0.50609638364E+03  0.78287604467E+03  0.00000000000E+00 0. -1.
         -1    1    6    6    0  502 -0.75457474048E+02  0.14231778076E+03 -0.18648825617E+03  0.24642656269E+03  0.00000000000E+00 0.  1.
<mgrwt>
<rscale>  0 0.90930764E+03</rscale>
<asrwt>0</asrwt>
<pdfrwt beam="1">  1        1 0.26148072E+00 0.90930764E+03</pdfrwt>
<pdfrwt beam="2">  1       -2 0.81078252E-01 0.90930764E+03</pdfrwt>
<totfact> 0.56959444E+00</totfact>
</mgrwt>
</event>
<event>
12    3  0.1176505E-007  0.6400303E+03  0.7818608E-02  0.9825669E-01
          1   -1    0    0  501    0  0.00000000000E+00  0.00000000000E+00  0.60127203729E+03  0.60127203729E+03  0.00000000000E+00 0. -1.
         -2   -1    0    0    0  501 -0.00000000000E+00 -0.00000000000E+00 -0.72871270839E+03  0.72871270839E+03  0.00000000000E+00 0.  1.
        -24    2    1    2    0    0 -0.46844081566E+03 -0.18280199844E+03  0.96990535521E+02  0.51573986539E+03  0.61049785948E+02 0.  0.
    5000000    2    1    2    0    0  0.46844081566E+03  0.18280199844E+03 -0.22443120662E+03  0.81424488028E+03  0.59980996170E+03 0.  0.
        -24    2    4    4    0    0 -0.31043741534E+02  0.25736517875E+03 -0.88920918603E+02  0.28579018147E+03  0.81046585006E+02 0.  0.
         24    2    4    4    0    0  0.49948455719E+03 -0.74563180306E+02 -0.13551028802E+03  0.52845469881E+03  0.76529992859E+02 0.  0.
         11    1    5    5    0    0  0.16533909969E+02  0.11596496981E+03 -0.11480608724E+02  0.11769897527E+03  0.00000000000E+00 0. -1.
        -12    1    5    5    0    0 -0.47577651503E+02  0.14140020894E+03 -0.77440309879E+02  0.16809120621E+03  0.00000000000E+00 0.  1.
         15    1    3    3    0    0 -0.34605823823E+03 -0.12841815938E+03  0.44078092454E+02  0.37174394933E+03  0.17770000000E+01 0. -1.
        -16    1    3    3    0    0 -0.12238257743E+03 -0.54383839061E+02  0.52912443067E+02  0.14399591606E+03  0.00000000000E+00 0.  1.
          2    1    6    6  502    0  0.18547747346E+03  0.91889286562E+01 -0.44363725626E+02  0.19093053638E+03  0.00000000000E+00 0. -1.
         -1    1    6    6    0  502  0.31400708373E+03 -0.83752108962E+02 -0.91146562390E+02  0.33752416243E+03  0.00000000000E+00 0.  1.
<mgrwt>
<rscale>  0 0.64003027E+03</rscale>
<asrwt>0</asrwt>
<pdfrwt beam="1">  1        1 0.92503391E-01 0.64003027E+03</pdfrwt>
<pdfrwt beam="2">  1       -2 0.11210965E+00 0.64003027E+03</pdfrwt>
<totfact> 0.19318450E+01</totfact>
</mgrwt>
</event>
<event>
12    3  0.1176505E-007  0.9398518E+03  0.7818608E-02  0.9377092E-01
         -2   -1    0    0    0  501 -0.00000000000E+00  0.00000000000E+00  0.56529012303E+03  0.56529012303E+03  0.00000000000E+00 0.  1.
          1   -1    0    0  501    0  0.00000000000E+00 -0.00000000000E+00 -0.18644203611E+04  0.18644203611E+04  0.00000000000E+00 0. -1.
        -24    2    1    2    0    0  0.13855348305E+03  0.92016297508E+03 -0.46302999031E+03  0.10422970214E+04  0.78034226985E+02 0.  0.
    5000000    2    1    2    0    0 -0.13855348305E+03 -0.92016297508E+03 -0.83610024779E+03  0.13874134627E+04  0.59996293539E+03 0.  0.
        -24    2    4    4    0    0  0.66109274113E+01 -0.41837246753E+03 -0.32604599401E+02  0.42652521907E+03  0.76036022097E+02 0.  0.
         24    2    4    4    0    0 -0.14516441046E+03 -0.50179050755E+03 -0.80349564839E+03  0.96088824366E+03  0.69530858545E+02 0.  0.
         13    1    5    5    0    0  0.22494323783E+02 -0.40093641675E+03 -0.28424362717E+02  0.40257166974E+03  0.00000000000E+00 0. -1.
        -14    1    5    5    0    0 -0.15883396372E+02 -0.17436050777E+02 -0.41802366839E+01  0.23953549335E+02  0.00000000000E+00 0.  1.
         15    1    3    3    0    0  0.37149010324E+02  0.17437435510E+03 -0.57446797463E+02  0.18732260129E+03  0.17770000000E+01 0. -1.
        -16    1    3    3    0    0  0.10140447273E+03  0.74578861997E+03 -0.40558319284E+03  0.85497442014E+03  0.00000000000E+00 0.  1.
          2    1    6    6  502    0 -0.11412206823E+03 -0.33382137874E+03 -0.48868111529E+03  0.60271866721E+03  0.00000000000E+00 0. -1.
         -1    1    6    6    0  502 -0.31042342235E+02 -0.16796912881E+03 -0.31481453310E+03  0.35816957645E+03  0.00000000000E+00 0.  1.
<mgrwt>
<rscale>  0 0.93985178E+03</rscale>
<asrwt>0</asrwt>
<pdfrwt beam="1">  1        1 0.28683391E+00 0.93985178E+03</pdfrwt>
<pdfrwt beam="2">  1       -2 0.86967710E-01 0.93985178E+03</pdfrwt>
<totfact> 0.37444556E+00</totfact>
</mgrwt>
</event>
<event>
12    3  0.1176505E-007  0.7913258E+03  0.7818608E-02  0.9572658E-01
          1   -1    0    0  501    0  0.00000000000E+00  0.00000000000E+00  0.58176174783E+03  0.58176174783E+03  0.00000000000E+00 0. -1.
         -2   -1    0    0    0  501 -0.00000000000E+00 -0.00000000000E+00 -0.15474176950E+04  0.15474176950E+04  0.00000000000E+00 0.  1.
        -24    2    1    2    0    0 -0.65481107024E+03 -0.28767356641E+03  0.83783772075E+02  0.72456827978E+03  0.80286070261E+02 0.  0.
    5000000    2    1    2    0    0  0.65481107024E+03  0.28767356641E+03 -0.10494397193E+04  0.14046111631E+04  0.60006264385E+03 0.  0.
        -24    2    4    4    0    0 -0.39980776899E+02 -0.36487572216E+02 -0.35103024892E+03  0.36425429240E+03  0.80803146176E+02 0.  0.
         24    2    4    4    0    0  0.69479184714E+03  0.32416113862E+03 -0.69840947036E+03  0.10403568707E+04  0.82161277003E+02 0.  0.
         13    1    5    5    0    0  0.18127595360E+01 -0.52454000775E+02 -0.18481052547E+03  0.19211881381E+03  0.00000000000E+00 0. -1.
        -14    1    5    5    0    0 -0.41793536435E+02  0.15966428558E+02 -0.16621972345E+03  0.17213547860E+03  0.00000000000E+00 0.  1.
         15    1    3    3    0    0 -0.19337646310E+03 -0.50605150078E+02  0.58981787246E+01  0.19998320914E+03  0.17770000000E+01 0. -1.
        -16    1    3    3    0    0 -0.46143460714E+03 -0.23706841633E+03  0.77885593351E+02  0.52458507064E+03  0.00000000000E+00 0.  1.
          4    1    6    6  502    0  0.91186558747E+02  0.46371634137E+02 -0.58399324195E+02  0.11779557723E+03  0.00000000000E+00 0. -1.
         -3    1    6    6    0  502  0.60360528839E+03  0.27778950448E+03 -0.64001014616E+03  0.92256129345E+03  0.00000000000E+00 0.  1.
<mgrwt>
<rscale>  0 0.79132581E+03</rscale>
<asrwt>0</asrwt>
<pdfrwt beam="1">  1        1 0.89501809E-01 0.79132581E+03</pdfrwt>
<pdfrwt beam="2">  1       -2 0.23806426E+00 0.79132581E+03</pdfrwt>
<totfact> 0.24524205E+00</totfact>
</mgrwt>
</event>
<event>
12    3  0.1176505E-007  0.7167275E+03  0.7818608E-02  0.9689046E-01
          3   -1    0    0  501    0  0.00000000000E+00  0.00000000000E+00  0.91403980011E+03  0.91403980011E+03  0.00000000000E+00 0. -1.
         -4   -1    0    0    0  501 -0.00000000000E+00 -0.00000000000E+00 -0.85143176311E+03  0.85143176311E+03  0.00000000000E+00 0.  1.
        -24    2    1    2    0    0 -0.50403006250E+03 -0.45072340315E+03 -0.35738648036E+03  0.76878464567E+03  0.78146305212E+02 0.  0.
    5000000    2    1    2    0    0  0.50403006250E+03  0.45072340315E+03  0.41999451736E+03  0.99668691755E+03  0.59982624730E+03 0.  0.
        -24    2    4    4    0    0  0.45493836413E+03  0.48070192004E+03  0.11621777119E+03  0.67658770276E+03  0.78873938046E+02 0.  0.
         24    2    4    4    0    0  0.49091698365E+02 -0.29978516887E+02  0.30377674617E+03  0.32009921479E+03  0.82912541089E+02 0.  0.
         11    1    5    5    0    0  0.26330987884E+03  0.24533300144E+03  0.95626561676E+02  0.37237724580E+03  0.00000000000E+00 0. -1.
        -12    1    5    5    0    0  0.19162848529E+03  0.23536891860E+03  0.20591209514E+02  0.30421045697E+03  0.00000000000E+00 0.  1.
         15    1    3    3    0    0 -0.38949645715E+03 -0.38632841645E+03 -0.27462599734E+03  0.61349794754E+03  0.17770000000E+01 0. -1.
        -16    1    3    3    0    0 -0.11453360534E+03 -0.64394986704E+02 -0.82760483017E+02  0.15528669813E+03  0.00000000000E+00 0.  1.
          2    1    6    6  502    0  0.65787291208E+02 -0.14659961733E+02  0.14727148807E+03  0.16196225906E+03  0.00000000000E+00 0. -1.
         -1    1    6    6    0  502 -0.16695592843E+02 -0.15318555154E+02  0.15650525810E+03  0.15813695572E+03  0.00000000000E+00 0.  1.
<mgrwt>
<rscale>  0 0.71672748E+03</rscale>
<asrwt>0</asrwt>
<pdfrwt beam="1">  1        3 0.14062151E+00 0.71672748E+03</pdfrwt>
<pdfrwt beam="2">  1       -4 0.13098950E+00 0.71672748E+03</pdfrwt>
<totfact> 0.36454469E-01</totfact>
</mgrwt>
</event>
<event>
12    3  0.1176505E-007  0.8904774E+03  0.7818608E-02  0.9437564E-01
         -2   -1    0    0    0  501 -0.00000000000E+00  0.00000000000E+00  0.13107787228E+04  0.13107787228E+04  0.00000000000E+00 0.  1.
          1   -1    0    0  501    0  0.00000000000E+00 -0.00000000000E+00 -0.11651553377E+04  0.11651553377E+04  0.00000000000E+00 0. -1.
        -24    2    1    2    0    0  0.23184572970E+03  0.79874777633E+03 -0.74372461776E+03  0.11184439197E+04  0.77717706265E+02 0.  0.
    5000000    2    1    2    0    0 -0.23184572970E+03 -0.79874777633E+03  0.88934800285E+03  0.13574901408E+04  0.60007429515E+03 0.  0.
        -24    2    4    4    0    0 -0.14635477632E+03 -0.20061775891E+02 -0.16219183141E+01  0.16859920507E+03  0.81245713278E+02 0.  0.
         24    2    4    4    0    0 -0.85490953378E+02 -0.77868600044E+03  0.89096992117E+03  0.11888909358E+04  0.77289496873E+02 0.  0.
         13    1    5    5    0    0 -0.39398111031E+02  0.26959783899E+02  0.16196220708E+02  0.50411890124E+02  0.00000000000E+00 0. -1.
        -14    1    5    5    0    0 -0.10695666529E+03 -0.47021559790E+02 -0.17818139022E+02  0.11818731494E+03  0.00000000000E+00 0.  1.
         15    1    3    3    0    0  0.48011208273E+02  0.20324793649E+03 -0.14526008983E+03  0.25439821390E+03  0.17770000000E+01 0. -1.
        -16    1    3    3    0    0  0.18383452142E+03  0.59549983984E+03 -0.59846452793E+03  0.86404570580E+03  0.00000000000E+00 0.  1.
          2    1    6    6  502    0 -0.53762678187E+02 -0.62873027215E+03  0.75516798995E+03  0.98410917775E+03  0.00000000000E+00 0. -1.
         -1    1    6    6    0  502 -0.31728275191E+02 -0.14995572829E+03  0.13580193122E+03  0.20478175802E+03  0.00000000000E+00 0.  1.
<mgrwt>
<rscale>  0 0.89047741E+03</rscale>
<asrwt>0</asrwt>
<pdfrwt beam="1">  1        1 0.17925467E+00 0.89047741E+03</pdfrwt>
<pdfrwt beam="2">  1       -2 0.20165826E+00 0.89047741E+03</pdfrwt>
<totfact> 0.13050824E+00</totfact>
</mgrwt>
</event>
<event>
12    3  0.1176505E-007  0.5869944E+03  0.7818608E-02  0.9932762E-01
          1   -1    0    0  501    0  0.00000000000E+00  0.00000000000E+00  0.10015609280E+04  0.10015609280E+04  0.00000000000E+00 0. -1.
         -2   -1    0    0    0  501 -0.00000000000E+00 -0.00000000000E+00 -0.47422488043E+03  0.47422488043E+03  0.00000000000E+00 0.  1.
        -24    2    1    2    0    0  0.74121553624E+02  0.52472684673E+03  0.39128698722E+03  0.66368923712E+03  0.80905059849E+02 0.  0.
    5000000    2    1    2    0    0 -0.74121553624E+02 -0.52472684673E+03  0.13604906033E+03  0.81209657128E+03  0.60013267356E+03 0.  0.
        -24    2    4    4    0    0 -0.15143775131E+03 -0.49778785292E+03 -0.11260680382E+03  0.53816648053E+03  0.78846239365E+02 0.  0.
         24    2    4    4    0    0  0.77316197685E+02 -0.26938993809E+02  0.24865586415E+03  0.27393009075E+03  0.80650183072E+02 0.  0.
         11    1    5    5    0    0 -0.48045248445E+02 -0.64890396822E+02 -0.25288853063E+02  0.84608720514E+02  0.00000000000E+00 0. -1.
        -12    1    5    5    0    0 -0.10339250286E+03 -0.43289745610E+03 -0.87317950756E+02  0.45355776002E+03  0.00000000000E+00 0.  1.
         15    1    3    3    0    0  0.46272358261E+02  0.13295839278E+03  0.13253286996E+03  0.19335766004E+03  0.17770000000E+01 0. -1.
        -16    1    3    3    0    0  0.27849195363E+02  0.39176845395E+03  0.25875411726E+03  0.47033157707E+03  0.00000000000E+00 0.  1.
          2    1    6    6  502    0  0.16082003798E+02 -0.47407867676E+02  0.11848712610E+03  0.12862867415E+03  0.00000000000E+00 0. -1.
         -1    1    6    6    0  502  0.61234193886E+02  0.20468873867E+02  0.13016873805E+03  0.14530141659E+03  0.00000000000E+00 0.  1.
<mgrwt>
<rscale>  0 0.58699439E+03</rscale>
<asrwt>0</asrwt>
<pdfrwt beam="1">  1        1 0.15408630E+00 0.58699439E+03</pdfrwt>
<pdfrwt beam="2">  1       -2 0.72957674E-01 0.58699439E+03</pdfrwt>
<totfact> 0.23414132E+01</totfact>
</mgrwt>
</event>
<event>
12    3  0.1176505E-007  0.6361686E+03  0.7818608E-02  0.9833085E-01
         -2   -1    0    0    0  501 -0.00000000000E+00  0.00000000000E+00  0.16245608170E+04  0.16245608170E+04  0.00000000000E+00 0.  1.
          1   -1    0    0  501    0  0.00000000000E+00 -0.00000000000E+00 -0.65601738039E+03  0.65601738039E+03  0.00000000000E+00 0. -1.
        -24    2    1    2    0    0 -0.54067818895E+03  0.20873634681E+02 -0.40994401209E+03  0.68271011398E+03  0.72597479630E+02 0.  0.
    5000000    2    1    2    0    0  0.54067818895E+03 -0.20873634681E+02  0.13784874487E+04  0.15978680834E+04  0.60015510759E+03 0.  0.
        -24    2    4    4    0    0  0.51867053038E+03 -0.18187554474E+03  0.68724068727E+03  0.88362232050E+03  0.79942542982E+02 0.  0.
         24    2    4    4    0    0  0.22007658575E+02  0.16100191006E+03  0.69124676145E+03  0.71424576294E+03  0.76934859421E+02 0.  0.
         13    1    5    5    0    0  0.27738381562E+03 -0.82003143489E+02  0.30162383452E+03  0.41790337910E+03  0.00000000000E+00 0. -1.
        -14    1    5    5    0    0  0.24128671475E+03 -0.99872401250E+02  0.38561685275E+03  0.46571894140E+03  0.00000000000E+00 0.  1.
         15    1    3    3    0    0 -0.24137815284E+03  0.43468737309E+02 -0.16970259962E+03  0.29825337188E+03  0.17770000000E+01 0. -1.
        -16    1    3    3    0    0 -0.29930003611E+03 -0.22595102628E+02 -0.24024141247E+03  0.38445674210E+03  0.00000000000E+00 0.  1.
          2    1    6    6  502    0  0.47198702399E+02  0.10475632668E+03  0.38146910888E+03  0.39839714672E+03  0.00000000000E+00 0. -1.
         -1    1    6    6    0  502 -0.25191043824E+02  0.56245583378E+02  0.30977765257E+03  0.31584861622E+03  0.00000000000E+00 0.  1.
<mgrwt>
<rscale>  0 0.63616859E+03</rscale>
<asrwt>0</asrwt>
<pdfrwt beam="1">  1        1 0.10092575E+00 0.63616859E+03</pdfrwt>
<pdfrwt beam="2">  1       -2 0.24993243E+00 0.63616859E+03</pdfrwt>
<totfact> 0.17893937E+00</totfact>
</mgrwt>
</event>
<event>
12    3  0.1176505E-007  0.9868170E+03  0.7818608E-02  0.9323123E-01
          1   -1    0    0  501    0  0.00000000000E+00  0.00000000000E+00  0.10770640817E+04  0.10770640817E+04  0.00000000000E+00 0. -1.
         -2   -1    0    0    0  501 -0.00000000000E+00 -0.00000000000E+00 -0.11727383296E+04  0.11727383296E+04  0.00000000000E+00 0.  1.
        -24    2    1    2    0    0 -0.24854462421E+03 -0.88135246852E+03 -0.54276037536E+03  0.10672768278E+04  0.77035044500E+02 0.  0.
    5000000    2    1    2    0    0  0.24854462421E+03  0.88135246852E+03  0.44708612746E+03  0.11825255836E+04  0.59993678535E+03 0.  0.
        -24    2    4    4    0    0 -0.15030572696E+03  0.40114901206E+03  0.48874404223E+02  0.43782479691E+03  0.76088790053E+02 0.  0.
         24    2    4    4    0    0  0.39885035117E+03  0.48020345646E+03  0.39821172324E+03  0.74470078665E+03  0.79559555583E+02 0.  0.
         11    1    5    5    0    0 -0.97289301871E+02  0.29767777541E+03  0.66717652913E+02  0.32020073617E+03  0.00000000000E+00 0. -1.
        -12    1    5    5    0    0 -0.53016425087E+02  0.10347123665E+03 -0.17843248690E+02  0.11762406075E+03  0.00000000000E+00 0.  1.
         15    1    3    3    0    0 -0.88632297055E+02 -0.33927167239E+03 -0.25099591393E+03  0.43123434268E+03  0.17770000000E+01 0. -1.
        -16    1    3    3    0    0 -0.15991232715E+03 -0.54208079614E+03 -0.29176446143E+03  0.63604248512E+03  0.00000000000E+00 0.  1.
          2    1    6    6  502    0  0.25160873105E+03  0.35476349120E+03  0.29409263161E+03  0.52502815562E+03  0.00000000000E+00 0. -1.
         -1    1    6    6    0  502  0.14724162012E+03  0.12543996526E+03  0.10411909163E+03  0.21967263103E+03  0.00000000000E+00 0.  1.
<mgrwt>
<rscale>  0 0.98681702E+03</rscale>
<asrwt>0</asrwt>
<pdfrwt beam="1">  1        1 0.16570217E+00 0.98681702E+03</pdfrwt>
<pdfrwt beam="2">  1       -2 0.18042128E+00 0.98681702E+03</pdfrwt>
<totfact> 0.20791303E+00</totfact>
</mgrwt>
</event>
<event>
12    3  0.1176505E-007  0.4456749E+03  0.7818608E-02  0.1029020E+00
          1   -1    0    0  501    0  0.00000000000E+00  0.00000000000E+00  0.58905660271E+03  0.58905660271E+03  0.00000000000E+00 0. -1.
         -2   -1    0    0    0  501 -0.00000000000E+00 -0.00000000000E+00 -0.42734261490E+03  0.42734261490E+03  0.00000000000E+00 0.  1.
        -24    2    1    2    0    0 -0.22809063176E+03  0.14540742232E+03 -0.11651549961E+03  0.30196436903E+03  0.66618043746E+02 0.  0.
    5000000    2    1    2    0    0  0.22809063176E+03 -0.14540742232E+03  0.27822948742E+03  0.71443484859E+03  0.59986402663E+03 0.  0.
        -24    2    4    4    0    0  0.32948645675E+02  0.20233194466E+03 -0.41864554529E+01  0.21928192823E+03  0.77738076611E+02 0.  0.
         24    2    4    4    0    0  0.19514198608E+03 -0.34773936698E+03  0.28241594288E+03  0.49515292036E+03  0.80091121060E+02 0.  0.
         11    1    5    5    0    0  0.51142139001E+02  0.17979129524E+03  0.96655725911E+01  0.18717331946E+03  0.00000000000E+00 0. -1.
        -12    1    5    5    0    0 -0.18193493326E+02  0.22540649422E+02 -0.13852028044E+02  0.32108608763E+02  0.00000000000E+00 0.  1.
         15    1    3    3    0    0 -0.68402603892E+02  0.76792543578E+02 -0.26413542833E+02  0.10619248534E+03  0.17770000000E+01 0. -1.
        -16    1    3    3    0    0 -0.15968802787E+03  0.68614878737E+02 -0.90101956782E+02  0.19577188369E+03  0.00000000000E+00 0.  1.
          4    1    6    6  502    0  0.92198816441E+02 -0.17055390171E+03  0.18604199457E+03  0.26870221228E+03  0.00000000000E+00 0. -1.
         -3    1    6    6    0  502  0.10294316964E+03 -0.17718546527E+03  0.96373948312E+02  0.22645070808E+03  0.00000000000E+00 0.  1.
<mgrwt>
<rscale>  0 0.44567491E+03</rscale>
<asrwt>0</asrwt>
<pdfrwt beam="1">  1        1 0.90624093E-01 0.44567491E+03</pdfrwt>
<pdfrwt beam="2">  1       -2 0.65745018E-01 0.44567491E+03</pdfrwt>
<totfact> 0.68451022E+01</totfact>
</mgrwt>
</event>
<event>
12    3  0.1176505E-007  0.1110309E+04  0.7818608E-02  0.9195202E-01
          1   -1    0    0  501    0  0.00000000000E+00  0.00000000000E+00  0.22287790104E+04  0.22287790104E+04  0.00000000000E+00 0. -1.
         -2   -1    0    0    0  501 -0.00000000000E+00 -0.00000000000E+00 -0.72788929889E+03  0.72788929889E+03  0.00000000000E+00 0.  1.
        -24    2    1    2    0    0  0.27089233453E+03 -0.10446822344E+04  0.96309679790E+02  0.10863999297E+04  0.79029267922E+02 0.  0.
    5000000    2    1    2    0    0 -0.27089233453E+03  0.10446822344E+04  0.14045800317E+04  0.18702683796E+04  0.60026254117E+03 0.  0.
        -24    2    4    4    0    0 -0.26214680809E+03  0.32913385999E+03  0.21632984352E+03  0.47968099842E+03  0.79026655355E+02 0.  0.
         24    2    4    4    0    0 -0.87455264361E+01  0.71554837438E+03  0.11882501882E+04  0.13905873811E+04  0.98533215281E+02 0.  0.
         11    1    5    5    0    0 -0.13486701959E+03  0.16928689629E+03  0.66918727358E+02  0.22655083822E+03  0.00000000000E+00 0. -1.
        -12    1    5    5    0    0 -0.12727978851E+03  0.15984696371E+03  0.14941111616E+03  0.25313016020E+03  0.00000000000E+00 0.  1.
         15    1    3    3    0    0  0.95004976474E+02 -0.49971005722E+03  0.24387706984E+02  0.50924847062E+03  0.17770000000E+01 0. -1.
        -16    1    3    3    0    0  0.17588735806E+03 -0.54497217715E+03  0.71921972806E+02  0.57715145912E+03  0.00000000000E+00 0.  1.
          2    1    6    6  502    0  0.18928393103E+02  0.74010040083E+02  0.17571427798E+03  0.19160187260E+03  0.00000000000E+00 0. -1.
         -1    1    6    6    0  502 -0.27673919539E+02  0.64153833430E+03  0.10125359102E+04  0.11989855085E+04  0.00000000000E+00 0.  1.
<mgrwt>
<rscale>  0 0.11103086E+04</rscale>
<asrwt>0</asrwt>
<pdfrwt beam="1">  1        1 0.34288908E+00 0.11103086E+04</pdfrwt>
<pdfrwt beam="2">  1       -2 0.11198297E+00 0.11103086E+04</pdfrwt>
<totfact> 0.11421463E+00</totfact>
</mgrwt>
</event>
<event>
12    3  0.1176505E-007  0.7454638E+03  0.7818608E-02  0.9642494E-01
          1   -1    0    0  501    0  0.00000000000E+00  0.00000000000E+00  0.20999581907E+04  0.20999581907E+04  0.00000000000E+00 0. -1.
         -2   -1    0    0    0  501 -0.00000000000E+00 -0.00000000000E+00 -0.28389627254E+03  0.28389627254E+03  0.00000000000E+00 0.  1.
        -24    2    1    2    0    0  0.26813893425E+03  0.58988500637E+03  0.65296310713E+03  0.92351287343E+03  0.81562241978E+02 0.  0.
    5000000    2    1    2    0    0 -0.26813893425E+03 -0.58988500637E+03  0.11630988110E+04  0.14603415898E+04  0.59994658586E+03 0.  0.
        -24    2    4    4    0    0  0.15530669178E+03 -0.99991760416E+02  0.13343972411E+03  0.24138363355E+03  0.79632769100E+02 0.  0.
         24    2    4    4    0    0 -0.42344562603E+03 -0.48989324596E+03  0.10296590869E+04  0.12189579563E+04  0.79743797120E+02 0.  0.
         13    1    5    5    0    0  0.59164250532E+02 -0.52693025311E+02  0.13181013065E+02  0.80316265867E+02  0.00000000000E+00 0. -1.
        -14    1    5    5    0    0  0.96142441250E+02 -0.47298735105E+02  0.12025871104E+03  0.16106736769E+03  0.00000000000E+00 0.  1.
         15    1    3    3    0    0 -0.21277858581E+01  0.41959900005E+02  0.45548871169E+02  0.61992080743E+02  0.17770000000E+01 0. -1.
        -16    1    3    3    0    0  0.27026672011E+03  0.54792510637E+03  0.60741423596E+03  0.86152079269E+03  0.00000000000E+00 0.  1.
          4    1    6    6  502    0 -0.23276394942E+03 -0.21411661855E+03  0.53148096557E+03  0.61846341788E+03  0.00000000000E+00 0. -1.
         -3    1    6    6    0  502 -0.19068167661E+03 -0.27577662741E+03  0.49817812136E+03  0.60049453838E+03  0.00000000000E+00 0.  1.
<mgrwt>
<rscale>  0 0.74546379E+03</rscale>
<asrwt>0</asrwt>
<pdfrwt beam="1">  1        1 0.32307048E+00 0.74546379E+03</pdfrwt>
<pdfrwt beam="2">  1       -2 0.43676351E-01 0.74546379E+03</pdfrwt>
<totfact> 0.11605812E+01</totfact>
</mgrwt>
</event>
<event>
12    3  0.1176505E-007  0.7735547E+03  0.7818608E-02  0.9599105E-01
          1   -1    0    0  501    0  0.00000000000E+00  0.00000000000E+00  0.18219051724E+04  0.18219051724E+04  0.00000000000E+00 0. -1.
         -2   -1    0    0    0  501 -0.00000000000E+00 -0.00000000000E+00 -0.34263495524E+03  0.34263495524E+03  0.00000000000E+00 0.  1.
        -24    2    1    2    0    0 -0.57486348044E+03  0.32170096639E+03  0.82676487082E+03  0.10601121236E+04  0.79611746062E+02 0.  0.
    5000000    2    1    2    0    0  0.57486348044E+03 -0.32170096639E+03  0.65250534636E+03  0.11044280040E+04  0.60003204594E+03 0.  0.
        -24    2    4    4    0    0  0.62531504072E+03 -0.41960654633E+03  0.55374980514E+03  0.93812564734E+03  0.79701503260E+02 0.  0.
         24    2    4    4    0    0 -0.50451560285E+02  0.97905579944E+02  0.98755541222E+02  0.16630235670E+03  0.75979960530E+02 0.  0.
         11    1    5    5    0    0  0.39405122671E+03 -0.24643544842E+03  0.29655789111E+03  0.55131967341E+03  0.00000000000E+00 0. -1.
        -12    1    5    5    0    0  0.23126381401E+03 -0.17317109791E+03  0.25719191403E+03  0.38680597392E+03  0.00000000000E+00 0.  1.
         15    1    3    3    0    0 -0.21299830153E+03  0.13812138876E+03  0.37526180100E+03  0.45306773391E+03  0.17770000000E+01 0. -1.
        -16    1    3    3    0    0 -0.36186517891E+03  0.18357957763E+03  0.45150306981E+03  0.60704438971E+03  0.00000000000E+00 0.  1.
          2    1    6    6  502    0 -0.64656994539E+02  0.10035373176E+03  0.87445742126E+02  0.14798025624E+03  0.00000000000E+00 0. -1.
         -1    1    6    6    0  502  0.14205434255E+02 -0.24481518135E+01  0.11309799097E+02  0.18322100460E+02  0.00000000000E+00 0.  1.
<mgrwt>
<rscale>  0 0.77355470E+03</rscale>
<asrwt>0</asrwt>
<pdfrwt beam="1">  1        1 0.28029310E+00 0.77355470E+03</pdfrwt>
<pdfrwt beam="2">  1       -2 0.52713071E-01 0.77355470E+03</pdfrwt>
<totfact> 0.12134261E+01</totfact>
</mgrwt>
</event>
<event>
12    3  0.1176505E-007  0.7049048E+03  0.7818608E-02  0.9708881E-01
          1   -1    0    0  501    0  0.00000000000E+00  0.00000000000E+00  0.89354771961E+03  0.89354771961E+03  0.00000000000E+00 0. -1.
         -2   -1    0    0    0  501 -0.00000000000E+00 -0.00000000000E+00 -0.14018445216E+04  0.14018445216E+04  0.00000000000E+00 0.  1.
        -24    2    1    2    0    0 -0.58368173941E+03 -0.19806291781E+03  0.61916464882E+03  0.87732813973E+03  0.80165516714E+02 0.  0.
    5000000    2    1    2    0    0  0.58368173941E+03  0.19806291781E+03 -0.11274614508E+04  0.14180641014E+04  0.59985263228E+03 0.  0.
        -24    2    4    4    0    0  0.63884792770E+03  0.81913571589E+02 -0.64923909646E+03  0.91822842174E+03  0.82434957241E+02 0.  0.
         24    2    4    4    0    0 -0.55166188291E+02  0.11614934622E+03 -0.47822235431E+03  0.49983567969E+03  0.67860942908E+02 0.  0.
         13    1    5    5    0    0  0.26957919879E+03  0.99414936167E+01 -0.31763660757E+03  0.41673107897E+03  0.00000000000E+00 0. -1.
        -14    1    5    5    0    0  0.36926872891E+03  0.71972077972E+02 -0.33160248890E+03  0.50149734277E+03  0.00000000000E+00 0.  1.
         15    1    3    3    0    0 -0.42684034281E+03 -0.11145818997E+03  0.41467171092E+03  0.60545139518E+03  0.17770000000E+01 0. -1.
        -16    1    3    3    0    0 -0.15684139660E+03 -0.86604727839E+02  0.20449293790E+03  0.27187674455E+03  0.00000000000E+00 0.  1.
          2    1    6    6  502    0 -0.35620730116E+02  0.12067816033E+02 -0.16364449826E+03  0.16791066198E+03  0.00000000000E+00 0. -1.
         -1    1    6    6    0  502 -0.19545458175E+02  0.10408153019E+03 -0.31457785605E+03  0.33192501771E+03  0.00000000000E+00 0.  1.
<mgrwt>
<rscale>  0 0.70490485E+03</rscale>
<asrwt>0</asrwt>
<pdfrwt beam="1">  1        1 0.13746888E+00 0.70490485E+03</pdfrwt>
<pdfrwt beam="2">  1       -2 0.21566839E+00 0.70490485E+03</pdfrwt>
<totfact> 0.17692798E+00</totfact>
</mgrwt>
</event>
<event>
12    3  0.1176505E-007  0.6058958E+03  0.7818608E-02  0.9893249E-01
          1   -1    0    0  501    0  0.00000000000E+00  0.00000000000E+00  0.20673871881E+04  0.20673871881E+04  0.00000000000E+00 0. -1.
         -2   -1    0    0    0  501 -0.00000000000E+00 -0.00000000000E+00 -0.36831454378E+03  0.36831454378E+03  0.00000000000E+00 0.  1.
        -24    2    1    2    0    0 -0.84955496305E+02  0.58740445919E+03  0.14292828338E+04  0.15496668956E+04  0.79728497409E+02 0.  0.
    5000000    2    1    2    0    0  0.84955496305E+02 -0.58740445919E+03  0.26978981052E+03  0.88603483629E+03  0.60000812846E+03 0.  0.
        -24    2    4    4    0    0 -0.14553442582E+02 -0.21421136223E+03  0.40827525911E+03  0.46851831309E+03  0.81990317104E+02 0.  0.
         24    2    4    4    0    0  0.99508938886E+02 -0.37319309696E+03 -0.13848544859E+03  0.41751652319E+03  0.77244489308E+02 0.  0.
         11    1    5    5    0    0 -0.40462097708E+02 -0.17501009584E+03  0.35217341913E+03  0.39533761792E+03  0.00000000000E+00 0. -1.
        -12    1    5    5    0    0  0.25908655127E+02 -0.39201266390E+02  0.56101839983E+02  0.73180695177E+02  0.00000000000E+00 0.  1.
         15    1    3    3    0    0 -0.83360444391E+02  0.33528455741E+03  0.77689438104E+03  0.85025451198E+03  0.17770000000E+01 0. -1.
        -16    1    3    3    0    0 -0.15950519137E+01  0.25211990178E+03  0.65238845279E+03  0.69941238365E+03  0.00000000000E+00 0.  1.
          2    1    6    6  502    0  0.45930501570E+02 -0.11445740592E+03 -0.79670780347E+02  0.14682486841E+03  0.00000000000E+00 0. -1.
         -1    1    6    6    0  502  0.53578437316E+02 -0.25873569105E+03 -0.58814668247E+02  0.27069165478E+03  0.00000000000E+00 0.  1.
<mgrwt>
<rscale>  0 0.60589580E+03</rscale>
<asrwt>0</asrwt>
<pdfrwt beam="1">  1        1 0.31805956E+00 0.60589580E+03</pdfrwt>
<pdfrwt beam="2">  1       -2 0.56663777E-01 0.60589580E+03</pdfrwt>
<totfact> 0.73627264E+00</totfact>
</mgrwt>
</event>
<event>
12    3  0.1176505E-007  0.1651797E+04  0.7818608E-02  0.8789344E-01
         -2   -1    0    0    0  501 -0.00000000000E+00  0.00000000000E+00  0.97900032754E+03  0.97900032754E+03  0.00000000000E+00 0.  1.
          1   -1    0    0  501    0  0.00000000000E+00 -0.00000000000E+00 -0.32628068020E+04  0.32628068020E+04  0.00000000000E+00 0. -1.
        -24    2    1    2    0    0 -0.32325077060E+03  0.15836684281E+04 -0.18619437261E+04  0.24668361020E+04  0.77130822991E+02 0.  0.
    5000000    2    1    2    0    0  0.32325077060E+03 -0.15836684281E+04 -0.42186274832E+03  0.17749710276E+04  0.60004768095E+03 0.  0.
        -24    2    4    4    0    0  0.30075603177E+03 -0.40027577328E+03  0.24128067422E+02  0.50765392905E+03  0.80345894204E+02 0.  0.
         24    2    4    4    0    0  0.22494738836E+02 -0.11833926548E+04 -0.44599081574E+03  0.12673170985E+04  0.79124153822E+02 0.  0.
         11    1    5    5    0    0  0.18222332553E+03 -0.19883470966E+03  0.43229987091E+02  0.27314723853E+03  0.00000000000E+00 0. -1.
        -12    1    5    5    0    0  0.11853270624E+03 -0.20144106362E+03 -0.19101919669E+02  0.23450669052E+03  0.00000000000E+00 0.  1.
         15    1    3    3    0    0 -0.26096750681E+03  0.13264933815E+04 -0.15968944678E+04  0.20923106437E+04  0.17770000000E+01 0. -1.
        -16    1    3    3    0    0 -0.62283263795E+02  0.25717504663E+03 -0.26504925837E+03  0.37452545831E+03  0.00000000000E+00 0.  1.
          2    1    6    6  502    0  0.58485760978E+01 -0.50491012569E+03 -0.23202440313E+03  0.55570114676E+03  0.00000000000E+00 0. -1.
         -1    1    6    6    0  502  0.16646162738E+02 -0.67848252913E+03 -0.21396641261E+03  0.71161595176E+03  0.00000000000E+00 0.  1.
<mgrwt>
<rscale>  0 0.16517969E+04</rscale>
<asrwt>0</asrwt>
<pdfrwt beam="1">  1        1 0.50197028E+00 0.16517969E+04</pdfrwt>
<pdfrwt beam="2">  1       -2 0.15061543E+00 0.16517969E+04</pdfrwt>
<totfact> 0.92547828E-02</totfact>
</mgrwt>
</event>
<event>
12    3  0.1176505E-007  0.1072884E+04  0.7818608E-02  0.9232031E-01
         -2   -1    0    0    0  501 -0.00000000000E+00  0.00000000000E+00  0.57247642770E+03  0.57247642770E+03  0.00000000000E+00 0.  1.
          1   -1    0    0  501    0  0.00000000000E+00 -0.00000000000E+00 -0.23870795356E+04  0.23870795356E+04  0.00000000000E+00 0. -1.
        -24    2    1    2    0    0  0.65213512436E+03  0.80615089270E+03 -0.42143492638E+03  0.11221238491E+04  0.79969077597E+02 0.  0.
    5000000    2    1    2    0    0 -0.65213512436E+03 -0.80615089270E+03 -0.13931681815E+04  0.18374321142E+04  0.60006642128E+03 0.  0.
        -24    2    4    4    0    0 -0.50492388348E+03 -0.32782621208E+03 -0.10876985243E+04  0.12457967666E+04  0.80643353176E+02 0.  0.
         24    2    4    4    0    0 -0.14721124089E+03 -0.47832468063E+03 -0.30546965719E+03  0.59163534757E+03  0.79088706457E+02 0.  0.
         11    1    5    5    0    0 -0.33474639562E+03 -0.18939794521E+03 -0.75438038151E+03  0.84676826289E+03  0.00000000000E+00 0. -1.
        -12    1    5    5    0    0 -0.17017748786E+03 -0.13842826686E+03 -0.33331814284E+03  0.39902850373E+03  0.00000000000E+00 0.  1.
         15    1    3    3    0    0  0.20604575881E+03  0.19884685561E+03 -0.12268986960E+03  0.31152991596E+03  0.17770000000E+01 0. -1.
        -16    1    3    3    0    0  0.44608936556E+03  0.60730403709E+03 -0.29874505679E+03  0.81059393317E+03  0.00000000000E+00 0.  1.
          4    1    6    6  502    0 -0.88703392314E+02 -0.22381181426E+03 -0.18713073485E+03  0.30492282948E+03  0.00000000000E+00 0. -1.
         -3    1    6    6    0  502 -0.58507848572E+02 -0.25451286637E+03 -0.11833892235E+03  0.28671251809E+03  0.00000000000E+00 0.  1.
<mgrwt>
<rscale>  0 0.10728845E+04</rscale>
<asrwt>0</asrwt>
<pdfrwt beam="1">  1        1 0.36724300E+00 0.10728845E+04</pdfrwt>
<pdfrwt beam="2">  1       -2 0.88073298E-01 0.10728845E+04</pdfrwt>
<totfact> 0.15852006E+00</totfact>
</mgrwt>
</event>
<event>
12    3  0.1176505E-007  0.1149887E+04  0.7818608E-02  0.9157888E-01
          1   -1    0    0  501    0  0.00000000000E+00  0.00000000000E+00  0.10440543145E+04  0.10440543145E+04  0.00000000000E+00 0. -1.
         -2   -1    0    0    0  501 -0.00000000000E+00 -0.00000000000E+00 -0.14899667444E+04  0.14899667444E+04  0.00000000000E+00 0.  1.
        -24    2    1    2    0    0  0.10155377223E+04 -0.36838932476E+03 -0.67650950315E+03  0.12769936428E+04  0.77589277463E+02 0.  0.
    5000000    2    1    2    0    0 -0.10155377223E+04  0.36838932476E+03  0.23059707323E+03  0.12570274160E+04  0.59992945791E+03 0.  0.
        -24    2    4    4    0    0  0.58965642149E+02  0.56953876905E+02  0.19663054810E+02  0.11561673673E+03  0.79119549032E+02 0.  0.
         24    2    4    4    0    0 -0.10745033644E+04  0.31143544786E+03  0.21093401842E+03  0.11414106793E+04  0.82314399197E+02 0.  0.
         13    1    5    5    0    0  0.26826237498E+02  0.60276346932E+02 -0.15593480440E+02  0.67794112207E+02  0.00000000000E+00 0. -1.
        -14    1    5    5    0    0  0.32139404651E+02 -0.33224700264E+01  0.35256535250E+02  0.47822624522E+02  0.00000000000E+00 0.  1.
         15    1    3    3    0    0  0.63916476799E+03 -0.23910345264E+03 -0.47025543848E+03  0.82876136303E+03  0.17770000000E+01 0. -1.
        -16    1    3    3    0    0  0.37637295430E+03 -0.12928587212E+03 -0.20625406467E+03  0.44823227980E+03  0.00000000000E+00 0.  1.
          2    1    6    6  502    0 -0.42005309710E+03  0.84853676608E+02  0.61787485843E+02  0.43296933405E+03  0.00000000000E+00 0. -1.
         -1    1    6    6    0  502 -0.65445026734E+03  0.22658177125E+03  0.14914653258E+03  0.70844134526E+03  0.00000000000E+00 0.  1.
<mgrwt>
<rscale>  0 0.11498869E+04</rscale>
<asrwt>0</asrwt>
<pdfrwt beam="1">  1        1 0.16062374E+00 0.11498869E+04</pdfrwt>
<pdfrwt beam="2">  1       -2 0.22922565E+00 0.11498869E+04</pdfrwt>
<totfact> 0.10402239E+00</totfact>
</mgrwt>
</event>
<event>
12    3  0.1176505E-007  0.7961888E+03  0.7818608E-02  0.9565550E-01
         -2   -1    0    0    0  501 -0.00000000000E+00  0.00000000000E+00  0.15825393124E+04  0.15825393124E+04  0.00000000000E+00 0.  1.
          1   -1    0    0  501    0  0.00000000000E+00 -0.00000000000E+00 -0.55978908838E+03  0.55978908838E+03  0.00000000000E+00 0. -1.
        -24    2    1    2    0    0 -0.51749209583E+03  0.56262855233E+03  0.54526494730E+02  0.77055360542E+03  0.80192038599E+02 0.  0.
    5000000    2    1    2    0    0  0.51749209583E+03 -0.56262855233E+03  0.96822372927E+03  0.13717747953E+04  0.59996661747E+03 0.  0.
        -24    2    4    4    0    0  0.44073845303E+02 -0.23370716221E+03  0.10423634370E+02  0.25105032150E+03  0.79724966352E+02 0.  0.
         24    2    4    4    0    0  0.47341825052E+03 -0.32892139012E+03  0.95780009490E+03  0.11207244739E+04  0.79550007454E+02 0.  0.
         11    1    5    5    0    0  0.61058277258E+02 -0.13731404930E+03  0.24180613853E+02  0.15221026064E+03  0.00000000000E+00 0. -1.
        -12    1    5    5    0    0 -0.16984431955E+02 -0.96393112913E+02 -0.13756979484E+02  0.98840060858E+02  0.00000000000E+00 0.  1.
         15    1    3    3    0    0 -0.35561952486E+03  0.37867742928E+03 -0.19570908329E+00  0.51948535873E+03  0.17770000000E+01 0. -1.
        -16    1    3    3    0    0 -0.16187257097E+03  0.18395112305E+03  0.54722203813E+02  0.25106824669E+03  0.00000000000E+00 0.  1.
          2    1    6    6  502    0  0.32932165490E+03 -0.26199032180E+03  0.73735401607E+03  0.84898917903E+03  0.00000000000E+00 0. -1.
         -3    1    6    6    0  502  0.14409659562E+03 -0.66931068318E+02  0.22044607884E+03  0.27173529482E+03  0.00000000000E+00 0.  1.
<mgrwt>
<rscale>  0 0.79618885E+03</rscale>
<asrwt>0</asrwt>
<pdfrwt beam="1">  1        1 0.86121399E-01 0.79618885E+03</pdfrwt>
<pdfrwt beam="2">  1       -2 0.24346758E+00 0.79618885E+03</pdfrwt>
<totfact> 0.23991854E+00</totfact>
</mgrwt>
</event>
<event>
12    3  0.1176505E-007  0.9951466E+03  0.7818608E-02  0.9313884E-01
          1   -1    0    0  501    0  0.00000000000E+00  0.00000000000E+00  0.26643644466E+04  0.26643644466E+04  0.00000000000E+00 0. -1.
         -2   -1    0    0    0  501 -0.00000000000E+00 -0.00000000000E+00 -0.48544090806E+03  0.48544090806E+03  0.00000000000E+00 0.  1.
        -24    2    1    2    0    0  0.49352018937E+03 -0.84082094476E+03  0.45116724093E+03  0.10772143563E+04  0.79352703994E+02 0.  0.
    5000000    2    1    2    0    0 -0.49352018937E+03  0.84082094476E+03  0.17277562976E+04  0.20725909984E+04  0.59995798533E+03 0.  0.
        -24    2    4    4    0    0 -0.44427307703E+03  0.50234294038E+03  0.15227502423E+04  0.16658301722E+04  0.80590727089E+02 0.  0.
         24    2    4    4    0    0 -0.49247112342E+02  0.33847800438E+03  0.20500605529E+03  0.40676082621E+03  0.80213773826E+02 0.  0.
         11    1    5    5    0    0 -0.19314694949E+03  0.23319777140E+03  0.59234079299E+03  0.66524774312E+03  0.00000000000E+00 0. -1.
        -12    1    5    5    0    0 -0.25112612753E+03  0.26914516897E+03  0.93040944934E+03  0.10005824291E+04  0.00000000000E+00 0.  1.
         15    1    3    3    0    0  0.35631847737E+03 -0.54717949544E+03  0.27732557728E+03  0.70942292822E+03  0.17770000000E+01 0. -1.
        -16    1    3    3    0    0  0.13720171200E+03 -0.29364144932E+03  0.17384166365E+03  0.36779142806E+03  0.00000000000E+00 0.  1.
          4    1    6    6  502    0 -0.44203574612E+02  0.26592836122E+03  0.19638902034E+03  0.33352735513E+03  0.00000000000E+00 0. -1.
         -3    1    6    6    0  502 -0.50435377307E+01  0.72549643160E+02  0.86170349522E+01  0.73233471083E+02  0.00000000000E+00 0.  1.
<mgrwt>
<rscale>  0 0.99514658E+03</rscale>
<asrwt>0</asrwt>
<pdfrwt beam="1">  1        1 0.40990221E+00 0.99514658E+03</pdfrwt>
<pdfrwt beam="2">  1       -2 0.74683218E-01 0.99514658E+03</pdfrwt>
<totfact> 0.14991870E+00</totfact>
</mgrwt>
</event>
<event>
12    3  0.1176505E-007  0.7512008E+03  0.7818608E-02  0.9633468E-01
          1   -1    0    0  501    0  0.00000000000E+00  0.00000000000E+00  0.14412509854E+04  0.14412509854E+04  0.00000000000E+00 0. -1.
         -2   -1    0    0    0  501 -0.00000000000E+00 -0.00000000000E+00 -0.43857970211E+03  0.43857970211E+03  0.00000000000E+00 0.  1.
        -24    2    1    2    0    0 -0.34617255748E+03  0.55408313678E+03  0.65103398643E+03  0.92579979684E+03  0.80102748538E+02 0.  0.
    5000000    2    1    2    0    0  0.34617255748E+03 -0.55408313678E+03  0.35163729682E+03  0.95403089063E+03  0.59973543312E+03 0.  0.
        -24    2    4    4    0    0 -0.62878025914E+02 -0.38865114225E+03  0.30096597830E+03  0.50186222853E+03  0.79257932188E+02 0.  0.
         24    2    4    4    0    0  0.40905058340E+03 -0.16543199452E+03  0.50671318522E+02  0.45216866209E+03  0.84845694477E+02 0.  0.
         11    1    5    5    0    0 -0.18001004148E+02 -0.27588180685E+03  0.23966998627E+03  0.36589139074E+03  0.00000000000E+00 0. -1.
        -12    1    5    5    0    0 -0.44877021766E+02 -0.11276933540E+03  0.61295992030E+02  0.13597083779E+03  0.00000000000E+00 0.  1.
         15    1    3    3    0    0 -0.10258312042E+03  0.23768098361E+03  0.25120765028E+03  0.36072702678E+03  0.17770000000E+01 0. -1.
        -16    1    3    3    0    0 -0.24358943706E+03  0.31640215317E+03  0.39982633615E+03  0.56507277006E+03  0.00000000000E+00 0.  1.
          4    1    6    6  502    0  0.39791805953E+03 -0.17194393815E+03  0.57989215780E+02  0.43733996972E+03  0.00000000000E+00 0. -1.
         -3    1    6    6    0  502  0.11132523864E+02  0.65119436217E+01 -0.73178972580E+01  0.14828692376E+02  0.00000000000E+00 0.  1.
<mgrwt>
<rscale>  0 0.75120082E+03</rscale>
<asrwt>0</asrwt>
<pdfrwt beam="1">  1        1 0.22173092E+00 0.75120082E+03</pdfrwt>
<pdfrwt beam="2">  1       -2 0.67473801E-01 0.75120082E+03</pdfrwt>
<totfact> 0.13089929E+01</totfact>
</mgrwt>
</event>
<event>
12    3  0.1176505E-007  0.1087410E+04  0.7818608E-02  0.9217551E-01
         -2   -1    0    0    0  501 -0.00000000000E+00  0.00000000000E+00  0.81668417249E+03  0.81668417249E+03  0.00000000000E+00 0.  1.
          1   -1    0    0  501    0  0.00000000000E+00 -0.00000000000E+00 -0.16598597413E+04  0.16598597413E+04  0.00000000000E+00 0. -1.
        -24    2    1    2    0    0  0.88235486086E+03  0.63118526931E+03 -0.43216498900E+03  0.11704482584E+04  0.78978498633E+02 0.  0.
    5000000    2    1    2    0    0 -0.88235486086E+03 -0.63118526931E+03 -0.41101057977E+03  0.13060956553E+04  0.60000934952E+03 0.  0.
        -24    2    4    4    0    0 -0.30323615388E+03 -0.18369956908E+03 -0.43917936134E+03  0.57010993412E+03  0.80306468369E+02 0.  0.
         24    2    4    4    0    0 -0.57911870698E+03 -0.44748570023E+03  0.28168781568E+02  0.73598572120E+03  0.72522912756E+02 0.  0.
         11    1    5    5    0    0 -0.16453910663E+03 -0.10442496890E+03 -0.17793523152E+03  0.26389133816E+03  0.00000000000E+00 0. -1.
        -12    1    5    5    0    0 -0.13869704725E+03 -0.79274600181E+02 -0.26124412982E+03  0.30621859596E+03  0.00000000000E+00 0.  1.
         15    1    3    3    0    0  0.65273579806E+03  0.42601176941E+03 -0.29625602130E+03  0.83385900345E+03  0.17770000000E+01 0. -1.
        -16    1    3    3    0    0  0.22961906280E+03  0.20517349990E+03 -0.13590896770E+03  0.33658925497E+03  0.00000000000E+00 0.  1.
          2    1    6    6  502    0 -0.34927518381E+03 -0.24680179606E+03 -0.14334855951E+02  0.42791327236E+03  0.00000000000E+00 0. -1.
         -1    1    6    6    0  502 -0.22984352318E+03 -0.20068390416E+03  0.42503637519E+02  0.30807244885E+03  0.00000000000E+00 0.  1.
<mgrwt>
<rscale>  0 0.10874097E+04</rscale>
<asrwt>0</asrwt>
<pdfrwt beam="1">  1        1 0.25536304E+00 0.10874097E+04</pdfrwt>
<pdfrwt beam="2">  1       -2 0.12564372E+00 0.10874097E+04</pdfrwt>
<totfact> 0.20876068E+00</totfact>
</mgrwt>
</event>
<event>
12    3  0.1265225E-007  0.1778939E+04  0.7818608E-02  0.8717580E-01
         -2   -1    0    0    0  501 -0.00000000000E+00  0.00000000000E+00  0.16886453349E+04  0.16886453349E+04  0.00000000000E+00 0.  1.
          1   -1    0    0  501    0  0.00000000000E+00 -0.00000000000E+00 -0.20754770491E+04  0.20754770491E+04  0.00000000000E+00 0. -1.
        -24    2    1    2    0    0  0.16493304207E+04  0.61552497616E+03  0.28795163236E+03  0.17856516047E+04  0.80459168616E+02 0.  0.
    5000000    2    1    2    0    0 -0.16493304207E+04 -0.61552497616E+03 -0.67478334655E+03  0.19784707793E+04  0.59987684304E+03 0.  0.
        -24    2    4    4    0    0 -0.59446841289E+03 -0.39719329186E+03 -0.51895032105E+03  0.88710566739E+03  0.80571858447E+02 0.  0.
         24    2    4    4    0    0 -0.10548620078E+04 -0.21833168431E+03 -0.15583302550E+03  0.10913651119E+04  0.79945579946E+02 0.  0.
         11    1    5    5    0    0 -0.46201038717E+03 -0.29350800668E+03 -0.35624359629E+03  0.65307736734E+03  0.00000000000E+00 0. -1.
        -12    1    5    5    0    0 -0.13245802572E+03 -0.10368528517E+03 -0.16270672476E+03  0.23402830004E+03  0.00000000000E+00 0.  1.
         15    1    3    3    0    0  0.43376852143E+03  0.19833426402E+03  0.88516841697E+02  0.48510823479E+03  0.17770000000E+01 0. -1.
        -16    1    3    3    0    0  0.12155618993E+04  0.41719071215E+03  0.19943479067E+03  0.13005433699E+04  0.00000000000E+00 0.  1.
          4    1    6    6  502    0 -0.79822353378E+03 -0.19995379634E+03 -0.11851705268E+03  0.83137754500E+03  0.00000000000E+00 0. -1.
         -3    1    6    6    0  502 -0.25663847405E+03 -0.18377887970E+02 -0.37315972824E+02  0.25998756693E+03  0.00000000000E+00 0.  1.
<mgrwt>
<rscale>  0 0.17789393E+04</rscale>
<asrwt>0</asrwt>
<pdfrwt beam="1">  1        1 0.31930416E+00 0.17789393E+04</pdfrwt>
<pdfrwt beam="2">  1       -2 0.25979159E+00 0.17789393E+04</pdfrwt>
<totfact> 0.11846166E-01</totfact>
</mgrwt>
</event>
<event>
12    3  0.1176505E-007  0.9518389E+03  0.7818608E-02  0.9363004E-01
         -2   -1    0    0    0  501 -0.00000000000E+00  0.00000000000E+00  0.10551084324E+04  0.10551084324E+04  0.00000000000E+00 0.  1.
          1   -1    0    0  501    0  0.00000000000E+00 -0.00000000000E+00 -0.42246065955E+04  0.42246065955E+04  0.00000000000E+00 0. -1.
        -24    2    1    2    0    0  0.52500901841E+03  0.69235989574E+03  0.79271509988E+03  0.11792306797E+04  0.84800186948E+02 0.  0.
    5000000    2    1    2    0    0 -0.52500901841E+03 -0.69235989574E+03 -0.39622132629E+04  0.41004843482E+04  0.59986769746E+03 0.  0.
        -24    2    4    4    0    0 -0.55267193963E+03 -0.28809352004E+03 -0.27519571578E+04  0.28227662790E+04  0.79354385842E+02 0.  0.
         24    2    4    4    0    0  0.27662921220E+02 -0.40426637570E+03 -0.12102561051E+04  0.12777180692E+04  0.60391097001E+02 0.  0.
         13    1    5    5    0    0 -0.18686519551E+03 -0.90437255706E+02 -0.10894548478E+04  0.11090578723E+04  0.00000000000E+00 0. -1.
        -14    1    5    5    0    0 -0.36580674412E+03 -0.19765626433E+03 -0.16625023099E+04  0.17137084068E+04  0.00000000000E+00 0.  1.
         15    1    3    3    0    0  0.30127063570E+03  0.33625348299E+03  0.43849551917E+03  0.62937419618E+03  0.17770000000E+01 0. -1.
        -16    1    3    3    0    0  0.22373838272E+03  0.35610641275E+03  0.35421958071E+03  0.54985648351E+03  0.00000000000E+00 0.  1.
          2    1    6    6  502    0  0.41569554477E+02 -0.25868638291E+03 -0.82684000627E+03  0.86735867352E+03  0.00000000000E+00 0. -1.
         -1    1    6    6    0  502 -0.13906633256E+02 -0.14557999279E+03 -0.38341609888E+03  0.41035939569E+03  0.00000000000E+00 0.  1.
<mgrwt>
<rscale>  0 0.95183895E+03</rscale>
<asrwt>0</asrwt>
<pdfrwt beam="1">  1        1 0.64993948E+00 0.95183895E+03</pdfrwt>
<pdfrwt beam="2">  1       -2 0.16232437E+00 0.95183895E+03</pdfrwt>
<totfact> 0.13590123E-02</totfact>
</mgrwt>
</event>
<event>
12    3  0.1176505E-007  0.8044928E+03  0.7818608E-02  0.9553537E-01
         -4   -1    0    0    0  501 -0.00000000000E+00  0.00000000000E+00  0.17280067937E+04  0.17280067937E+04  0.00000000000E+00 0.  1.
          3   -1    0    0  501    0  0.00000000000E+00 -0.00000000000E+00 -0.40116723079E+03  0.40116723079E+03  0.00000000000E+00 0. -1.
        -24    2    1    2    0    0  0.68904652444E+03  0.16971901507E+03  0.74920391871E+03  0.10350040631E+04  0.79606795841E+02 0.  0.
    5000000    2    1    2    0    0 -0.68904652444E+03 -0.16971901507E+03  0.57763564423E+03  0.10941699614E+04  0.59996275720E+03 0.  0.
        -24    2    4    4    0    0 -0.16549971543E+03  0.19161494081E+03  0.62982752137E+02  0.27205622356E+03  0.77079960843E+02 0.  0.
         24    2    4    4    0    0 -0.52354680901E+03 -0.36133395588E+03  0.51465289209E+03  0.82211373784E+03  0.79623549955E+02 0.  0.
         13    1    5    5    0    0 -0.10991747110E+03  0.13996462363E+03  0.78664872830E+02  0.19457674203E+03  0.00000000000E+00 0. -1.
        -14    1    5    5    0    0 -0.55582244325E+02  0.51650317181E+02 -0.15682120693E+02  0.77479481533E+02  0.00000000000E+00 0.  1.
         15    1    3    3    0    0  0.46864370975E+03  0.15312313832E+03  0.51242901883E+03  0.71109793928E+03  0.17770000000E+01 0. -1.
        -16    1    3    3    0    0  0.22040281469E+03  0.16595876745E+02  0.23677489988E+03  0.32390612384E+03  0.00000000000E+00 0.  1.
          2    1    6    6  502    0 -0.59161393186E+02 -0.12981696285E+02  0.47516323431E+02  0.76983088237E+02  0.00000000000E+00 0. -1.
         -1    1    6    6    0  502 -0.46438541583E+03 -0.34835225959E+03  0.46713656866E+03  0.74513064960E+03  0.00000000000E+00 0.  1.
<mgrwt>
<rscale>  0 0.80449275E+03</rscale>
<asrwt>0</asrwt>
<pdfrwt beam="1">  1        3 0.61718036E-01 0.80449275E+03</pdfrwt>
<pdfrwt beam="2">  1       -4 0.26584720E+00 0.80449275E+03</pdfrwt>
<totfact> 0.29474578E-01</totfact>
</mgrwt>
</event>
<event>
12    3  0.1176505E-007  0.8540776E+03  0.7818608E-02  0.9484880E-01
         -2   -1    0    0    0  501 -0.00000000000E+00  0.00000000000E+00  0.81750490153E+03  0.81750490153E+03  0.00000000000E+00 0.  1.
          1   -1    0    0  501    0  0.00000000000E+00 -0.00000000000E+00 -0.10413890193E+04  0.10413890193E+04  0.00000000000E+00 0. -1.
        -24    2    1    2    0    0  0.71950906191E+03 -0.28010063169E+03  0.18666381817E+03  0.79832240641E+03  0.79533826303E+02 0.  0.
    5000000    2    1    2    0    0 -0.71950906191E+03  0.28010063169E+03 -0.41054793598E+03  0.10605715145E+04  0.60009388891E+03 0.  0.
        -24    2    4    4    0    0 -0.64527891473E+03  0.41996398703E+03 -0.42248443454E+03  0.88173577664E+03  0.78805165919E+02 0.  0.
         24    2    4    4    0    0 -0.74230147180E+02 -0.13986335535E+03  0.11936498565E+02  0.17883573782E+03  0.82267054188E+02 0.  0.
         11    1    5    5    0    0 -0.31879941684E+03  0.23124232594E+03 -0.25451648884E+03  0.46891867587E+03  0.00000000000E+00 0. -1.
        -12    1    5    5    0    0 -0.32647949788E+03  0.18872166109E+03 -0.16796794570E+03  0.41281710077E+03  0.00000000000E+00 0.  1.
         15    1    3    3    0    0  0.23897021391E+03 -0.13139040848E+03  0.52607455894E+02  0.27774251515E+03  0.17770000000E+01 0. -1.
        -16    1    3    3    0    0  0.48053884800E+03 -0.14871022321E+03  0.13405636227E+03  0.52057989126E+03  0.00000000000E+00 0.  1.
          2    1    6    6  502    0  0.41233625477E+00 -0.21786809651E+02 -0.26156447407E+02  0.34044013231E+02  0.00000000000E+00 0. -1.
         -1    1    6    6    0  502 -0.74642483435E+02 -0.11807654569E+03  0.38092945972E+02  0.14479172459E+03  0.00000000000E+00 0.  1.
<mgrwt>
<rscale>  0 0.85407759E+03</rscale>
<asrwt>0</asrwt>
<pdfrwt beam="1">  1        1 0.16021370E+00 0.85407759E+03</pdfrwt>
<pdfrwt beam="2">  1       -2 0.12576998E+00 0.85407759E+03</pdfrwt>
<totfact> 0.58887854E+00</totfact>
</mgrwt>
</event>
<event>
12    3  0.1176505E-007  0.7638979E+03  0.7818608E-02  0.9613795E-01
          1   -1    0    0  501    0  0.00000000000E+00  0.00000000000E+00  0.27813174252E+04  0.27813174252E+04  0.00000000000E+00 0. -1.
         -4   -1    0    0    0  501 -0.00000000000E+00 -0.00000000000E+00 -0.27376097684E+03  0.27376097684E+03  0.00000000000E+00 0.  1.
        -24    2    1    2    0    0  0.67698190491E+03 -0.69399178839E+02  0.17280521994E+04  0.18589650415E+04  0.80410673210E+02 0.  0.
    5000000    2    1    2    0    0 -0.67698190491E+03  0.69399178839E+02  0.77950424896E+03  0.11961133605E+04  0.59994962397E+03 0.  0.
        -24    2    4    4    0    0 -0.42901376432E+03 -0.19775947527E+03  0.63212255307E+03  0.79307771396E+03  0.78941232864E+02 0.  0.
         24    2    4    4    0    0 -0.24796814059E+03  0.26715865410E+03  0.14738169590E+03  0.40303564650E+03  0.88625181807E+02 0.  0.
         11    1    5    5    0    0 -0.21386981545E+03 -0.56994375547E+02  0.27417014055E+03  0.35236050115E+03  0.00000000000E+00 0. -1.
        -12    1    5    5    0    0 -0.21514394887E+03 -0.14076509972E+03  0.35795241252E+03  0.44071721280E+03  0.00000000000E+00 0.  1.
         15    1    3    3    0    0  0.21636986366E+03 -0.42699788140E+02  0.47617557038E+03  0.52477187555E+03  0.17770000000E+01 0. -1.
        -16    1    3    3    0    0  0.46061204125E+03 -0.26699390699E+02  0.12518766290E+04  0.13341931660E+04  0.00000000000E+00 0.  1.
          2    1    6    6  502    0 -0.81761421565E+02  0.57880816210E+02  0.77907390749E+02  0.12690421772E+03  0.00000000000E+00 0. -1.
         -1    1    6    6    0  502 -0.16620671902E+03  0.20927783789E+03  0.69474305148E+02  0.27613142878E+03  0.00000000000E+00 0.  1.
<mgrwt>
<rscale>  0 0.76389794E+03</rscale>
<asrwt>0</asrwt>
<pdfrwt beam="1">  1        1 0.42789497E+00 0.76389794E+03</pdfrwt>
<pdfrwt beam="2">  1       -4 0.42117075E-01 0.76389794E+03</pdfrwt>
<totfact> 0.24161284E+00</totfact>
</mgrwt>
</event>
<event>
12    3  0.1176505E-007  0.5677642E+03  0.7818608E-02  0.9974638E-01
          1   -1    0    0  501    0  0.00000000000E+00  0.00000000000E+00  0.30754783054E+04  0.30754783054E+04  0.00000000000E+00 0. -1.
         -2   -1    0    0    0  501 -0.00000000000E+00 -0.00000000000E+00 -0.18884214687E+03  0.18884214687E+03  0.00000000000E+00 0.  1.
        -24    2    1    2    0    0 -0.41145631848E+03 -0.84001639705E+02  0.22624550817E+04  0.23024646718E+04  0.79296851748E+02 0.  0.
    5000000    2    1    2    0    0  0.41145631848E+03  0.84001639705E+02  0.62418107686E+03  0.96185578050E+03  0.59934293044E+03 0.  0.
        -24    2    4    4    0    0 -0.39632283681E+02 -0.17991705501E+03  0.14271896689E+03  0.24687618336E+03  0.81475651642E+02 0.  0.
         24    2    4    4    0    0  0.45108860216E+03  0.26391869471E+03  0.48146210998E+03  0.71497959713E+03  0.79095237200E+02 0.  0.
         13    1    5    5    0    0 -0.13621478193E+02 -0.10670421180E+03  0.33162880557E+02  0.11256602565E+03  0.00000000000E+00 0. -1.
        -14    1    5    5    0    0 -0.26010805488E+02 -0.73212843208E+02  0.10955608633E+03  0.13431015771E+03  0.00000000000E+00 0.  1.
         15    1    3    3    0    0 -0.30059486986E+03 -0.26194998696E+02  0.15428993180E+04  0.15721275130E+04  0.17770000000E+01 0. -1.
        -16    1    3    3    0    0 -0.11086144862E+03 -0.57806641008E+02  0.71955576364E+03  0.73033715880E+03  0.00000000000E+00 0.  1.
          2    1    6    6  502    0  0.16454529860E+03  0.79582219739E+02  0.21666992227E+03  0.28346841131E+03  0.00000000000E+00 0. -1.
         -3    1    6    6    0  502  0.28654330356E+03  0.18433647498E+03  0.26479218770E+03  0.43151118583E+03  0.00000000000E+00 0.  1.
<mgrwt>
<rscale>  0 0.56776416E+03</rscale>
<asrwt>0</asrwt>
<pdfrwt beam="1">  1        1 0.47315047E+00 0.56776416E+03</pdfrwt>
<pdfrwt beam="2">  1       -2 0.29052640E-01 0.56776416E+03</pdfrwt>
<totfact> 0.55670567E+00</totfact>
</mgrwt>
</event>
<event>
12    3  0.1176505E-007  0.8259949E+03  0.7818608E-02  0.9523134E-01
         -2   -1    0    0    0  501 -0.00000000000E+00  0.00000000000E+00  0.87574059776E+03  0.87574059776E+03  0.00000000000E+00 0.  1.
          1   -1    0    0  501    0  0.00000000000E+00 -0.00000000000E+00 -0.96471162960E+03  0.96471162960E+03  0.00000000000E+00 0. -1.
        -24    2    1    2    0    0 -0.61422112532E+03 -0.44844993481E+03 -0.34434972220E+03  0.83852906889E+03  0.78608735952E+02 0.  0.
    5000000    2    1    2    0    0  0.61422112532E+03  0.44844993481E+03  0.25537869035E+03  0.10019231585E+04  0.60021396617E+03 0.  0.
        -24    2    4    4    0    0 -0.75778919334E+02  0.26155288362E+02  0.14181599255E+03  0.18112948979E+03  0.79180632754E+02 0.  0.
         24    2    4    4    0    0  0.69000004466E+03  0.42229464645E+03  0.11356269780E+03  0.82079366869E+03  0.79830634391E+02 0.  0.
         11    1    5    5    0    0 -0.43013769586E+02  0.19793724203E+02  0.14513050805E+02  0.49523777477E+02  0.00000000000E+00 0. -1.
        -12    1    5    5    0    0 -0.32765149748E+02  0.63615641584E+01  0.12730294174E+03  0.13160571231E+03  0.00000000000E+00 0.  1.
         15    1    3    3    0    0 -0.33140714020E+03 -0.27370970981E+03 -0.16185948221E+03  0.45929222455E+03  0.17770000000E+01 0. -1.
        -16    1    3    3    0    0 -0.28281398513E+03 -0.17474022499E+03 -0.18249023998E+03  0.37923684434E+03  0.00000000000E+00 0.  1.
          4    1    6    6  502    0  0.21957289003E+03  0.13097316528E+03 -0.12987985459E+01  0.25567149027E+03  0.00000000000E+00 0. -1.
         -3    1    6    6    0  502  0.47042715463E+03  0.29132148116E+03  0.11486149635E+03  0.56512217842E+03  0.00000000000E+00 0.  1.
<mgrwt>
<rscale>  0 0.82599490E+03</rscale>
<asrwt>0</asrwt>
<pdfrwt beam="1">  1        1 0.14841717E+00 0.82599490E+03</pdfrwt>
<pdfrwt beam="2">  1       -2 0.13472932E+00 0.82599490E+03</pdfrwt>
<totfact> 0.56921164E+00</totfact>
</mgrwt>
</event>
<event>
12    3  0.1176505E-007  0.9861837E+03  0.7818608E-02  0.9323829E-01
         -2   -1    0    0    0  501 -0.00000000000E+00  0.00000000000E+00  0.69616613797E+03  0.69616613797E+03  0.00000000000E+00 0.  1.
          1   -1    0    0  501    0  0.00000000000E+00 -0.00000000000E+00 -0.14284021833E+04  0.14284021833E+04  0.00000000000E+00 0. -1.
        -24    2    1    2    0    0 -0.42105701961E+03 -0.79971594630E+03 -0.28402746077E+03  0.95075385345E+03  0.80166594217E+02 0.  0.
    5000000    2    1    2    0    0  0.42105701961E+03  0.79971594630E+03 -0.44820858452E+03  0.11738144678E+04  0.60009570988E+03 0.  0.
        -24    2    4    4    0    0 -0.48047100755E+02 -0.44187647399E+02 -0.10862752279E+03  0.14717033255E+03  0.74820425033E+02 0.  0.
         24    2    4    4    0    0  0.46910412037E+03  0.84390359370E+03 -0.33958106173E+03  0.10266441352E+04  0.80317692507E+02 0.  0.
         11    1    5    5    0    0  0.15054276422E+02 -0.31058338476E+02 -0.32310198159E+02  0.47277907446E+02  0.00000000000E+00 0. -1.
        -12    1    5    5    0    0 -0.63101377177E+02 -0.13129308923E+02 -0.76317324626E+02  0.99892425101E+02  0.00000000000E+00 0.  1.
         15    1    3    3    0    0 -0.27482687611E+03 -0.46152563733E+03 -0.19718724560E+03  0.57220773615E+03  0.17770000000E+01 0. -1.
        -16    1    3    3    0    0 -0.14623014350E+03 -0.33819030897E+03 -0.86840215170E+02  0.37854611730E+03  0.00000000000E+00 0.  1.
          2    1    6    6  502    0  0.21722428342E+03  0.32391044665E+03 -0.16052616182E+03  0.42174994415E+03  0.00000000000E+00 0. -1.
         -1    1    6    6    0  502  0.25187983695E+03  0.51999314705E+03 -0.17905489991E+03  0.60489419110E+03  0.00000000000E+00 0.  1.
<mgrwt>
<rscale>  0 0.98618375E+03</rscale>
<asrwt>0</asrwt>
<pdfrwt beam="1">  1        1 0.21975418E+00 0.98618375E+03</pdfrwt>
<pdfrwt beam="2">  1       -2 0.10710248E+00 0.98618375E+03</pdfrwt>
<totfact> 0.45177742E+00</totfact>
</mgrwt>
</event>
<event>
12    3  0.1176505E-007  0.1458447E+04  0.7818608E-02  0.8912565E-01
         -2   -1    0    0    0  501 -0.00000000000E+00  0.00000000000E+00  0.16189621781E+04  0.16189621781E+04  0.00000000000E+00 0.  1.
          1   -1    0    0  501    0  0.00000000000E+00 -0.00000000000E+00 -0.13891325398E+04  0.13891325398E+04  0.00000000000E+00 0. -1.
        -24    2    1    2    0    0  0.87644126374E+03  0.11403569283E+04  0.13829490386E+03  0.14470569893E+04  0.79279486288E+02 0.  0.
    5000000    2    1    2    0    0 -0.87644126374E+03 -0.11403569283E+04  0.91534734480E+02  0.15610377287E+04  0.59991413540E+03 0.  0.
        -24    2    4    4    0    0 -0.10278832226E+03 -0.44336119164E+02  0.16545702017E+03  0.21506798454E+03  0.79668574701E+02 0.  0.
         24    2    4    4    0    0 -0.77365294148E+03 -0.10960208092E+04 -0.73922285689E+02  0.13459697441E+04  0.79809521556E+02 0.  0.
         13    1    5    5    0    0 -0.10909507029E+03 -0.20575935301E+02  0.14756494712E+03  0.18466325323E+03  0.00000000000E+00 0. -1.
        -14    1    5    5    0    0  0.63067480292E+01 -0.23760183863E+02  0.17892073046E+02  0.30404731306E+02  0.00000000000E+00 0.  1.
         15    1    3    3    0    0  0.79468871588E+03  0.10042271742E+04  0.13999499417E+03  0.12882562356E+04  0.17770000000E+01 0. -1.
        -16    1    3    3    0    0  0.81752547867E+02  0.13612975415E+03 -0.17000903158E+01  0.15880075363E+03  0.00000000000E+00 0.  1.
          4    1    6    6  502    0 -0.31074040076E+03 -0.41596397389E+03 -0.64953375644E+02  0.52326338038E+03  0.00000000000E+00 0. -1.
         -3    1    6    6    0  502 -0.46291254072E+03 -0.68005683529E+03 -0.89689100452E+01  0.82270636373E+03  0.00000000000E+00 0.  1.
<mgrwt>
<rscale>  0 0.14584470E+04</rscale>
<asrwt>0</asrwt>
<pdfrwt beam="1">  1        1 0.21371270E+00 0.14584470E+04</pdfrwt>
<pdfrwt beam="2">  1       -2 0.24907110E+00 0.14584470E+04</pdfrwt>
<totfact> 0.42293746E-01</totfact>
</mgrwt>
</event>
<event>
12    3  0.1176505E-007  0.8099840E+03  0.7818608E-02  0.9545677E-01
         -2   -1    0    0    0  501 -0.00000000000E+00  0.00000000000E+00  0.67488824792E+03  0.67488824792E+03  0.00000000000E+00 0.  1.
          1   -1    0    0  501    0  0.00000000000E+00 -0.00000000000E+00 -0.22644883085E+04  0.22644883085E+04  0.00000000000E+00 0. -1.
        -24    2    1    2    0    0 -0.51893203274E+03  0.48153050812E+03 -0.18443756764E+04  0.19770403728E+04  0.76189992735E+02 0.  0.
    5000000    2    1    2    0    0  0.51893203274E+03 -0.48153050812E+03  0.25477561587E+03  0.96233618362E+03  0.60001519231E+03 0.  0.
        -24    2    4    4    0    0 -0.70648754472E+02 -0.27436056998E+03  0.20424885066E+02  0.29010264393E+03  0.58969477030E+02 0.  0.
         24    2    4    4    0    0  0.58958078721E+03 -0.20716993815E+03  0.23435073080E+03  0.67223353968E+03  0.80329191011E+02 0.  0.
         13    1    5    5    0    0 -0.23940829329E+02 -0.10379706626E+03  0.36326163388E+02  0.11254592138E+03  0.00000000000E+00 0. -1.
        -14    1    5    5    0    0 -0.46707925143E+02 -0.17056350372E+03 -0.15901278322E+02  0.17755672255E+03  0.00000000000E+00 0.  1.
         15    1    3    3    0    0 -0.16127033641E+03  0.17906663071E+03 -0.70897898981E+03  0.74881729772E+03  0.17770000000E+01 0. -1.
        -16    1    3    3    0    0 -0.35766169633E+03  0.30246387742E+03 -0.11353966866E+04  0.12282230751E+04  0.00000000000E+00 0.  1.
          4    1    6    6  502    0  0.14353675453E+03 -0.26517749198E+02  0.82177898259E+02  0.16750879943E+03  0.00000000000E+00 0. -1.
         -3    1    6    6    0  502  0.44604403268E+03 -0.18065218895E+03  0.15217283254E+03  0.50472474026E+03  0.00000000000E+00 0.  1.
<mgrwt>
<rscale>  0 0.80998395E+03</rscale>
<asrwt>0</asrwt>
<pdfrwt beam="1">  1        1 0.34838281E+00 0.80998395E+03</pdfrwt>
<pdfrwt beam="2">  1       -2 0.10382896E+00 0.80998395E+03</pdfrwt>
<totfact> 0.13568365E+00</totfact>
</mgrwt>
</event>
<event>
12    3  0.1176505E-007  0.6078743E+03  0.7818608E-02  0.9889203E-01
         -2   -1    0    0    0  501 -0.00000000000E+00  0.00000000000E+00  0.55797014299E+03  0.55797014299E+03  0.00000000000E+00 0.  1.
          1   -1    0    0  501    0  0.00000000000E+00 -0.00000000000E+00 -0.13747475235E+04  0.13747475235E+04  0.00000000000E+00 0. -1.
        -24    2    1    2    0    0 -0.52604947641E+03  0.88317949321E+01  0.25999691538E+03  0.59250521850E+03  0.81596480954E+02 0.  0.
    5000000    2    1    2    0    0  0.52604947641E+03 -0.88317949321E+01 -0.10767742959E+04  0.13402124480E+04  0.59993372070E+03 0.  0.
        -24    2    4    4    0    0  0.18894455885E+03  0.19694600064E+03 -0.13420510127E+03  0.31501058373E+03  0.82054159948E+02 0.  0.
         24    2    4    4    0    0  0.33710491755E+03 -0.20577779557E+03 -0.94256919458E+03  0.10252018642E+04  0.81350779184E+02 0.  0.
         11    1    5    5    0    0  0.41856970121E+02  0.98211228829E+02 -0.37314977458E+02  0.11309225861E+03  0.00000000000E+00 0. -1.
        -12    1    5    5    0    0  0.14708758873E+03  0.98734771807E+02 -0.96890123815E+02  0.20191832511E+03  0.00000000000E+00 0.  1.
         15    1    3    3    0    0 -0.33482379598E+03  0.30237379837E+02  0.13082224801E+03  0.36074768440E+03  0.17770000000E+01 0. -1.
        -16    1    3    3    0    0 -0.19122568043E+03 -0.21405584905E+02  0.12917466738E+03  0.23175753410E+03  0.00000000000E+00 0.  1.
          4    1    6    6  502    0  0.20702756299E+02 -0.42280483459E+02 -0.11283281833E+03  0.12225992104E+03  0.00000000000E+00 0. -1.
         -3    1    6    6    0  502  0.31640216125E+03 -0.16349731211E+03 -0.82973637625E+03  0.90294194320E+03  0.00000000000E+00 0.  1.
<mgrwt>
<rscale>  0 0.60787435E+03</rscale>
<asrwt>0</asrwt>
<pdfrwt beam="1">  1        1 0.21149962E+00 0.60787435E+03</pdfrwt>
<pdfrwt beam="2">  1       -2 0.85841561E-01 0.60787435E+03</pdfrwt>
<totfact> 0.87053442E+00</totfact>
</mgrwt>
</event>
<event>
12    3  0.1176505E-007  0.1189166E+04  0.7818608E-02  0.9122393E-01
          1   -1    0    0  501    0  0.00000000000E+00  0.00000000000E+00  0.10537815494E+04  0.10537815494E+04  0.00000000000E+00 0. -1.
         -2   -1    0    0    0  501 -0.00000000000E+00 -0.00000000000E+00 -0.17344012272E+04  0.17344012272E+04  0.00000000000E+00 0.  1.
        -24    2    1    2    0    0 -0.36718315313E+03  0.10697902078E+04  0.30291558199E+03  0.11736570744E+04  0.80240400530E+02 0.  0.
    5000000    2    1    2    0    0  0.36718315313E+03 -0.10697902078E+04 -0.98353525982E+03  0.16145257022E+04  0.60006422916E+03 0.  0.
        -24    2    4    4    0    0  0.12924645068E+03 -0.97518625685E+03 -0.63139149878E+03  0.11716869516E+04  0.80636264982E+02 0.  0.
         24    2    4    4    0    0  0.23793670245E+03 -0.94603950940E+02 -0.35214376104E+03  0.44283875061E+03  0.80852635648E+02 0.  0.
         11    1    5    5    0    0  0.43006626332E+01 -0.50242020702E+02 -0.13013806906E+02  0.52077975320E+02  0.00000000000E+00 0. -1.
        -12    1    5    5    0    0  0.12494578805E+03 -0.92494423615E+03 -0.61837769187E+03  0.11196089763E+04  0.00000000000E+00 0.  1.
         15    1    3    3    0    0 -0.25116733590E+03  0.82673099616E+03  0.21571599778E+03  0.89056483204E+03  0.17770000000E+01 0. -1.
        -16    1    3    3    0    0 -0.11601581723E+03  0.24305921163E+03  0.87199584206E+02  0.28309224238E+03  0.00000000000E+00 0.  1.
          4    1    6    6  502    0  0.21873675634E+02 -0.27100505198E+02 -0.17900793552E+02  0.39157802256E+02  0.00000000000E+00 0. -1.
         -3    1    6    6    0  502  0.21606302682E+03 -0.67503445742E+02 -0.33424296749E+03  0.40368094835E+03  0.00000000000E+00 0.  1.
<mgrwt>
<rscale>  0 0.11891660E+04</rscale>
<asrwt>0</asrwt>
<pdfrwt beam="1">  1        1 0.16212024E+00 0.11891660E+04</pdfrwt>
<pdfrwt beam="2">  1       -2 0.26683095E+00 0.11891660E+04</pdfrwt>
<totfact> 0.59808289E-01</totfact>
</mgrwt>
</event>
<event>
12    3  0.1176505E-007  0.1172209E+04  0.7818608E-02  0.9137536E-01
         -2   -1    0    0    0  501 -0.00000000000E+00  0.00000000000E+00  0.60985591039E+03  0.60985591039E+03  0.00000000000E+00 0.  1.
          1   -1    0    0  501    0  0.00000000000E+00 -0.00000000000E+00 -0.23384609547E+04  0.23384609547E+04  0.00000000000E+00 0. -1.
        -24    2    1    2    0    0  0.89405183419E+03 -0.65658073646E+03 -0.64403758269E+03  0.12848276146E+04  0.74636757586E+02 0.  0.
    5000000    2    1    2    0    0 -0.89405183419E+03  0.65658073646E+03 -0.10845674617E+04  0.16634892505E+04  0.60040233347E+03 0.  0.
        -24    2    4    4    0    0 -0.58263518596E+02 -0.92484807478E+02 -0.13578540610E+03  0.19161764678E+03  0.79571155792E+02 0.  0.
         24    2    4    4    0    0 -0.83578831559E+03  0.74906554394E+03 -0.94878205557E+03  0.14718716038E+04  0.81100748315E+02 0.  0.
         13    1    5    5    0    0 -0.42789611001E+02 -0.64609323394E+02 -0.33403965090E+02  0.84386849466E+02  0.00000000000E+00 0. -1.
        -14    1    5    5    0    0 -0.15473907595E+02 -0.27875484084E+02 -0.10238144101E+03  0.10723079731E+03  0.00000000000E+00 0.  1.
         15    1    3    3    0    0  0.79066038139E+03 -0.60501639870E+03 -0.56354900067E+03  0.11440189313E+04  0.17770000000E+01 0. -1.
        -16    1    3    3    0    0  0.10339145280E+03 -0.51564337763E+02 -0.80488582017E+02  0.14080868324E+03  0.00000000000E+00 0.  1.
          4    1    6    6  502    0 -0.21963576538E+03  0.23296792868E+03 -0.23830230279E+03  0.39912643703E+03  0.00000000000E+00 0. -1.
         -3    1    6    6    0  502 -0.61615255022E+03  0.51609761527E+03 -0.71047975278E+03  0.10727451667E+04  0.00000000000E+00 0.  1.
<mgrwt>
<rscale>  0 0.11722093E+04</rscale>
<asrwt>0</asrwt>
<pdfrwt beam="1">  1        1 0.35976322E+00 0.11722093E+04</pdfrwt>
<pdfrwt beam="2">  1       -2 0.93823986E-01 0.11722093E+04</pdfrwt>
<totfact> 0.14590302E+00</totfact>
</mgrwt>
</event>
<event>
12    3  0.1176505E-007  0.1673843E+04  0.7818608E-02  0.8776425E-01
          1   -1    0    0  501    0  0.00000000000E+00  0.00000000000E+00  0.24546433478E+04  0.24546433478E+04  0.00000000000E+00 0. -1.
         -2   -1    0    0    0  501 -0.00000000000E+00 -0.00000000000E+00 -0.16792376031E+04  0.16792376031E+04  0.00000000000E+00 0.  1.
        -24    2    1    2    0    0 -0.14638946952E+04  0.80143135616E+03 -0.71500467838E+03  0.18172966536E+04  0.77817349368E+02 0.  0.
    5000000    2    1    2    0    0  0.14638946952E+04 -0.80143135616E+03  0.14904104230E+04  0.23165842972E+04  0.59996639882E+03 0.  0.
        -24    2    4    4    0    0  0.11341795583E+04 -0.65026544270E+03  0.80609056289E+03  0.15379799718E+04  0.79949869560E+02 0.  0.
         24    2    4    4    0    0  0.32971513698E+03 -0.15116591346E+03  0.68431986015E+03  0.77860432547E+03  0.79798619631E+02 0.  0.
         13    1    5    5    0    0  0.85754141540E+03 -0.46914229919E+03  0.56807590070E+03  0.11305671165E+04  0.00000000000E+00 0. -1.
        -14    1    5    5    0    0  0.27663814285E+03 -0.18112314351E+03  0.23801466219E+03  0.40741285524E+03  0.00000000000E+00 0.  1.
         15    1    3    3    0    0 -0.80510699779E+03  0.41952132783E+03 -0.35185400240E+03  0.97365282269E+03  0.17770000000E+01 0. -1.
        -16    1    3    3    0    0 -0.65878769745E+03  0.38191002833E+03 -0.36315067597E+03  0.84364383096E+03  0.00000000000E+00 0.  1.
          4    1    6    6  502    0  0.30536838713E+03 -0.11436100031E+03  0.62128933152E+03  0.70166140246E+03  0.00000000000E+00 0. -1.
         -3    1    6    6    0  502  0.24346749847E+02 -0.36804913158E+02  0.63030528636E+02  0.76942923007E+02  0.00000000000E+00 0.  1.
<mgrwt>
<rscale>  0 0.16738429E+04</rscale>
<asrwt>0</asrwt>
<pdfrwt beam="1">  1        1 0.37763744E+00 0.16738429E+04</pdfrwt>
<pdfrwt beam="2">  1       -2 0.25834425E+00 0.16738429E+04</pdfrwt>
<totfact> 0.67137593E-02</totfact>
</mgrwt>
</event>
<event>
12    3  0.1176505E-007  0.6639596E+03  0.7818608E-02  0.9780932E-01
          1   -1    0    0  501    0  0.00000000000E+00  0.00000000000E+00  0.49078456564E+03  0.49078456564E+03  0.00000000000E+00 0. -1.
         -2   -1    0    0    0  501 -0.00000000000E+00 -0.00000000000E+00 -0.12991850210E+04  0.12991850210E+04  0.00000000000E+00 0.  1.
        -24    2    1    2    0    0 -0.57439028198E+03 -0.30201506197E+03 -0.58791173896E+03  0.87924595807E+03  0.79347011799E+02 0.  0.
    5000000    2    1    2    0    0  0.57439028198E+03  0.30201506197E+03 -0.22048871637E+03  0.91072362855E+03  0.59972073489E+03 0.  0.
        -24    2    4    4    0    0  0.93242962694E+02  0.46184476515E+02  0.18458835699E+03  0.22671667765E+03  0.80624651456E+02 0.  0.
         24    2    4    4    0    0  0.48114731929E+03  0.25583058545E+03 -0.40507707336E+03  0.68400695090E+03  0.82619865672E+02 0.  0.
         11    1    5    5    0    0  0.57791815837E+02  0.66489286071E+02  0.10347911341E+03  0.13589939681E+03  0.00000000000E+00 0. -1.
        -12    1    5    5    0    0  0.35451146857E+02 -0.20304809556E+02  0.81109243582E+02  0.90817280839E+02  0.00000000000E+00 0.  1.
         15    1    3    3    0    0 -0.44769313797E+03 -0.20514184262E+03 -0.41490709770E+03  0.64394361464E+03  0.17770000000E+01 0. -1.
        -16    1    3    3    0    0 -0.12669714401E+03 -0.96873219352E+02 -0.17300464125E+03  0.23530234343E+03  0.00000000000E+00 0.  1.
          4    1    6    6  502    0  0.31434033305E+03  0.19248843801E+03 -0.23263498869E+03  0.43586773419E+03  0.00000000000E+00 0. -1.
         -3    1    6    6    0  502  0.16680698624E+03  0.63342147446E+02 -0.17244208468E+03  0.24813921671E+03  0.00000000000E+00 0.  1.
<mgrwt>
<rscale>  0 0.66395957E+03</rscale>
<asrwt>0</asrwt>
<pdfrwt beam="1">  1        1 0.75505318E-01 0.66395957E+03</pdfrwt>
<pdfrwt beam="2">  1       -2 0.19987462E+00 0.66395957E+03</pdfrwt>
<totfact> 0.54947639E+00</totfact>
</mgrwt>
</event>
<event>
12    3  0.1176505E-007  0.6197660E+03  0.7818608E-02  0.9865226E-01
          1   -1    0    0  501    0  0.00000000000E+00  0.00000000000E+00  0.76475121990E+03  0.76475121990E+03  0.00000000000E+00 0. -1.
         -2   -1    0    0    0  501 -0.00000000000E+00 -0.00000000000E+00 -0.88330099723E+03  0.88330099723E+03  0.00000000000E+00 0.  1.
        -24    2    1    2    0    0  0.55591466631E+03  0.26511616901E+03 -0.40506912713E+03  0.74179024070E+03  0.82728859339E+02 0.  0.
    5000000    2    1    2    0    0 -0.55591466631E+03 -0.26511616901E+03  0.28651934980E+03  0.90626197644E+03  0.59990810367E+03 0.  0.
        -24    2    4    4    0    0 -0.37414811046E+03 -0.15365799001E+03  0.46162431824E+03  0.61893049426E+03  0.79877149909E+02 0.  0.
         24    2    4    4    0    0 -0.18176655585E+03 -0.11145817900E+03 -0.17510496845E+03  0.28733148218E+03  0.80222342188E+02 0.  0.
         13    1    5    5    0    0 -0.17142913203E+03 -0.78181227061E+02  0.27431560959E+03  0.33279018200E+03  0.00000000000E+00 0. -1.
        -14    1    5    5    0    0 -0.20271897843E+03 -0.75476762950E+02  0.18730870865E+03  0.28614031226E+03  0.00000000000E+00 0.  1.
         15    1    3    3    0    0  0.12294691388E+03  0.93556831476E+02 -0.81333802195E+02  0.17460575436E+03  0.17770000000E+01 0. -1.
        -16    1    3    3    0    0  0.43296775243E+03  0.17155933753E+03 -0.32373532493E+03  0.56718448634E+03  0.00000000000E+00 0.  1.
          2    1    6    6  502    0 -0.15454493200E+03 -0.10424876468E+03 -0.11013617657E+03  0.21652232756E+03  0.00000000000E+00 0. -1.
         -1    1    6    6    0  502 -0.27221623848E+02 -0.72094143212E+01 -0.64968791874E+02  0.70809154615E+02  0.00000000000E+00 0.  1.
<mgrwt>
<rscale>  0 0.61976598E+03</rscale>
<asrwt>0</asrwt>
<pdfrwt beam="1">  1        1 0.11765403E+00 0.61976598E+03</pdfrwt>
<pdfrwt beam="2">  1       -2 0.13589246E+00 0.61976598E+03</pdfrwt>
<totfact> 0.83864351E+00</totfact>
</mgrwt>
</event>
<event>
12    3  0.1176505E-007  0.5127136E+03  0.7818608E-02  0.1010513E+00
         -2   -1    0    0    0  501 -0.00000000000E+00  0.00000000000E+00  0.27372624699E+03  0.27372624699E+03  0.00000000000E+00 0.  1.
          1   -1    0    0  501    0  0.00000000000E+00 -0.00000000000E+00 -0.12392501171E+04  0.12392501171E+04  0.00000000000E+00 0. -1.
        -24    2    1    2    0    0 -0.29727619348E+03  0.19926509953E+03 -0.64968146926E+03  0.74623292724E+03  0.81840424524E+02 0.  0.
    5000000    2    1    2    0    0  0.29727619348E+03 -0.19926509953E+03 -0.31584240085E+03  0.76674343686E+03  0.60004946520E+03 0.  0.
        -24    2    4    4    0    0  0.14193180700E+03 -0.38589161252E+03 -0.91746569962E+02  0.42860446559E+03  0.78913752701E+02 0.  0.
         24    2    4    4    0    0  0.15534438648E+03  0.18662651300E+03 -0.22409583089E+03  0.33813897127E+03  0.71817050252E+02 0.  0.
         13    1    5    5    0    0 -0.38133215342E+00 -0.32487580542E+02  0.10493206312E+02  0.34142285840E+02  0.00000000000E+00 0. -1.
        -14    1    5    5    0    0  0.14231313916E+03 -0.35340403198E+03 -0.10223977627E+03  0.39446217975E+03  0.00000000000E+00 0.  1.
         15    1    3    3    0    0 -0.26948977813E+03  0.20512229245E+03 -0.60248438405E+03  0.69115156524E+03  0.17770000000E+01 0. -1.
        -16    1    3    3    0    0 -0.27786415348E+02 -0.58571929232E+01 -0.47197085209E+02  0.55081361994E+02  0.00000000000E+00 0.  1.
          2    1    6    6  502    0  0.69666920714E+02  0.59726404291E+02 -0.44048384368E+02  0.10178891579E+03  0.00000000000E+00 0. -1.
         -1    1    6    6    0  502  0.85677465764E+02  0.12690010871E+03 -0.18004744652E+03  0.23635005549E+03  0.00000000000E+00 0.  1.
<mgrwt>
<rscale>  0 0.51271358E+03</rscale>
<asrwt>0</asrwt>
<pdfrwt beam="1">  1        1 0.19065386E+00 0.51271358E+03</pdfrwt>
<pdfrwt beam="2">  1       -2 0.42111731E-01 0.51271358E+03</pdfrwt>
<totfact> 0.49343011E+01</totfact>
</mgrwt>
</event>
<event>
12    3  0.1176505E-007  0.9546955E+03  0.7818608E-02  0.9359679E-01
          3   -1    0    0  501    0  0.00000000000E+00  0.00000000000E+00  0.21060214883E+04  0.21060214883E+04  0.00000000000E+00 0. -1.
         -2   -1    0    0    0  501 -0.00000000000E+00 -0.00000000000E+00 -0.44056327417E+03  0.44056327417E+03  0.00000000000E+00 0.  1.
        -24    2    1    2    0    0  0.66894074789E+03  0.55181903128E+03  0.79447835468E+03  0.11788646958E+04  0.80871178249E+02 0.  0.
    5000000    2    1    2    0    0 -0.66894074789E+03 -0.55181903128E+03  0.87097985946E+03  0.13677200667E+04  0.60005524558E+03 0.  0.
        -24    2    4    4    0    0 -0.26677552890E+02 -0.35504113955E+03  0.41207352038E+03  0.55079234317E+03  0.82472519687E+02 0.  0.
         24    2    4    4    0    0 -0.64226319500E+03 -0.19677789174E+03  0.45890633908E+03  0.81692772351E+03  0.74513938691E+02 0.  0.
         13    1    5    5    0    0  0.27490794843E+02 -0.17942646423E+03  0.19637055036E+03  0.26741539395E+03  0.00000000000E+00 0. -1.
        -14    1    5    5    0    0 -0.54168347733E+02 -0.17561467531E+03  0.21570297001E+03  0.28337694923E+03  0.00000000000E+00 0.  1.
         15    1    3    3    0    0  0.37048218611E+03  0.25625551963E+03  0.42935523632E+03  0.62231263707E+03  0.17770000000E+01 0. -1.
        -16    1    3    3    0    0  0.29845856178E+03  0.29556351165E+03  0.36512311836E+03  0.55655205874E+03  0.00000000000E+00 0.  1.
          4    1    6    6  502    0 -0.16690451296E+03 -0.28560963145E+02  0.87036270549E+02  0.19038948882E+03  0.00000000000E+00 0. -1.
         -3    1    6    6    0  502 -0.47535868204E+03 -0.16821692859E+03  0.37187006853E+03  0.62653823469E+03  0.00000000000E+00 0.  1.
<mgrwt>
<rscale>  0 0.95469548E+03</rscale>
<asrwt>0</asrwt>
<pdfrwt beam="1">  1        3 0.32400330E+00 0.95469548E+03</pdfrwt>
<pdfrwt beam="2">  1       -2 0.67778966E-01 0.95469548E+03</pdfrwt>
<totfact> 0.23484951E-01</totfact>
</mgrwt>
</event>
<event>
12    3  0.1176505E-007  0.1038184E+04  0.7818608E-02  0.9267629E-01
          1   -1    0    0  501    0  0.00000000000E+00  0.00000000000E+00  0.16545361346E+04  0.16545361346E+04  0.00000000000E+00 0. -1.
         -2   -1    0    0    0  501 -0.00000000000E+00 -0.00000000000E+00 -0.11356695239E+04  0.11356695239E+04  0.00000000000E+00 0.  1.
        -24    2    1    2    0    0 -0.46043648689E+03 -0.91870531033E+03  0.10636558405E+04  0.14814902937E+04  0.86188963438E+02 0.  0.
    5000000    2    1    2    0    0  0.46043648689E+03  0.91870531033E+03 -0.54478922986E+03  0.13087153649E+04  0.59993282591E+03 0.  0.
        -24    2    4    4    0    0  0.15589985527E+03  0.15816597238E+03 -0.41226572005E+03  0.47498475555E+03  0.79537754442E+02 0.  0.
         24    2    4    4    0    0  0.30453663161E+03  0.76053933795E+03 -0.13252350981E+03  0.83373060933E+03  0.79884940442E+02 0.  0.
         11    1    5    5    0    0  0.12645210054E+03  0.13408608094E+03 -0.26436258102E+03  0.32226818813E+03  0.00000000000E+00 0. -1.
        -12    1    5    5    0    0  0.29447754732E+02  0.24079891435E+02 -0.14790313903E+03  0.15271656742E+03  0.00000000000E+00 0.  1.
         15    1    3    3    0    0 -0.28493683139E+03 -0.65495741480E+03  0.74953188638E+03  0.10353547312E+04  0.17770000000E+01 0. -1.
        -16    1    3    3    0    0 -0.17549965550E+03 -0.26374789553E+03  0.31412395417E+03  0.44613556243E+03  0.00000000000E+00 0.  1.
          4    1    6    6  502    0  0.17696174596E+03  0.33712887108E+03 -0.52932253708E+02  0.38441274528E+03  0.00000000000E+00 0. -1.
         -3    1    6    6    0  502  0.12757488565E+03  0.42341046687E+03 -0.79591256098E+02  0.44931786405E+03  0.00000000000E+00 0.  1.
<mgrwt>
<rscale>  0 0.10381838E+04</rscale>
<asrwt>0</asrwt>
<pdfrwt beam="1">  1        1 0.25454402E+00 0.10381838E+04</pdfrwt>
<pdfrwt beam="2">  1       -2 0.17471839E+00 0.10381838E+04</pdfrwt>
<totfact> 0.88142031E-01</totfact>
</mgrwt>
</event>
<event>
12    3  0.1176505E-007  0.8936478E+03  0.7818608E-02  0.9433557E-01
          3   -1    0    0  501    0  0.00000000000E+00  0.00000000000E+00  0.15573736677E+04  0.15573736677E+04  0.00000000000E+00 0. -1.
         -4   -1    0    0    0  501 -0.00000000000E+00 -0.00000000000E+00 -0.77765631437E+03  0.77765631437E+03  0.00000000000E+00 0.  1.
        -24    2    1    2    0    0  0.72065321837E+03 -0.50677657801E+03 -0.17778032553E+03  0.90222903922E+03  0.79043240769E+02 0.  0.
    5000000    2    1    2    0    0 -0.72065321837E+03  0.50677657801E+03  0.95749767882E+03  0.14328009428E+04  0.59996097841E+03 0.  0.
        -24    2    4    4    0    0 -0.22003824552E+03  0.77141475754E+02  0.65986087502E+03  0.70437515088E+03  0.79751752487E+02 0.  0.
         24    2    4    4    0    0 -0.50061497285E+03  0.42963510226E+03  0.29763680380E+03  0.72842579193E+03  0.82551773101E+02 0.  0.
         11    1    5    5    0    0 -0.46762741904E+02  0.47969091096E+02  0.24131751826E+03  0.25044347136E+03  0.00000000000E+00 0. -1.
        -12    1    5    5    0    0 -0.17327550361E+03  0.29172384658E+02  0.41854335676E+03  0.45393167952E+03  0.00000000000E+00 0.  1.
         15    1    3    3    0    0  0.40167042650E+03 -0.31367109973E+03 -0.13271253007E+03  0.52663503843E+03  0.17770000000E+01 0. -1.
        -16    1    3    3    0    0  0.31898279186E+03 -0.19310547828E+03 -0.45067795461E+02  0.37559400080E+03  0.00000000000E+00 0.  1.
          4    1    6    6  502    0 -0.13446540269E+03  0.14930999962E+03  0.12139097759E+03  0.23475559620E+03  0.00000000000E+00 0. -1.
         -3    1    6    6    0  502 -0.36614957017E+03  0.28032510264E+03  0.17624582621E+03  0.49367019574E+03  0.00000000000E+00 0.  1.
<mgrwt>
<rscale>  0 0.89364776E+03</rscale>
<asrwt>0</asrwt>
<pdfrwt beam="1">  1        3 0.23959595E+00 0.89364776E+03</pdfrwt>
<pdfrwt beam="2">  1       -4 0.11963943E+00 0.89364776E+03</pdfrwt>
<totfact> 0.10114996E-01</totfact>
</mgrwt>
</event>
<event>
12    3  0.1176505E-007  0.4519324E+03  0.7818608E-02  0.1027147E+00
          1   -1    0    0  501    0  0.00000000000E+00  0.00000000000E+00  0.24598357437E+04  0.24598357437E+04  0.00000000000E+00 0. -1.
         -2   -1    0    0    0  501 -0.00000000000E+00 -0.00000000000E+00 -0.11106989872E+03  0.11106989872E+03  0.00000000000E+00 0.  1.
        -24    2    1    2    0    0  0.29834104675E+02 -0.29316845298E+03  0.35473607533E+03  0.46780673257E+03  0.78534325451E+02 0.  0.
    5000000    2    1    2    0    0 -0.29834104675E+02  0.29316845298E+03  0.19940297696E+04  0.21030989098E+04  0.60002707168E+03 0.  0.
        -24    2    4    4    0    0  0.53619776482E+02 -0.13934463218E+03  0.98122639024E+03  0.99575447780E+03  0.80185685742E+02 0.  0.
         24    2    4    4    0    0 -0.83453881157E+02  0.43251308517E+03  0.10128033794E+04  0.11073444320E+04  0.80055522877E+02 0.  0.
         11    1    5    5    0    0  0.62337598913E+02 -0.10187638954E+03  0.55015923569E+03  0.56297420864E+03  0.00000000000E+00 0. -1.
        -12    1    5    5    0    0 -0.87178224310E+01 -0.37468242647E+02  0.43106715455E+03  0.43278026916E+03  0.00000000000E+00 0.  1.
         15    1    3    3    0    0  0.50156660146E+02 -0.21954715586E+03  0.29329307501E+03  0.36978457213E+03  0.17770000000E+01 0. -1.
        -16    1    3    3    0    0 -0.20322555472E+02 -0.73621297119E+02  0.61443000323E+02  0.98022160448E+02  0.00000000000E+00 0.  1.
          2    1    6    6  502    0 -0.22708354232E+02  0.26876718612E+03  0.67901916377E+03  0.73062883495E+03  0.00000000000E+00 0. -1.
         -1    1    6    6    0  502 -0.60745526925E+02  0.16374589904E+03  0.33378421560E+03  0.37671559707E+03  0.00000000000E+00 0.  1.
<mgrwt>
<rscale>  0 0.45193238E+03</rscale>
<asrwt>0</asrwt>
<pdfrwt beam="1">  1        1 0.37843623E+00 0.45193238E+03</pdfrwt>
<pdfrwt beam="2">  1       -2 0.17087679E-01 0.45193238E+03</pdfrwt>
<totfact> 0.39001103E+01</totfact>
</mgrwt>
</event>
<event>
12    3  0.1176505E-007  0.6691241E+03  0.7818608E-02  0.9771541E-01
         -2   -1    0    0    0  501 -0.00000000000E+00  0.00000000000E+00  0.39300381527E+03  0.39300381527E+03  0.00000000000E+00 0.  1.
          1   -1    0    0  501    0  0.00000000000E+00 -0.00000000000E+00 -0.28773913314E+04  0.28773913314E+04  0.00000000000E+00 0. -1.
        -24    2    1    2    0    0  0.30462035023E+03  0.50755982645E+03 -0.23398488702E+04  0.24148133948E+04  0.77591630103E+02 0.  0.
    5000000    2    1    2    0    0 -0.30462035023E+03 -0.50755982645E+03 -0.14453864594E+03  0.85558175190E+03  0.60059818416E+03 0.  0.
        -24    2    4    4    0    0 -0.33553008854E+03 -0.57065910897E+03 -0.24391377835E+03  0.71002830743E+03  0.80087496589E+02 0.  0.
         24    2    4    4    0    0  0.30909738315E+02  0.63099282519E+02  0.99375132414E+02  0.14555344447E+03  0.79833933127E+02 0.  0.
         13    1    5    5    0    0 -0.16145476236E+03 -0.33191658905E+03 -0.16433998037E+03  0.40403451774E+03  0.00000000000E+00 0. -1.
        -14    1    5    5    0    0 -0.17407532618E+03 -0.23874251992E+03 -0.79573797980E+02  0.30599378968E+03  0.00000000000E+00 0.  1.
         15    1    3    3    0    0  0.66882740091E+02  0.17852779746E+03 -0.79123415143E+03  0.81387966893E+03  0.17770000000E+01 0. -1.
        -16    1    3    3    0    0  0.23773761014E+03  0.32903202899E+03 -0.15486147188E+04  0.16009337258E+04  0.00000000000E+00 0.  1.
          4    1    6    6  502    0  0.37551063812E+02  0.51638884039E+02  0.22732729968E+02  0.67774875507E+02  0.00000000000E+00 0. -1.
         -3    1    6    6    0  502 -0.66413254973E+01  0.11460398480E+02  0.76642402446E+02  0.77778568966E+02  0.00000000000E+00 0.  1.
<mgrwt>
<rscale>  0 0.66912409E+03</rscale>
<asrwt>0</asrwt>
<pdfrwt beam="1">  1        1 0.44267558E+00 0.66912409E+03</pdfrwt>
<pdfrwt beam="2">  1       -2 0.60462126E-01 0.66912409E+03</pdfrwt>
<totfact> 0.17814108E+00</totfact>
</mgrwt>
</event>
<event>
12    3  0.1176505E-007  0.8644560E+03  0.7818608E-02  0.9471137E-01
          1   -1    0    0  501    0  0.00000000000E+00  0.00000000000E+00  0.18373954689E+04  0.18373954689E+04  0.00000000000E+00 0. -1.
         -2   -1    0    0    0  501 -0.00000000000E+00 -0.00000000000E+00 -0.67009992990E+03  0.67009992990E+03  0.00000000000E+00 0.  1.
        -24    2    1    2    0    0  0.25738605885E+03  0.73288277365E+03  0.13006183957E+04  0.15169857770E+04  0.79201598940E+02 0.  0.
    5000000    2    1    2    0    0 -0.25738605885E+03 -0.73288277365E+03 -0.13332285668E+03  0.99050962179E+03  0.59997465241E+03 0.  0.
        -24    2    4    4    0    0 -0.12186780659E+02 -0.69707908510E+03 -0.18393690751E+03  0.72530597664E+03  0.78537922648E+02 0.  0.
         24    2    4    4    0    0 -0.24519927819E+03 -0.35803688556E+02  0.50614050828E+02  0.26520364516E+03  0.79790983970E+02 0.  0.
         13    1    5    5    0    0  0.26928012354E+02 -0.43987124380E+03 -0.99565345233E+02  0.45180204398E+03  0.00000000000E+00 0. -1.
        -14    1    5    5    0    0 -0.39114793013E+02 -0.25720784130E+03 -0.84371562276E+02  0.27350393266E+03  0.00000000000E+00 0.  1.
         15    1    3    3    0    0  0.14273518823E+03  0.32774104467E+03  0.53999954669E+03  0.64760342376E+03  0.17770000000E+01 0. -1.
        -16    1    3    3    0    0  0.11465087062E+03  0.40514172899E+03  0.76061884903E+03  0.86938235328E+03  0.00000000000E+00 0.  1.
          4    1    6    6  502    0 -0.40772769863E+02  0.49530225321E+01 -0.19246975269E+02  0.45358541108E+02  0.00000000000E+00 0. -1.
         -3    1    6    6    0  502 -0.20442650833E+03 -0.40756711088E+02  0.69861026097E+02  0.21984510405E+03  0.00000000000E+00 0.  1.
<mgrwt>
<rscale>  0 0.86445604E+03</rscale>
<asrwt>0</asrwt>
<pdfrwt beam="1">  1        1 0.28267622E+00 0.86445604E+03</pdfrwt>
<pdfrwt beam="2">  1       -2 0.10309230E+00 0.86445604E+03</pdfrwt>
<totfact> 0.26477937E+00</totfact>
</mgrwt>
</event>
<event>
12    3  0.1176505E-007  0.5087426E+03  0.7818608E-02  0.1011522E+00
          1   -1    0    0  501    0  0.00000000000E+00  0.00000000000E+00  0.16080705904E+04  0.16080705904E+04  0.00000000000E+00 0. -1.
         -2   -1    0    0    0  501 -0.00000000000E+00 -0.00000000000E+00 -0.20240891532E+03  0.20240891532E+03  0.00000000000E+00 0.  1.
        -24    2    1    2    0    0 -0.38519519773E+03 -0.47468851207E+02  0.70899973022E+03  0.81245147672E+03  0.82268781304E+02 0.  0.
    5000000    2    1    2    0    0  0.38519519773E+03  0.47468851207E+02  0.69666194490E+03  0.99802802904E+03  0.60007786919E+03 0.  0.
        -24    2    4    4    0    0 -0.37166386273E+02  0.16965972663E+03  0.27309286981E+02  0.19315854499E+03  0.79991644809E+02 0.  0.
         24    2    4    4    0    0  0.42236158400E+03 -0.12219087542E+03  0.66935265792E+03  0.80486948405E+03  0.80386491500E+02 0.  0.
         13    1    5    5    0    0 -0.21426414262E+02  0.16441821991E+03  0.56879539702E+01  0.16590598267E+03  0.00000000000E+00 0. -1.
        -14    1    5    5    0    0 -0.15739972012E+02  0.52415067168E+01  0.21621333011E+02  0.27252562316E+02  0.00000000000E+00 0.  1.
         15    1    3    3    0    0 -0.28052973290E+03 -0.31867357633E+02  0.43360611435E+03  0.51742620696E+03  0.17770000000E+01 0. -1.
        -16    1    3    3    0    0 -0.10466546483E+03 -0.15601493575E+02  0.27539361588E+03  0.29502526976E+03  0.00000000000E+00 0.  1.
          2    1    6    6  502    0  0.42492426366E+03 -0.12518855765E+03  0.66231981497E+03  0.79680633915E+03  0.00000000000E+00 0. -1.
         -1    1    6    6    0  502 -0.25626796530E+01  0.29976822268E+01  0.70328429435E+01  0.80631448954E+01  0.00000000000E+00 0.  1.
<mgrwt>
<rscale>  0 0.50874256E+03</rscale>
<asrwt>0</asrwt>
<pdfrwt beam="1">  1        1 0.24739547E+00 0.50874256E+03</pdfrwt>
<pdfrwt beam="2">  1       -2 0.31139834E-01 0.50874256E+03</pdfrwt>
<totfact> 0.49000068E+01</totfact>
</mgrwt>
</event>
<event>
12    3  0.1176505E-007  0.6049202E+03  0.7818608E-02  0.9895251E-01
         -2   -1    0    0    0  501 -0.00000000000E+00  0.00000000000E+00  0.28224082552E+03  0.28224082552E+03  0.00000000000E+00 0.  1.
          1   -1    0    0  501    0  0.00000000000E+00 -0.00000000000E+00 -0.20299379007E+04  0.20299379007E+04  0.00000000000E+00 0. -1.
        -24    2    1    2    0    0  0.30333646576E+03 -0.39415130242E+03 -0.13419542688E+04  0.14334183811E+04  0.80490589800E+02 0.  0.
    5000000    2    1    2    0    0 -0.30333646576E+03  0.39415130242E+03 -0.40574280642E+03  0.87876034516E+03  0.60018685307E+03 0.  0.
        -24    2    4    4    0    0  0.10601128819E+03  0.23964362500E+03 -0.32758373111E+03  0.42727135483E+03  0.81131063977E+02 0.  0.
         24    2    4    4    0    0 -0.40934775395E+03  0.15450767742E+03 -0.78159075300E+02  0.45148899032E+03  0.79342682601E+02 0.  0.
         13    1    5    5    0    0  0.52276259121E+02  0.17129657535E+03 -0.16809134760E+03  0.24562171144E+03  0.00000000000E+00 0. -1.
        -14    1    5    5    0    0  0.53735029066E+02  0.68347049659E+02 -0.15949238352E+03  0.18164964339E+03  0.00000000000E+00 0.  1.
         15    1    3    3    0    0  0.16469993810E+02 -0.59863344582E+02 -0.20117255827E+03  0.21054319426E+03  0.17770000000E+01 0. -1.
        -16    1    3    3    0    0  0.28686647195E+03 -0.33428795784E+03 -0.11407817105E+04  0.12228751868E+04  0.00000000000E+00 0.  1.
          2    1    6    6  502    0 -0.71779037939E+02  0.48775195386E+01  0.78131596608E+01  0.72367575254E+02  0.00000000000E+00 0. -1.
         -1    1    6    6    0  502 -0.33756871601E+03  0.14963015788E+03 -0.85972234961E+02  0.37912141507E+03  0.00000000000E+00 0.  1.
<mgrwt>
<rscale>  0 0.60492015E+03</rscale>
<asrwt>0</asrwt>
<pdfrwt beam="1">  1        1 0.31229813E+00 0.60492015E+03</pdfrwt>
<pdfrwt beam="2">  1       -2 0.43421667E-01 0.60492015E+03</pdfrwt>
<totfact> 0.13374242E+01</totfact>
</mgrwt>
</event>
<event>
12    3  0.1176505E-007  0.4018267E+03  0.7818608E-02  0.1043149E+00
         -2   -1    0    0    0  501 -0.00000000000E+00  0.00000000000E+00  0.38860189370E+03  0.38860189370E+03  0.00000000000E+00 0.  1.
          1   -1    0    0  501    0  0.00000000000E+00 -0.00000000000E+00 -0.83449579990E+03  0.83449579990E+03  0.00000000000E+00 0. -1.
        -24    2    1    2    0    0 -0.21909450247E+03  0.31697112398E+03 -0.30094297433E+03  0.49540414870E+03  0.79909338026E+02 0.  0.
    5000000    2    1    2    0    0  0.21909450247E+03 -0.31697112398E+03 -0.14495093187E+03  0.72769354489E+03  0.60004502179E+03 0.  0.
        -24    2    4    4    0    0  0.15958535392E+03 -0.24093534303E+03  0.20047141923E+03  0.36031450969E+03  0.78233185189E+02 0.  0.
         24    2    4    4    0    0  0.59509148554E+02 -0.76035780951E+02 -0.34542235110E+03  0.36737903520E+03  0.79548577097E+02 0.  0.
         11    1    5    5    0    0  0.75087396276E+02 -0.70774808591E+02  0.10675612811E+03  0.14847242673E+03  0.00000000000E+00 0. -1.
        -12    1    5    5    0    0  0.84497957640E+02 -0.17016053444E+03  0.93715291122E+02  0.21184208296E+03  0.00000000000E+00 0.  1.
         15    1    3    3    0    0 -0.72730458016E+02  0.97646138553E+02 -0.14388404482E+03  0.18849473197E+03  0.17770000000E+01 0. -1.
        -16    1    3    3    0    0 -0.14636404445E+03  0.21932498542E+03 -0.15705892951E+03  0.30690941673E+03  0.00000000000E+00 0.  1.
          4    1    6    6  502    0  0.78914676454E+02 -0.67464888744E+02 -0.29120290896E+03  0.30915719555E+03  0.00000000000E+00 0. -1.
         -3    1    6    6    0  502 -0.19405527900E+02 -0.85708922068E+01 -0.54219442138E+02  0.58221839648E+02  0.00000000000E+00 0.  1.
<mgrwt>
<rscale>  0 0.40182669E+03</rscale>
<asrwt>0</asrwt>
<pdfrwt beam="1">  1        1 0.12838397E+00 0.40182669E+03</pdfrwt>
<pdfrwt beam="2">  1       -2 0.59784907E-01 0.40182669E+03</pdfrwt>
<totfact> 0.50038382E+01</totfact>
</mgrwt>
</event>
<event>
12    3  0.1349074E-007  0.5262407E+03  0.7818608E-02  0.1007148E+00
         -2   -1    0    0    0  501 -0.00000000000E+00  0.00000000000E+00  0.62752932760E+03  0.62752932760E+03  0.00000000000E+00 0.  1.
          1   -1    0    0  501    0  0.00000000000E+00 -0.00000000000E+00 -0.70062797418E+03  0.70062797418E+03  0.00000000000E+00 0. -1.
        -24    2    1    2    0    0 -0.13862864912E+03  0.49477011515E+03 -0.12925664026E+03  0.53619850963E+03  0.82378355632E+02 0.  0.
    5000000    2    1    2    0    0  0.13862864912E+03 -0.49477011515E+03  0.56157993676E+02  0.79195879215E+03  0.60002469867E+03 0.  0.
        -24    2    4    4    0    0 -0.18044467120E+02 -0.11023879887E+03  0.28110412994E+03  0.31283403886E+03  0.79796042698E+02 0.  0.
         24    2    4    4    0    0  0.15667311624E+03 -0.38453131629E+03 -0.22494613627E+03  0.47912475329E+03  0.80925684649E+02 0.  0.
         11    1    5    5    0    0 -0.47870408535E+01  0.11734731853E+01  0.97758773892E+02  0.97882943725E+02  0.00000000000E+00 0. -1.
        -12    1    5    5    0    0 -0.13257426267E+02 -0.11141227205E+03  0.18334535605E+03  0.21495109514E+03  0.00000000000E+00 0.  1.
         15    1    3    3    0    0 -0.54711733379E+02  0.22825550492E+03 -0.10040052879E+03  0.25529859617E+03  0.17770000000E+01 0. -1.
        -16    1    3    3    0    0 -0.83916915741E+02  0.26651461023E+03 -0.28856111469E+02  0.28089991346E+03  0.00000000000E+00 0.  1.
          2    1    6    6  502    0  0.10619619972E+03 -0.16702926330E+03 -0.12794151934E+03  0.23568080110E+03  0.00000000000E+00 0. -1.
         -1    1    6    6    0  502  0.50476916516E+02 -0.21750205298E+03 -0.97004616926E+02  0.24344395219E+03  0.00000000000E+00 0.  1.
<mgrwt>
<rscale>  0 0.52624069E+03</rscale>
<asrwt>0</asrwt>
<pdfrwt beam="1">  1        1 0.10778892E+00 0.52624069E+03</pdfrwt>
<pdfrwt beam="2">  1       -2 0.96542973E-01 0.52624069E+03</pdfrwt>
<totfact> 0.22352167E+01</totfact>
</mgrwt>
</event>
<event>
12    3  0.1176505E-007  0.9373712E+03  0.7818608E-02  0.9380035E-01
         -2   -1    0    0    0  501 -0.00000000000E+00  0.00000000000E+00  0.11934734269E+04  0.11934734269E+04  0.00000000000E+00 0.  1.
          1   -1    0    0  501    0  0.00000000000E+00 -0.00000000000E+00 -0.10665102654E+04  0.10665102654E+04  0.00000000000E+00 0. -1.
        -24    2    1    2    0    0  0.22071311933E+03  0.81122006539E+03 -0.56483421335E+03  0.10168393219E+04  0.90178947079E+02 0.  0.
    5000000    2    1    2    0    0 -0.22071311933E+03 -0.81122006539E+03  0.69179737478E+03  0.12431443704E+04  0.60002670130E+03 0.  0.
        -24    2    4    4    0    0 -0.41134392563E+03 -0.62553322100E+03  0.49136389397E+03  0.89991269029E+03  0.88931086396E+02 0.  0.
         24    2    4    4    0    0  0.19063080630E+03 -0.18568684440E+03  0.20043348081E+03  0.34323168007E+03  0.82551180975E+02 0.  0.
         11    1    5    5    0    0 -0.38303883096E+03 -0.53939560886E+03  0.41161503131E+03  0.77916192340E+03  0.00000000000E+00 0. -1.
        -12    1    5    5    0    0 -0.28305094675E+02 -0.86137612135E+02  0.79748862662E+02  0.12075076689E+03  0.00000000000E+00 0.  1.
         15    1    3    3    0    0  0.50581303916E+01  0.11341716244E+03 -0.55261954524E+02  0.12627778413E+03  0.17770000000E+01 0. -1.
        -16    1    3    3    0    0  0.21565498894E+03  0.69780290296E+03 -0.50957225882E+03  0.89056153779E+03  0.00000000000E+00 0.  1.
          2    1    6    6  502    0  0.68745973443E+02 -0.17584941092E+02  0.48845268037E+02  0.86145802146E+02  0.00000000000E+00 0. -1.
         -1    1    6    6    0  502  0.12188483286E+03 -0.16810190331E+03  0.15158821277E+03  0.25708587792E+03  0.00000000000E+00 0.  1.
<mgrwt>
<rscale>  0 0.93737115E+03</rscale>
<asrwt>0</asrwt>
<pdfrwt beam="1">  1        1 0.16407850E+00 0.93737115E+03</pdfrwt>
<pdfrwt beam="2">  1       -2 0.18361130E+00 0.93737115E+03</pdfrwt>
<totfact> 0.20260027E+00</totfact>
</mgrwt>
</event>
<event>
12    3  0.1176505E-007  0.4970169E+03  0.7818608E-02  0.1014560E+00
         -2   -1    0    0    0  501 -0.00000000000E+00  0.00000000000E+00  0.17055801824E+03  0.17055801824E+03  0.00000000000E+00 0.  1.
          1   -1    0    0  501    0  0.00000000000E+00 -0.00000000000E+00 -0.15037455913E+04  0.15037455913E+04  0.00000000000E+00 0. -1.
        -24    2    1    2    0    0  0.98087634363E+02  0.30635226938E+03 -0.40659676315E+03  0.52449806627E+03  0.79400231385E+02 0.  0.
    5000000    2    1    2    0    0 -0.98087634363E+02 -0.30635226938E+03 -0.92659080994E+03  0.11498055433E+04  0.60000780109E+03 0.  0.
        -24    2    4    4    0    0  0.11497547678E+03 -0.40385272874E+03 -0.51694758061E+03  0.67108922807E+03  0.82520083447E+02 0.  0.
         24    2    4    4    0    0 -0.21306311114E+03  0.97500459351E+02 -0.40964322933E+03  0.47871631523E+03  0.80371053413E+02 0.  0.
         13    1    5    5    0    0  0.41668766742E+02 -0.74789264690E+02 -0.15054328474E+03  0.17318487467E+03  0.00000000000E+00 0. -1.
        -14    1    5    5    0    0  0.73306710033E+02 -0.32906346405E+03 -0.36640429587E+03  0.49790435340E+03  0.00000000000E+00 0.  1.
         15    1    3    3    0    0 -0.25949006470E+01  0.11418598891E+03 -0.14787693140E+03  0.18685801600E+03  0.17770000000E+01 0. -1.
        -16    1    3    3    0    0  0.10068253501E+03  0.19216628047E+03 -0.25871983175E+03  0.33764005027E+03  0.00000000000E+00 0.  1.
          4    1    6    6  502    0 -0.10393817401E+03  0.18928269406E+02 -0.24014477490E+03  0.26235650613E+03  0.00000000000E+00 0. -1.
         -3    1    6    6    0  502 -0.10912493713E+03  0.78572189946E+02 -0.16949845443E+03  0.21635980909E+03  0.00000000000E+00 0.  1.
<mgrwt>
<rscale>  0 0.49701690E+03</rscale>
<asrwt>0</asrwt>
<pdfrwt beam="1">  1        1 0.23134547E+00 0.49701690E+03</pdfrwt>
<pdfrwt beam="2">  1       -2 0.26239696E-01 0.49701690E+03</pdfrwt>
<totfact> 0.78926033E+01</totfact>
</mgrwt>
</event>
<event>
12    3  0.1176505E-007  0.7610024E+03  0.7818608E-02  0.9618246E-01
         -2   -1    0    0    0  501 -0.00000000000E+00  0.00000000000E+00  0.20339645546E+04  0.20339645546E+04  0.00000000000E+00 0.  1.
          1   -1    0    0  501    0  0.00000000000E+00 -0.00000000000E+00 -0.42163152155E+03  0.42163152155E+03  0.00000000000E+00 0. -1.
        -24    2    1    2    0    0  0.67721987659E+03  0.96455087986E+02  0.13387139756E+04  0.15054369585E+04  0.79088446736E+02 0.  0.
    5000000    2    1    2    0    0 -0.67721987659E+03 -0.96455087986E+02  0.27361905749E+03  0.95015911766E+03  0.60000384582E+03 0.  0.
        -24    2    4    4    0    0 -0.17867606292E+03 -0.25374536265E+03  0.27303008756E+03  0.42079860162E+03  0.78830133111E+02 0.  0.
         24    2    4    4    0    0 -0.49854381367E+03  0.15729027466E+03  0.58896992935E+00  0.52936051604E+03  0.83282917832E+02 0.  0.
         13    1    5    5    0    0 -0.10879455571E+03 -0.18877424103E+03  0.14746752290E+03  0.26309435521E+03  0.00000000000E+00 0. -1.
        -14    1    5    5    0    0 -0.69881507209E+02 -0.64971121615E+02  0.12556256466E+03  0.15770424642E+03  0.00000000000E+00 0.  1.
         15    1    3    3    0    0  0.24487500927E+03  0.53286433200E+02  0.41843580745E+03  0.48774470455E+03  0.17770000000E+01 0. -1.
        -16    1    3    3    0    0  0.43234486732E+03  0.43168654786E+02  0.92027816811E+03  0.10176922540E+04  0.00000000000E+00 0.  1.
          4    1    6    6  502    0 -0.26915431063E+03  0.10030803786E+03 -0.38440051937E+02  0.28979886643E+03  0.00000000000E+00 0. -1.
         -3    1    6    6    0  502 -0.22938950304E+03  0.56982236800E+02  0.39029021867E+02  0.23956164961E+03  0.00000000000E+00 0.  1.
<mgrwt>
<rscale>  0 0.76100241E+03</rscale>
<asrwt>0</asrwt>
<pdfrwt beam="1">  1        1 0.64866389E-01 0.76100241E+03</pdfrwt>
<pdfrwt beam="2">  1       -2 0.31291762E+00 0.76100241E+03</pdfrwt>
<totfact> 0.13566732E+00</totfact>
</mgrwt>
</event>
<event>
12    3  0.1176505E-007  0.1026841E+04  0.7818608E-02  0.9279586E-01
          1   -1    0    0  501    0  0.00000000000E+00  0.00000000000E+00  0.75697451160E+03  0.75697451160E+03  0.00000000000E+00 0. -1.
         -2   -1    0    0    0  501 -0.00000000000E+00 -0.00000000000E+00 -0.15570434555E+04  0.15570434555E+04  0.00000000000E+00 0.  1.
        -24    2    1    2    0    0 -0.85867161862E+03  0.50840963123E+03 -0.45459194730E+03  0.10994587516E+04  0.79739615254E+02 0.  0.
    5000000    2    1    2    0    0  0.85867161862E+03 -0.50840963123E+03 -0.34547699661E+03  0.12145592155E+04  0.60000202583E+03 0.  0.
        -24    2    4    4    0    0  0.77918631774E+03 -0.31382843611E+03 -0.52933960265E+02  0.84555699530E+03  0.80901316889E+02 0.  0.
         24    2    4    4    0    0  0.79485300875E+02 -0.19458119511E+03 -0.29254303635E+03  0.36900222019E+03  0.80009098523E+02 0.  0.
         11    1    5    5    0    0  0.37340922954E+03 -0.12966182881E+03  0.10679667311E+02  0.39542470567E+03  0.00000000000E+00 0. -1.
        -12    1    5    5    0    0  0.40577708820E+03 -0.18416660730E+03 -0.63613627576E+02  0.45013228963E+03  0.00000000000E+00 0.  1.
         15    1    3    3    0    0 -0.15386722128E+03  0.12412064867E+03 -0.74616980268E+02  0.21130998245E+03  0.17770000000E+01 0. -1.
        -16    1    3    3    0    0 -0.70480439734E+03  0.38428898256E+03 -0.37997496703E+03  0.88814876918E+03  0.00000000000E+00 0.  1.
          4    1    6    6  502    0  0.66961065824E+01 -0.50107646033E+02 -0.13085198047E+03  0.14027777738E+03  0.00000000000E+00 0. -1.
         -3    1    6    6    0  502  0.72789194292E+02 -0.14447354908E+03 -0.16169105588E+03  0.22872444281E+03  0.00000000000E+00 0.  1.
<mgrwt>
<rscale>  0 0.10268409E+04</rscale>
<asrwt>0</asrwt>
<pdfrwt beam="1">  1        1 0.11645762E+00 0.10268409E+04</pdfrwt>
<pdfrwt beam="2">  1       -2 0.23954514E+00 0.10268409E+04</pdfrwt>
<totfact> 0.15729119E+00</totfact>
</mgrwt>
</event>
<event>
12    3  0.1176505E-007  0.5522922E+03  0.7818608E-02  0.1000965E+00
          1   -1    0    0  501    0  0.00000000000E+00  0.00000000000E+00  0.95534888920E+03  0.95534888920E+03  0.00000000000E+00 0. -1.
         -2   -1    0    0    0  501 -0.00000000000E+00 -0.00000000000E+00 -0.99420659088E+03  0.99420659088E+03  0.00000000000E+00 0.  1.
        -24    2    1    2    0    0  0.11147864064E+03  0.39388733399E+03  0.76262347797E+03  0.86793248149E+03  0.64323433304E+02 0.  0.
    5000000    2    1    2    0    0 -0.11147864064E+03 -0.39388733399E+03 -0.80148117965E+03  0.10816229986E+04  0.59996792460E+03 0.  0.
        -24    2    4    4    0    0 -0.18353070988E+03 -0.51661767999E+03 -0.68300445175E+03  0.87937747498E+03  0.78945003896E+02 0.  0.
         24    2    4    4    0    0  0.72052069241E+02  0.12273034599E+03 -0.11847672790E+03  0.20224552361E+03  0.81315916397E+02 0.  0.
         11    1    5    5    0    0 -0.84054646903E+02 -0.32664006872E+03 -0.37896618460E+03  0.50732069466E+03  0.00000000000E+00 0. -1.
        -12    1    5    5    0    0 -0.99476062976E+02 -0.18997761127E+03 -0.30403826715E+03  0.37205678032E+03  0.00000000000E+00 0.  1.
         15    1    3    3    0    0  0.57837856335E+02  0.19839137048E+03  0.45211372066E+03  0.49710595213E+03  0.17770000000E+01 0. -1.
        -16    1    3    3    0    0  0.53640784303E+02  0.19549596351E+03  0.31050975731E+03  0.37082652936E+03  0.00000000000E+00 0.  1.
          2    1    6    6  502    0  0.59666533645E+02  0.85654094754E+02 -0.35049619738E+02  0.11011446331E+03  0.00000000000E+00 0. -1.
         -1    1    6    6    0  502  0.12385535596E+02  0.37076251238E+02 -0.83427108158E+02  0.92131060308E+02  0.00000000000E+00 0.  1.
<mgrwt>
<rscale>  0 0.55229225E+03</rscale>
<asrwt>0</asrwt>
<pdfrwt beam="1">  1        1 0.14697675E+00 0.55229225E+03</pdfrwt>
<pdfrwt beam="2">  1       -2 0.15295486E+00 0.55229225E+03</pdfrwt>
<totfact> 0.43317993E+00</totfact>
</mgrwt>
</event>
<event>
12    3  0.1176505E-007  0.1279584E+04  0.7818608E-02  0.9045914E-01
         -2   -1    0    0    0  501 -0.00000000000E+00  0.00000000000E+00  0.93276937693E+03  0.93276937693E+03  0.00000000000E+00 0.  1.
          1   -1    0    0  501    0  0.00000000000E+00 -0.00000000000E+00 -0.19206038062E+04  0.19206038062E+04  0.00000000000E+00 0. -1.
        -24    2    1    2    0    0  0.12797351952E+03 -0.12623714748E+04 -0.52481326019E+03  0.13755059680E+04  0.81417122363E+02 0.  0.
    5000000    2    1    2    0    0 -0.12797351952E+03  0.12623714748E+04 -0.46302116912E+03  0.14778672151E+04  0.59978657900E+03 0.  0.
        -24    2    4    4    0    0 -0.13045412399E+03  0.40298365861E+03 -0.43800944914E+03  0.61427316427E+03  0.77878978193E+02 0.  0.
         24    2    4    4    0    0  0.24806044703E+01  0.85938781624E+03 -0.25011719982E+02  0.86359405087E+03  0.81335886692E+02 0.  0.
         11    1    5    5    0    0 -0.10695209414E+03  0.21285708528E+03 -0.26222002584E+03  0.35426858616E+03  0.00000000000E+00 0. -1.
        -12    1    5    5    0    0 -0.23502029844E+02  0.19012657333E+03 -0.17578942330E+03  0.26000457811E+03  0.00000000000E+00 0.  1.
         15    1    3    3    0    0  0.25183320147E+02 -0.28539899610E+03 -0.15568286643E+03  0.32607836362E+03  0.17770000000E+01 0. -1.
        -16    1    3    3    0    0  0.10279019937E+03 -0.97697247874E+03 -0.36913039376E+03  0.10494276044E+04  0.00000000000E+00 0.  1.
          2    1    6    6  502    0 -0.15652165273E+02  0.13812940602E+03  0.21240381637E+02  0.14062672896E+03  0.00000000000E+00 0. -1.
         -1    1    6    6    0  502  0.18132769744E+02  0.72125841022E+03 -0.46252101618E+02  0.72296732192E+03  0.00000000000E+00 0.  1.
<mgrwt>
<rscale>  0 0.12795839E+04</rscale>
<asrwt>0</asrwt>
<pdfrwt beam="1">  1        1 0.29547750E+00 0.12795839E+04</pdfrwt>
<pdfrwt beam="2">  1       -2 0.14350298E+00 0.12795839E+04</pdfrwt>
<totfact> 0.96549117E-01</totfact>
</mgrwt>
</event>
<event>
12    3  0.1584073E-007  0.1098700E+04  0.7818608E-02  0.9206460E-01
         -4   -1    0    0    0  501 -0.00000000000E+00  0.00000000000E+00  0.80506051073E+03  0.80506051073E+03  0.00000000000E+00 0.  1.
          3   -1    0    0  501    0  0.00000000000E+00 -0.00000000000E+00 -0.15474047906E+04  0.15474047906E+04  0.00000000000E+00 0. -1.
        -24    2    1    2    0    0 -0.50841502701E+03  0.89086686763E+03 -0.48027674428E+03  0.11355391727E+04  0.81571110136E+02 0.  0.
    5000000    2    1    2    0    0  0.50841502701E+03 -0.89086686763E+03 -0.26206753560E+03  0.12169261287E+04  0.60008348914E+03 0.  0.
        -24    2    4    4    0    0  0.32200794334E+03 -0.86815558418E+02  0.13168734200E+02  0.34317007697E+03  0.79788654653E+02 0.  0.
         24    2    4    4    0    0  0.18640708367E+03 -0.80405130921E+03 -0.27523626980E+03  0.87375605171E+03  0.80302708593E+02 0.  0.
         11    1    5    5    0    0  0.18183336816E+03 -0.12176101017E+02  0.24879117595E+02  0.18393096994E+03  0.00000000000E+00 0. -1.
        -12    1    5    5    0    0  0.14017457519E+03 -0.74639457401E+02 -0.11710383395E+02  0.15923910703E+03  0.00000000000E+00 0.  1.
         15    1    3    3    0    0 -0.19496702478E+03  0.26576637186E+03 -0.14769367201E+03  0.36119313898E+03  0.17770000000E+01 0. -1.
        -16    1    3    3    0    0 -0.31344800223E+03  0.62510049577E+03 -0.33258307226E+03  0.77434603368E+03  0.00000000000E+00 0.  1.
          2    1    6    6  502    0  0.96391347625E+01 -0.13812286587E+03 -0.24797759085E+02  0.14066189196E+03  0.00000000000E+00 0. -1.
         -1    1    6    6    0  502  0.17676794891E+03 -0.66592844334E+03 -0.25043851072E+03  0.73309415975E+03  0.00000000000E+00 0.  1.
<mgrwt>
<rscale>  0 0.10986998E+04</rscale>
<asrwt>0</asrwt>
<pdfrwt beam="1">  1        3 0.23806227E+00 0.10986998E+04</pdfrwt>
<pdfrwt beam="2">  1       -4 0.12385546E+00 0.10986998E+04</pdfrwt>
<totfact> 0.93205080E-02</totfact>
</mgrwt>
</event>
<event>
12    3  0.1176505E-007  0.1138111E+04  0.7818608E-02  0.9168822E-01
          1   -1    0    0  501    0  0.00000000000E+00  0.00000000000E+00  0.10281652143E+04  0.10281652143E+04  0.00000000000E+00 0. -1.
         -2   -1    0    0    0  501 -0.00000000000E+00 -0.00000000000E+00 -0.14183182881E+04  0.14183182881E+04  0.00000000000E+00 0.  1.
        -24    2    1    2    0    0 -0.37886854357E+03 -0.10080957408E+04  0.16882279741E+03  0.10928798128E+04  0.78017641110E+02 0.  0.
    5000000    2    1    2    0    0  0.37886854357E+03  0.10080957408E+04 -0.55897587118E+03  0.13536036896E+04  0.59999210658E+03 0.  0.
        -24    2    4    4    0    0  0.30332966058E+03  0.16081844650E+03 -0.29452677747E+03  0.45932655801E+03  0.79770975422E+02 0.  0.
         24    2    4    4    0    0  0.75538882985E+02  0.84727729431E+03 -0.26444909371E+03  0.89427713158E+03  0.78824670015E+02 0.  0.
         13    1    5    5    0    0  0.13858045390E+03  0.70565325312E+02 -0.82451398531E+02  0.17601772768E+03  0.00000000000E+00 0. -1.
        -14    1    5    5    0    0  0.16474920669E+03  0.90253121189E+02 -0.21207537894E+03  0.28330883033E+03  0.00000000000E+00 0.  1.
         15    1    3    3    0    0 -0.15869645013E+03 -0.33521009315E+03  0.37020229528E+02  0.37272513325E+03  0.17770000000E+01 0. -1.
        -16    1    3    3    0    0 -0.22017209344E+03 -0.67288564766E+03  0.13180256788E+03  0.72015467954E+03  0.00000000000E+00 0.  1.
          2    1    6    6  502    0  0.85898254921E+02  0.56248475747E+03 -0.16507741327E+03  0.59246785985E+03  0.00000000000E+00 0. -1.
         -1    1    6    6    0  502 -0.10359371936E+02  0.28479253684E+03 -0.99371680440E+02  0.30180927173E+03  0.00000000000E+00 0.  1.
<mgrwt>
<rscale>  0 0.11381112E+04</rscale>
<asrwt>0</asrwt>
<pdfrwt beam="1">  1        1 0.15817926E+00 0.11381112E+04</pdfrwt>
<pdfrwt beam="2">  1       -2 0.21820281E+00 0.11381112E+04</pdfrwt>
<totfact> 0.12567874E+00</totfact>
</mgrwt>
</event>
<event>
12    3  0.1176505E-007  0.6898147E+03  0.7818608E-02  0.9734811E-01
          1   -1    0    0  501    0  0.00000000000E+00  0.00000000000E+00  0.91266721788E+03  0.91266721788E+03  0.00000000000E+00 0. -1.
         -2   -1    0    0    0  501 -0.00000000000E+00 -0.00000000000E+00 -0.70196924423E+03  0.70196924423E+03  0.00000000000E+00 0.  1.
        -24    2    1    2    0    0 -0.33968423025E+02  0.59247880708E+03  0.43670218025E+03  0.74110069097E+03  0.79601817297E+02 0.  0.
    5000000    2    1    2    0    0  0.33968423025E+02 -0.59247880708E+03 -0.22600420659E+03  0.87353577114E+03  0.59983485349E+03 0.  0.
        -24    2    4    4    0    0  0.17236176639E+03 -0.20481361906E+02  0.78013108496E+02  0.20662708044E+03  0.80502425899E+02 0.  0.
         24    2    4    4    0    0 -0.13839334337E+03 -0.57199744518E+03 -0.30401731509E+03  0.66690869070E+03  0.77504058456E+02 0.  0.
         11    1    5    5    0    0  0.12582078639E+03 -0.50285063007E+02  0.48073490273E+02  0.14377245326E+03  0.00000000000E+00 0. -1.
        -12    1    5    5    0    0  0.46540980003E+02  0.29803701101E+02  0.29939618223E+02  0.62854627183E+02  0.00000000000E+00 0.  1.
         15    1    3    3    0    0 -0.40908864256E+02  0.17691839733E+03  0.10868185293E+03  0.21163307250E+03  0.17770000000E+01 0. -1.
        -16    1    3    3    0    0  0.69404412312E+01  0.41556040975E+03  0.32802032732E+03  0.52946761847E+03  0.00000000000E+00 0.  1.
          2    1    6    6  502    0 -0.10262733142E+03 -0.29470216978E+03 -0.18712478359E+03  0.36386456637E+03  0.00000000000E+00 0. -1.
         -1    1    6    6    0  502 -0.35766011950E+02 -0.27729527540E+03 -0.11689253149E+03  0.30304412432E+03  0.00000000000E+00 0.  1.
<mgrwt>
<rscale>  0 0.68981469E+03</rscale>
<asrwt>0</asrwt>
<pdfrwt beam="1">  1        1 0.14041034E+00 0.68981469E+03</pdfrwt>
<pdfrwt beam="2">  1       -2 0.10799527E+00 0.68981469E+03</pdfrwt>
<totfact> 0.11021051E+01</totfact>
</mgrwt>
</event>
<event>
12    3  0.1176505E-007  0.4264222E+03  0.7818608E-02  0.1034996E+00
          1   -1    0    0  501    0  0.00000000000E+00  0.00000000000E+00  0.17003079829E+04  0.17003079829E+04  0.00000000000E+00 0. -1.
         -2   -1    0    0    0  501 -0.00000000000E+00 -0.00000000000E+00 -0.41440343674E+03  0.41440343674E+03  0.00000000000E+00 0.  1.
        -24    2    1    2    0    0  0.15029612430E+03 -0.32019955826E+03  0.13663381365E+04  0.14135702324E+04  0.78639788862E+02 0.  0.
    5000000    2    1    2    0    0 -0.15029612430E+03  0.32019955826E+03 -0.80433590401E+02  0.70114118725E+03  0.60001059983E+03 0.  0.
        -24    2    4    4    0    0  0.20740735537E+02 -0.40221890886E+02 -0.24568132241E+03  0.26214936623E+03  0.79466970588E+02 0.  0.
         24    2    4    4    0    0 -0.17103685983E+03  0.36042144915E+03  0.16524773201E+03  0.43899182102E+03  0.79055534690E+02 0.  0.
         11    1    5    5    0    0 -0.49844810090E+01 -0.56111214436E+02 -0.19651401448E+03  0.20442864605E+03  0.00000000000E+00 0. -1.
        -12    1    5    5    0    0  0.25725216546E+02  0.15889323550E+02 -0.49167307930E+02  0.57720720182E+02  0.00000000000E+00 0.  1.
         15    1    3    3    0    0  0.13830292773E+03 -0.32178924000E+03  0.13202185173E+04  0.13658902247E+04  0.17770000000E+01 0. -1.
        -16    1    3    3    0    0  0.11993196566E+02  0.15896817432E+01  0.46119619256E+02  0.47680007679E+02  0.00000000000E+00 0.  1.
          4    1    6    6  502    0 -0.14323102783E+03  0.34141011128E+03  0.13614214376E+03  0.39447518898E+03  0.00000000000E+00 0. -1.
         -3    1    6    6    0  502 -0.27805831999E+02  0.19011337870E+02  0.29105588253E+02  0.44516632042E+02  0.00000000000E+00 0.  1.
<mgrwt>
<rscale>  0 0.42642216E+03</rscale>
<asrwt>0</asrwt>
<pdfrwt beam="1">  1        1 0.26158584E+00 0.42642216E+03</pdfrwt>
<pdfrwt beam="2">  1       -2 0.63754376E-01 0.42642216E+03</pdfrwt>
<totfact> 0.10468779E+01</totfact>
</mgrwt>
</event>
<event>
12    3  0.1176505E-007  0.4005532E+03  0.7818608E-02  0.1043588E+00
          1   -1    0    0  501    0  0.00000000000E+00  0.00000000000E+00  0.75838606293E+03  0.75838606293E+03  0.00000000000E+00 0. -1.
         -2   -1    0    0    0  501 -0.00000000000E+00 -0.00000000000E+00 -0.49807307837E+03  0.49807307837E+03  0.00000000000E+00 0.  1.
        -24    2    1    2    0    0 -0.20123735934E+02  0.31906721580E+03  0.44328432568E+03  0.55244317322E+03  0.80520887361E+02 0.  0.
    5000000    2    1    2    0    0  0.20123735934E+02 -0.31906721580E+03 -0.18297134112E+03  0.70401596808E+03  0.59995926419E+03 0.  0.
        -24    2    4    4    0    0 -0.89518286762E+02  0.27818519471E+02  0.15687398979E+03  0.19970356885E+03  0.80527467670E+02 0.  0.
         24    2    4    4    0    0  0.10964202270E+03 -0.34688573527E+03 -0.33984533091E+03  0.50431239923E+03  0.80529873922E+02 0.  0.
         11    1    5    5    0    0 -0.44636443440E+02  0.42559321320E+02  0.13336838101E+03  0.14693819438E+03  0.00000000000E+00 0. -1.
        -12    1    5    5    0    0 -0.44881843322E+02 -0.14740801850E+02  0.23505608780E+02  0.52765374473E+02  0.00000000000E+00 0.  1.
         15    1    3    3    0    0 -0.43785483732E+01  0.11183234983E+03  0.22345506028E+03  0.24992192350E+03  0.17770000000E+01 0. -1.
        -16    1    3    3    0    0 -0.15745187561E+02  0.20723486598E+03  0.21982926540E+03  0.30252124972E+03  0.00000000000E+00 0.  1.
          2    1    6    6  502    0  0.70086284770E+02 -0.98373179618E+02 -0.11761180450E+03  0.16858797804E+03  0.00000000000E+00 0. -1.
         -1    1    6    6    0  502  0.39555737926E+02 -0.24851255565E+03 -0.22223352641E+03  0.33572442119E+03  0.00000000000E+00 0.  1.
<mgrwt>
<rscale>  0 0.40055322E+03</rscale>
<asrwt>0</asrwt>
<pdfrwt beam="1">  1        1 0.11667478E+00 0.40055322E+03</pdfrwt>
<pdfrwt beam="2">  1       -2 0.76626627E-01 0.40055322E+03</pdfrwt>
<totfact> 0.34104063E+01</totfact>
</mgrwt>
</event>
<event>
12    3  0.1176505E-007  0.5095748E+03  0.7818608E-02  0.1011310E+00
         -2   -1    0    0    0  501 -0.00000000000E+00  0.00000000000E+00  0.11974379350E+03  0.11974379350E+03  0.00000000000E+00 0.  1.
          1   -1    0    0  501    0  0.00000000000E+00 -0.00000000000E+00 -0.25096375905E+04  0.25096375905E+04  0.00000000000E+00 0. -1.
        -24    2    1    2    0    0 -0.34068814369E+02 -0.33001867871E+03 -0.40555958991E+03  0.52992476655E+03  0.79174900290E+02 0.  0.
    5000000    2    1    2    0    0  0.34068814369E+02  0.33001867871E+03 -0.19843342071E+04  0.20994566175E+04  0.60005235661E+03 0.  0.
        -24    2    4    4    0    0 -0.16893235252E+03 -0.90886861976E+02 -0.68432095865E+03  0.71510069403E+03  0.79216581332E+02 0.  0.
         24    2    4    4    0    0  0.20300116689E+03  0.42090554068E+03 -0.13000132485E+04  0.13843559234E+04  0.89643341117E+02 0.  0.
         11    1    5    5    0    0 -0.14806704216E+03 -0.10383025876E+03 -0.63089383841E+03  0.65630146043E+03  0.00000000000E+00 0. -1.
        -12    1    5    5    0    0 -0.20865310357E+02  0.12943396783E+02 -0.53427120233E+02  0.58799233609E+02  0.00000000000E+00 0.  1.
         15    1    3    3    0    0 -0.39556250423E+02 -0.95411473085E+02 -0.15836974025E+03  0.18908246481E+03  0.17770000000E+01 0. -1.
        -16    1    3    3    0    0  0.54874360537E+01 -0.23460720562E+03 -0.24718984965E+03  0.34084230174E+03  0.00000000000E+00 0.  1.
          2    1    6    6  502    0  0.14244372133E+03  0.19243566195E+03 -0.64481947039E+03  0.68783271741E+03  0.00000000000E+00 0. -1.
         -1    1    6    6    0  502  0.60557445555E+02  0.22846987873E+03 -0.65519377806E+03  0.69652320601E+03  0.00000000000E+00 0.  1.
<mgrwt>
<rscale>  0 0.50957478E+03</rscale>
<asrwt>0</asrwt>
<pdfrwt beam="1">  1        1 0.38609807E+00 0.50957478E+03</pdfrwt>
<pdfrwt beam="2">  1       -2 0.18422123E-01 0.50957478E+03</pdfrwt>
<totfact> 0.31367018E+01</totfact>
</mgrwt>
</event>
<event>
12    3  0.1176505E-007  0.2015457E+03  0.7818608E-02  0.1148441E+00
          1   -1    0    0  501    0  0.00000000000E+00  0.00000000000E+00  0.31769267639E+04  0.31769267639E+04  0.00000000000E+00 0. -1.
         -2   -1    0    0    0  501 -0.00000000000E+00 -0.00000000000E+00 -0.15060013428E+03  0.15060013428E+03  0.00000000000E+00 0.  1.
        -24    2    1    2    0    0  0.16026090036E+03  0.45230353655E+02 -0.47195661278E+02  0.19154157590E+03  0.82045132572E+02 0.  0.
    5000000    2    1    2    0    0 -0.16026090036E+03 -0.45230353655E+02  0.30735222909E+04  0.31359853223E+04  0.60011276261E+03 0.  0.
        -24    2    4    4    0    0 -0.31135237660E+02  0.14008154159E+02  0.34963082933E+02  0.93009768008E+02  0.79137654563E+02 0.  0.
         24    2    4    4    0    0 -0.12912566270E+03 -0.59238507814E+02  0.30385592080E+04  0.30429755543E+04  0.81703892312E+02 0.  0.
         13    1    5    5    0    0 -0.40028309820E+02  0.32822845139E+02 -0.64213292708E+00  0.51768881432E+02  0.00000000000E+00 0. -1.
        -14    1    5    5    0    0  0.88930721599E+01 -0.18814690980E+02  0.35605215860E+02  0.41240886576E+02  0.00000000000E+00 0.  1.
         15    1    3    3    0    0  0.11307941949E+03  0.45709091892E+02  0.38331507070E+01  0.12204149691E+03  0.17770000000E+01 0. -1.
        -16    1    3    3    0    0  0.47181480868E+02 -0.47873823647E+00 -0.51028811985E+02  0.69500078991E+02  0.00000000000E+00 0.  1.
          2    1    6    6  502    0 -0.42428582932E+02 -0.61392124110E+02  0.16746572136E+04  0.16763191702E+04  0.00000000000E+00 0. -1.
         -1    1    6    6    0  502 -0.86697079770E+02  0.21536162956E+01  0.13639019944E+04  0.13666563841E+04  0.00000000000E+00 0.  1.
<mgrwt>
<rscale>  0 0.20154570E+03</rscale>
<asrwt>0</asrwt>
<pdfrwt beam="1">  1        1 0.48875791E+00 0.20154570E+03</pdfrwt>
<pdfrwt beam="2">  1       -2 0.23169254E-01 0.20154570E+03</pdfrwt>
<totfact> 0.81466052E+00</totfact>
</mgrwt>
</event>
<event>
12    3  0.1176505E-007  0.4980473E+03  0.7818608E-02  0.1014290E+00
         -2   -1    0    0    0  501 -0.00000000000E+00  0.00000000000E+00  0.17664252509E+03  0.17664252509E+03  0.00000000000E+00 0.  1.
          1   -1    0    0  501    0  0.00000000000E+00 -0.00000000000E+00 -0.23702159702E+04  0.23702159702E+04  0.00000000000E+00 0. -1.
        -24    2    1    2    0    0  0.22212160232E+03 -0.42706168941E+03 -0.11601038438E+04  0.12586101281E+04  0.80863052852E+02 0.  0.
    5000000    2    1    2    0    0 -0.22212160232E+03  0.42706168941E+03 -0.10334696013E+04  0.12882483672E+04  0.59983726626E+03 0.  0.
        -24    2    4    4    0    0 -0.64914039249E+02  0.17913236519E+03 -0.95097356000E+03  0.97316845111E+03  0.80024281709E+02 0.  0.
         24    2    4    4    0    0 -0.15720756307E+03  0.24792932422E+03 -0.82496041309E+02  0.31507991609E+03  0.79288012977E+02 0.  0.
         13    1    5    5    0    0  0.10506926621E+02 -0.12192861864E+01 -0.34836214337E+02  0.36406647678E+02  0.00000000000E+00 0. -1.
        -14    1    5    5    0    0 -0.75420965870E+02  0.18035165138E+03 -0.91613734566E+03  0.93676180343E+03  0.00000000000E+00 0.  1.
         15    1    3    3    0    0  0.13478569764E+02 -0.87299661565E+02 -0.24395008981E+03  0.25945656052E+03  0.17770000000E+01 0. -1.
        -16    1    3    3    0    0  0.20864303255E+03 -0.33976202785E+03 -0.91615375397E+03  0.99915356753E+03  0.00000000000E+00 0.  1.
          2    1    6    6  502    0 -0.65053740351E+01 -0.52308738349E+01  0.19969248985E+01  0.85831020887E+01  0.00000000000E+00 0. -1.
         -1    1    6    6    0  502 -0.15070218903E+03  0.25316019805E+03 -0.84492966207E+02  0.30649681401E+03  0.00000000000E+00 0.  1.
<mgrwt>
<rscale>  0 0.49804735E+03</rscale>
<asrwt>0</asrwt>
<pdfrwt beam="1">  1        1 0.36464860E+00 0.49804735E+03</pdfrwt>
<pdfrwt beam="2">  1       -2 0.27175774E-01 0.49804735E+03</pdfrwt>
<totfact> 0.19648718E+01</totfact>
</mgrwt>
</event>
<event>
12    3  0.1176505E-007  0.8203222E+03  0.7818608E-02  0.9531059E-01
          1   -1    0    0  501    0  0.00000000000E+00  0.00000000000E+00  0.25018923782E+04  0.25018923782E+04  0.00000000000E+00 0. -1.
         -2   -1    0    0    0  501 -0.00000000000E+00 -0.00000000000E+00 -0.35859089569E+03  0.35859089569E+03  0.00000000000E+00 0.  1.
        -24    2    1    2    0    0  0.15369221881E+03 -0.74908443511E+03  0.15265961580E+04  0.17093636750E+04  0.81728541924E+02 0.  0.
    5000000    2    1    2    0    0 -0.15369221881E+03  0.74908443511E+03  0.61670532447E+03  0.11511195989E+04  0.60000173727E+03 0.  0.
        -24    2    4    4    0    0  0.78057958455E+02  0.55620329075E+03  0.14551693833E+03  0.58580819973E+03  0.80875966863E+02 0.  0.
         24    2    4    4    0    0 -0.23175017726E+03  0.19288114436E+03  0.47118838615E+03  0.56531139918E+03  0.81530376507E+02 0.  0.
         13    1    5    5    0    0  0.59668615578E+02  0.15923505404E+03  0.44794590285E+02  0.17584851844E+03  0.00000000000E+00 0. -1.
        -14    1    5    5    0    0  0.18389342877E+02  0.39696823671E+03  0.10072234804E+03  0.40995968129E+03  0.00000000000E+00 0.  1.
         15    1    3    3    0    0  0.14890982238E+03 -0.54771274323E+03  0.11215592522E+04  0.12570050510E+04  0.17770000000E+01 0. -1.
        -16    1    3    3    0    0  0.47823964280E+01 -0.20137169188E+03  0.40503690582E+03  0.45235862397E+03  0.00000000000E+00 0.  1.
          4    1    6    6  502    0 -0.21650501119E+02  0.47674361632E+01  0.80359153169E+02  0.83361058920E+02  0.00000000000E+00 0. -1.
         -3    1    6    6    0  502 -0.21009967615E+03  0.18811370820E+03  0.39082923298E+03  0.48195034026E+03  0.00000000000E+00 0.  1.
<mgrwt>
<rscale>  0 0.82032224E+03</rscale>
<asrwt>0</asrwt>
<pdfrwt beam="1">  1        1 0.38490651E+00 0.82032224E+03</pdfrwt>
<pdfrwt beam="2">  1       -2 0.55167832E-01 0.82032224E+03</pdfrwt>
<totfact> 0.38214121E+00</totfact>
</mgrwt>
</event>
<event>
12    3  0.1176505E-007  0.6571042E+03  0.7818608E-02  0.9793539E-01
         -2   -1    0    0    0  501 -0.00000000000E+00  0.00000000000E+00  0.39061555656E+03  0.39061555656E+03  0.00000000000E+00 0.  1.
          1   -1    0    0  501    0  0.00000000000E+00 -0.00000000000E+00 -0.13139989773E+04  0.13139989773E+04  0.00000000000E+00 0. -1.
        -24    2    1    2    0    0  0.81878808616E+02  0.55866569255E+03 -0.57586729174E+03  0.81039218191E+03  0.79377928111E+02 0.  0.
    5000000    2    1    2    0    0 -0.81878808616E+02 -0.55866569255E+03 -0.34751612900E+03  0.89422235195E+03  0.60004554784E+03 0.  0.
        -24    2    4    4    0    0 -0.93922741858E+02 -0.62845941245E+03 -0.41980113024E+03  0.76580519482E+03  0.80261403735E+02 0.  0.
         24    2    4    4    0    0  0.12043933242E+02  0.69793719905E+02  0.72285001236E+02  0.12841715713E+03  0.79054570874E+02 0.  0.
         11    1    5    5    0    0 -0.10630316758E+03 -0.50536407270E+03 -0.32855934017E+03  0.61208206102E+03  0.00000000000E+00 0. -1.
        -12    1    5    5    0    0  0.12380425727E+02 -0.12309533975E+03 -0.91241790067E+02  0.15372313380E+03  0.00000000000E+00 0.  1.
         15    1    3    3    0    0  0.90413071253E+02  0.37588233786E+03 -0.40795980847E+03  0.56204663368E+03  0.17770000000E+01 0. -1.
        -16    1    3    3    0    0 -0.85342626371E+01  0.18278335468E+03 -0.16790748327E+03  0.24834554823E+03  0.00000000000E+00 0.  1.
          2    1    6    6  502    0  0.35389804905E+01  0.86054915179E+02  0.50149915471E+02  0.99664370921E+02  0.00000000000E+00 0. -1.
         -1    1    6    6    0  502  0.85049527512E+01 -0.16261195274E+02  0.22135085765E+02  0.28752786211E+02  0.00000000000E+00 0.  1.
<mgrwt>
<rscale>  0 0.65710416E+03</rscale>
<asrwt>0</asrwt>
<pdfrwt beam="1">  1        1 0.20215369E+00 0.65710416E+03</pdfrwt>
<pdfrwt beam="2">  1       -2 0.60094701E-01 0.65710416E+03</pdfrwt>
<totfact> 0.20809623E+01</totfact>
</mgrwt>
</event>
<event>
12    3  0.1176505E-007  0.1459032E+04  0.7818608E-02  0.8912163E-01
         -2   -1    0    0    0  501 -0.00000000000E+00  0.00000000000E+00  0.85844707269E+03  0.85844707269E+03  0.00000000000E+00 0.  1.
          1   -1    0    0  501    0  0.00000000000E+00 -0.00000000000E+00 -0.25930164564E+04  0.25930164564E+04  0.00000000000E+00 0. -1.
        -24    2    1    2    0    0  0.13071794220E+04 -0.55426986702E+03 -0.63129626546E+03  0.15559175420E+04  0.80070568061E+02 0.  0.
    5000000    2    1    2    0    0 -0.13071794220E+04  0.55426986702E+03 -0.11032731182E+04  0.18955459871E+04  0.59995823921E+03 0.  0.
        -24    2    4    4    0    0 -0.13432317208E+04  0.54872603647E+03 -0.10547472306E+04  0.17955224205E+04  0.77700214215E+02 0.  0.
         24    2    4    4    0    0  0.36052298784E+02  0.55438305467E+01 -0.48525887688E+02  0.10002356656E+03  0.79494967052E+02 0.  0.
         11    1    5    5    0    0 -0.12699491926E+04  0.50034228795E+03 -0.99944047576E+03  0.16917430719E+04  0.00000000000E+00 0. -1.
        -12    1    5    5    0    0 -0.73282528236E+02  0.48383748516E+02 -0.55306754792E+02  0.10377934858E+03  0.00000000000E+00 0.  1.
         15    1    3    3    0    0  0.89522628119E+03 -0.33910019915E+03 -0.42018969218E+03  0.10454575911E+04  0.17770000000E+01 0. -1.
        -16    1    3    3    0    0  0.41195314084E+03 -0.21516966787E+03 -0.21110657327E+03  0.51045995093E+03  0.00000000000E+00 0.  1.
          4    1    6    6  502    0  0.31778909390E+02 -0.47057912846E+01  0.15056481507E+02  0.35478742777E+02  0.00000000000E+00 0. -1.
         -1    1    6    6    0  502  0.42733893937E+01  0.10249621831E+02 -0.63582369196E+02  0.64544823783E+02  0.00000000000E+00 0.  1.
<mgrwt>
<rscale>  0 0.14590323E+04</rscale>
<asrwt>0</asrwt>
<pdfrwt beam="1">  1        1 0.39892560E+00 0.14590323E+04</pdfrwt>
<pdfrwt beam="2">  1       -2 0.13206878E+00 0.14590323E+04</pdfrwt>
<totfact> 0.40743840E-01</totfact>
</mgrwt>
</event>
<event>
12    3  0.1176505E-007  0.4772356E+03  0.7818608E-02  0.1019898E+00
         -2   -1    0    0    0  501 -0.00000000000E+00  0.00000000000E+00  0.59561517610E+03  0.59561517610E+03  0.00000000000E+00 0.  1.
          1   -1    0    0  501    0  0.00000000000E+00 -0.00000000000E+00 -0.75070245526E+03  0.75070245526E+03  0.00000000000E+00 0. -1.
        -24    2    1    2    0    0 -0.43009685062E+03 -0.13719408894E+03 -0.34250025901E+03  0.57238738257E+03  0.80717837832E+02 0.  0.
    5000000    2    1    2    0    0  0.43009685062E+03  0.13719408894E+03  0.18741297984E+03  0.77393024880E+03  0.60003240415E+03 0.  0.
        -24    2    4    4    0    0  0.21696519076E+02  0.56861612759E+02  0.31388126706E+03  0.33140611892E+03  0.87204265371E+02 0.  0.
         24    2    4    4    0    0  0.40840033155E+03  0.80332476177E+02 -0.12646828722E+03  0.44252412988E+03  0.81174135749E+02 0.  0.
         13    1    5    5    0    0  0.35593016819E+02  0.27544594890E+02  0.57691519254E+02  0.73170205328E+02  0.00000000000E+00 0. -1.
        -14    1    5    5    0    0 -0.13896497742E+02  0.29317017869E+02  0.25618974781E+03  0.25823591359E+03  0.00000000000E+00 0.  1.
         15    1    3    3    0    0 -0.12563753283E+03 -0.20869927600E+02 -0.13711636490E+03  0.18714806647E+03  0.17770000000E+01 0. -1.
        -16    1    3    3    0    0 -0.30445931780E+03 -0.11632416134E+03 -0.20538389411E+03  0.38523931609E+03  0.00000000000E+00 0.  1.
          2    1    6    6  502    0  0.18050609621E+03 -0.44773684638E+01 -0.45112998040E+02  0.18611200980E+03  0.00000000000E+00 0. -1.
         -1    1    6    6    0  502  0.22789423533E+03  0.84809844641E+02 -0.81355289180E+02  0.25641212008E+03  0.00000000000E+00 0.  1.
<mgrwt>
<rscale>  0 0.47723563E+03</rscale>
<asrwt>0</asrwt>
<pdfrwt beam="1">  1        1 0.11549268E+00 0.47723563E+03</pdfrwt>
<pdfrwt beam="2">  1       -2 0.91633105E-01 0.47723563E+03</pdfrwt>
<totfact> 0.22878671E+01</totfact>
</mgrwt>
</event>
<event>
12    3  0.1176505E-007  0.8852985E+03  0.7818608E-02  0.9444148E-01
         -2   -1    0    0    0  501 -0.00000000000E+00  0.00000000000E+00  0.58765505230E+03  0.58765505230E+03  0.00000000000E+00 0.  1.
          1   -1    0    0  501    0  0.00000000000E+00 -0.00000000000E+00 -0.15307240007E+04  0.15307240007E+04  0.00000000000E+00 0. -1.
        -24    2    1    2    0    0  0.70144194126E+03 -0.36812607664E+03 -0.77411834203E+03  0.11104858135E+04  0.79886977737E+02 0.  0.
    5000000    2    1    2    0    0 -0.70144194126E+03  0.36812607664E+03 -0.16895060638E+03  0.10078932395E+04  0.59980569321E+03 0.  0.
        -24    2    4    4    0    0  0.82026105848E+02  0.75283166356E+00 -0.65254188309E+02  0.13222734481E+03  0.80604670012E+02 0.  0.
         24    2    4    4    0    0 -0.78346804711E+03  0.36737324498E+03 -0.10369641807E+03  0.87566589471E+03  0.85161787604E+02 0.  0.
         13    1    5    5    0    0  0.69921815548E+02  0.31639673731E+02 -0.62431693991E+02  0.98933541622E+02  0.00000000000E+00 0. -1.
        -14    1    5    5    0    0  0.12104290300E+02 -0.30886842067E+02 -0.28224943177E+01  0.33293803188E+02  0.00000000000E+00 0.  1.
         15    1    3    3    0    0  0.31116430782E+03 -0.20329671701E+03 -0.38727117707E+03  0.53678198920E+03  0.17770000000E+01 0. -1.
        -16    1    3    3    0    0  0.39027763344E+03 -0.16482935963E+03 -0.38684716496E+03  0.57370382428E+03  0.00000000000E+00 0.  1.
          2    1    6    6  502    0 -0.24536781997E+03  0.11419839874E+03 -0.72404281661E+02  0.28015892161E+03  0.00000000000E+00 0. -1.
         -1    1    6    6    0  502 -0.53810022714E+03  0.25317484624E+03 -0.31292136412E+02  0.59550697310E+03  0.00000000000E+00 0.  1.
<mgrwt>
<rscale>  0 0.88529850E+03</rscale>
<asrwt>0</asrwt>
<pdfrwt beam="1">  1        1 0.23549600E+00 0.88529850E+03</pdfrwt>
<pdfrwt beam="2">  1       -2 0.90408470E-01 0.88529850E+03</pdfrwt>
<totfact> 0.58018606E+00</totfact>
</mgrwt>
</event>
<event>
12    3  0.1176505E-007  0.4647995E+03  0.7818608E-02  0.1023398E+00
          1   -1    0    0  501    0  0.00000000000E+00  0.00000000000E+00  0.14047243427E+04  0.14047243427E+04  0.00000000000E+00 0. -1.
         -2   -1    0    0    0  501 -0.00000000000E+00 -0.00000000000E+00 -0.18045082933E+03  0.18045082933E+03  0.00000000000E+00 0.  1.
        -24    2    1    2    0    0  0.23998318350E+03  0.19187545368E+03  0.52836685542E+03  0.61644670258E+03  0.80167855934E+02 0.  0.
    5000000    2    1    2    0    0 -0.23998318350E+03 -0.19187545368E+03  0.69590665797E+03  0.96872846948E+03  0.59978383846E+03 0.  0.
        -24    2    4    4    0    0 -0.40146818131E+03 -0.57862648677E+02  0.59120255030E+03  0.72131406678E+03  0.79048976808E+02 0.  0.
         24    2    4    4    0    0  0.16148499781E+03 -0.13401280500E+03  0.10470410767E+03  0.24741440270E+03  0.78829563482E+02 0.  0.
         13    1    5    5    0    0 -0.28573353175E+03 -0.30766249545E+02  0.47445169316E+03  0.55470228268E+03  0.00000000000E+00 0. -1.
        -14    1    5    5    0    0 -0.11573464956E+03 -0.27096399132E+02  0.11675085715E+03  0.16661178409E+03  0.00000000000E+00 0.  1.
         15    1    3    3    0    0  0.85979558241E+02  0.50383232605E+02  0.24303898129E+03  0.26268242941E+03  0.17770000000E+01 0. -1.
        -16    1    3    3    0    0  0.15400362526E+03  0.14149222108E+03  0.28532787413E+03  0.35376427318E+03  0.00000000000E+00 0.  1.
          4    1    6    6  502    0  0.13528868942E+03 -0.13075255997E+03  0.11332959266E+03  0.21964256872E+03  0.00000000000E+00 0. -1.
         -3    1    6    6    0  502  0.26196308394E+02 -0.32602450327E+01 -0.86254849918E+01  0.27771833978E+02  0.00000000000E+00 0.  1.
<mgrwt>
<rscale>  0 0.46479955E+03</rscale>
<asrwt>0</asrwt>
<pdfrwt beam="1">  1        1 0.21611143E+00 0.46479955E+03</pdfrwt>
<pdfrwt beam="2">  1       -2 0.27761667E-01 0.46479955E+03</pdfrwt>
<totfact> 0.83600060E+01</totfact>
</mgrwt>
</event>
<event>
12    3  0.1176505E-007  0.1013211E+04  0.7818608E-02  0.9294172E-01
          1   -1    0    0  501    0  0.00000000000E+00  0.00000000000E+00  0.11238436163E+04  0.11238436163E+04  0.00000000000E+00 0. -1.
         -2   -1    0    0    0  501 -0.00000000000E+00 -0.00000000000E+00 -0.12448044117E+04  0.12448044117E+04  0.00000000000E+00 0.  1.
        -24    2    1    2    0    0 -0.19493327954E+03 -0.92701261428E+03 -0.62643711747E+03  0.11386497245E+04  0.82148417367E+02 0.  0.
    5000000    2    1    2    0    0  0.19493327954E+03  0.92701261428E+03  0.50547632215E+03  0.12299983035E+04  0.60003178565E+03 0.  0.
        -24    2    4    4    0    0  0.13417217988E+02  0.88824561778E+03  0.29859888216E+03  0.94070725113E+03  0.81292931231E+02 0.  0.
         24    2    4    4    0    0  0.18151606156E+03  0.38766996506E+02  0.20687743999E+03  0.28929105235E+03  0.80250091394E+02 0.  0.
         13    1    5    5    0    0  0.46729691322E+02  0.41774008814E+03  0.13686954384E+03  0.44206754837E+03  0.00000000000E+00 0. -1.
        -14    1    5    5    0    0 -0.33312473334E+02  0.47050552964E+03  0.16172933833E+03  0.49863970277E+03  0.00000000000E+00 0.  1.
         15    1    3    3    0    0 -0.12105296082E+03 -0.67978201158E+03 -0.41985085194E+03  0.80810599440E+03  0.17770000000E+01 0. -1.
        -16    1    3    3    0    0 -0.73880318722E+02 -0.24723060270E+03 -0.20658626553E+03  0.33054373011E+03  0.00000000000E+00 0.  1.
          2    1    6    6  502    0  0.17679185672E+03  0.36044066718E+02  0.21426167282E+03  0.28011176303E+03  0.00000000000E+00 0. -1.
         -1    1    6    6    0  502  0.47242048408E+01  0.27229297882E+01 -0.73842328256E+01  0.91792893206E+01  0.00000000000E+00 0.  1.
<mgrwt>
<rscale>  0 0.10132112E+04</rscale>
<asrwt>0</asrwt>
<pdfrwt beam="1">  1        1 0.17289902E+00 0.10132112E+04</pdfrwt>
<pdfrwt beam="2">  1       -2 0.19150837E+00 0.10132112E+04</pdfrwt>
<totfact> 0.16075047E+00</totfact>
</mgrwt>
</event>
<event>
12    3  0.1176505E-007  0.1429482E+04  0.7818608E-02  0.8932750E-01
          1   -1    0    0  501    0  0.00000000000E+00  0.00000000000E+00  0.28011893323E+04  0.28011893323E+04  0.00000000000E+00 0. -1.
         -2   -1    0    0    0  501 -0.00000000000E+00 -0.00000000000E+00 -0.93987541203E+03  0.93987541203E+03  0.00000000000E+00 0.  1.
        -24    2    1    2    0    0  0.12300564195E+04  0.64776386589E+03  0.68190138721E+02  0.13941770168E+04  0.80267291361E+02 0.  0.
    5000000    2    1    2    0    0 -0.12300564195E+04 -0.64776386589E+03  0.17931237816E+04  0.23468877275E+04  0.59996023903E+03 0.  0.
        -24    2    4    4    0    0 -0.12231458862E+04 -0.67889888838E+03  0.17636422672E+04  0.22525516693E+04  0.81027256254E+02 0.  0.
         24    2    4    4    0    0 -0.69105332972E+01  0.31135022492E+02  0.29481514330E+02  0.94336058264E+02  0.83743579489E+02 0.  0.
         11    1    5    5    0    0 -0.11892307159E+04 -0.66952793755E+03  0.17021981172E+04  0.21817460405E+04  0.00000000000E+00 0. -1.
        -12    1    5    5    0    0 -0.33915170285E+02 -0.93709508228E+01  0.61444149995E+02  0.70805628755E+02  0.00000000000E+00 0.  1.
         15    1    3    3    0    0  0.24111049364E+03  0.91830554555E+02  0.13674707310E+02  0.25837429485E+03  0.17770000000E+01 0. -1.
        -16    1    3    3    0    0  0.98894592589E+03  0.55593331133E+03  0.54515431410E+02  0.11358027220E+04  0.00000000000E+00 0.  1.
          4    1    6    6  502    0  0.25727793327E+02  0.97994998315E+01 -0.18001788580E+02  0.32893980278E+02  0.00000000000E+00 0. -1.
         -3    1    6    6    0  502 -0.32638326624E+02  0.21335522661E+02  0.47483302910E+02  0.61442077987E+02  0.00000000000E+00 0.  1.
<mgrwt>
<rscale>  0 0.14294820E+04</rscale>
<asrwt>0</asrwt>
<pdfrwt beam="1">  1        1 0.43095220E+00 0.14294820E+04</pdfrwt>
<pdfrwt beam="2">  1       -2 0.14459622E+00 0.14294820E+04</pdfrwt>
<totfact> 0.23034036E-01</totfact>
</mgrwt>
</event>
<event>
12    3  0.1176505E-007  0.1188150E+04  0.7818608E-02  0.9123292E-01
          1   -1    0    0  501    0  0.00000000000E+00  0.00000000000E+00  0.14381130758E+04  0.14381130758E+04  0.00000000000E+00 0. -1.
         -2   -1    0    0    0  501 -0.00000000000E+00 -0.00000000000E+00 -0.11175398247E+04  0.11175398247E+04  0.00000000000E+00 0.  1.
        -24    2    1    2    0    0 -0.53992208179E+03 -0.10557589478E+04 -0.14519149068E+01  0.11882540128E+04  0.76175328022E+02 0.  0.
    5000000    2    1    2    0    0  0.53992208179E+03  0.10557589478E+04  0.32202516600E+03  0.13673988877E+04  0.59994724797E+03 0.  0.
        -24    2    4    4    0    0  0.10860576921E+03  0.22014536807E+03  0.33612746594E+03  0.42348967797E+03  0.78119381718E+02 0.  0.
         24    2    4    4    0    0  0.43131631258E+03  0.83561357970E+03 -0.14102299942E+02  0.94390920972E+03  0.80510280496E+02 0.  0.
         13    1    5    5    0    0  0.64693504423E+02  0.11071092746E+03  0.23690767988E+03  0.26938338434E+03  0.00000000000E+00 0. -1.
        -14    1    5    5    0    0  0.43912264785E+02  0.10943444061E+03  0.99219786061E+02  0.15410629363E+03  0.00000000000E+00 0.  1.
         15    1    3    3    0    0 -0.13201212080E+03 -0.29331162110E+03  0.29414147494E+02  0.32299730171E+03  0.17770000000E+01 0. -1.
        -16    1    3    3    0    0 -0.40790996098E+03 -0.76244732667E+03 -0.30866062400E+02  0.86525671105E+03  0.00000000000E+00 0.  1.
          2    1    6    6  502    0  0.12148802464E+03  0.31961430723E+03 -0.32588341627E+01  0.34194044147E+03  0.00000000000E+00 0. -1.
         -1    1    6    6    0  502  0.30982828794E+03  0.51599927247E+03 -0.10843465780E+02  0.60196876825E+03  0.00000000000E+00 0.  1.
<mgrwt>
<rscale>  0 0.11881501E+04</rscale>
<asrwt>0</asrwt>
<pdfrwt beam="1">  1        1 0.22124817E+00 0.11881501E+04</pdfrwt>
<pdfrwt beam="2">  1       -2 0.17192920E+00 0.11881501E+04</pdfrwt>
<totfact> 0.12768169E+00</totfact>
</mgrwt>
</event>
<event>
12    3  0.1176505E-007  0.7186370E+03  0.7818608E-02  0.9685881E-01
         -2   -1    0    0    0  501 -0.00000000000E+00  0.00000000000E+00  0.10545348491E+04  0.10545348491E+04  0.00000000000E+00 0.  1.
          1   -1    0    0  501    0  0.00000000000E+00 -0.00000000000E+00 -0.56929481978E+03  0.56929481978E+03  0.00000000000E+00 0. -1.
        -24    2    1    2    0    0  0.40758244619E+03  0.43380488721E+03  0.49508654554E+03  0.77856913816E+03  0.82152813148E+02 0.  0.
    5000000    2    1    2    0    0 -0.40758244619E+03 -0.43380488721E+03 -0.98465162226E+01  0.84526053071E+03  0.60004856493E+03 0.  0.
        -24    2    4    4    0    0 -0.41030641033E+03 -0.14582169469E+02 -0.16959941964E+02  0.41850625730E+03  0.79346441285E+02 0.  0.
         24    2    4    4    0    0  0.27239641353E+01 -0.41922271774E+03  0.71134257415E+01  0.42675427341E+03  0.79457548369E+02 0.  0.
         11    1    5    5    0    0 -0.22321421002E+03 -0.67985800410E+01 -0.48739654448E+02  0.22857462274E+03  0.00000000000E+00 0. -1.
        -12    1    5    5    0    0 -0.18709220031E+03 -0.77835894282E+01  0.31779712484E+02  0.18993163456E+03  0.00000000000E+00 0.  1.
         15    1    3    3    0    0  0.53191398717E+02  0.10369464047E+03  0.97538593828E+02  0.15198302002E+03  0.17770000000E+01 0. -1.
        -16    1    3    3    0    0  0.35439104748E+03  0.33011024674E+03  0.39754795171E+03  0.62658611814E+03  0.00000000000E+00 0.  1.
          4    1    6    6  502    0 -0.31668374432E+02 -0.30221935814E+03 -0.72321276033E+01  0.30396007969E+03  0.00000000000E+00 0. -1.
         -1    1    6    6    0  502  0.34392338567E+02 -0.11700335960E+03  0.14345553345E+02  0.12279419372E+03  0.00000000000E+00 0.  1.
<mgrwt>
<rscale>  0 0.71863702E+03</rscale>
<asrwt>0</asrwt>
<pdfrwt beam="1">  1        1 0.87583818E-01 0.71863702E+03</pdfrwt>
<pdfrwt beam="2">  1       -2 0.16223613E+00 0.71863702E+03</pdfrwt>
<totfact> 0.80362165E+00</totfact>
</mgrwt>
</event>
<event>
12    3  0.1176505E-007  0.6978108E+03  0.7818608E-02  0.9720983E-01
         -2   -1    0    0    0  501 -0.00000000000E+00  0.00000000000E+00  0.18788672231E+04  0.18788672231E+04  0.00000000000E+00 0.  1.
          1   -1    0    0  501    0  0.00000000000E+00 -0.00000000000E+00 -0.51254500443E+03  0.51254500443E+03  0.00000000000E+00 0. -1.
        -24    2    1    2    0    0 -0.75893220572E+02  0.59534270926E+03 -0.17633206579E+03  0.63069493063E+03  0.80562868043E+02 0.  0.
    5000000    2    1    2    0    0  0.75893220572E+02 -0.59534270926E+03  0.15426542845E+04  0.17607172969E+04  0.60012535008E+03 0.  0.
        -24    2    4    4    0    0  0.29564886310E+03 -0.30082566870E+03  0.10940000312E+04  0.11752658627E+04  0.80681142564E+02 0.  0.
         24    2    4    4    0    0 -0.21975564253E+03 -0.29451704055E+03  0.44865425331E+03  0.58545143415E+03  0.80186739145E+02 0.  0.
         13    1    5    5    0    0  0.17992893454E+03 -0.18553612408E+03  0.77354650564E+03  0.81558094093E+03  0.00000000000E+00 0. -1.
        -14    1    5    5    0    0  0.11571992855E+03 -0.11528954463E+03  0.32045352551E+03  0.35968492181E+03  0.00000000000E+00 0.  1.
         15    1    3    3    0    0 -0.39564238274E+02  0.84415639596E+02 -0.30928499002E+02  0.98239803227E+02  0.17770000000E+01 0. -1.
        -16    1    3    3    0    0 -0.36328982299E+02  0.51092706966E+03 -0.14540356679E+03  0.53245512741E+03  0.00000000000E+00 0.  1.
          4    1    6    6  502    0 -0.10097532817E+03 -0.11424856204E+03  0.12899163263E+03  0.19971878258E+03  0.00000000000E+00 0. -1.
         -3    1    6    6    0  502 -0.11878031435E+03 -0.18026847852E+03  0.31966262068E+03  0.38573265157E+03  0.00000000000E+00 0.  1.
<mgrwt>
<rscale>  0 0.69781079E+03</rscale>
<asrwt>0</asrwt>
<pdfrwt beam="1">  1        1 0.78853078E-01 0.69781079E+03</pdfrwt>
<pdfrwt beam="2">  1       -2 0.28905649E+00 0.69781079E+03</pdfrwt>
<totfact> 0.14645991E+00</totfact>
</mgrwt>
</event>
<event>
12    3  0.1176505E-007  0.4272833E+03  0.7818608E-02  0.1034722E+00
          1   -1    0    0  501    0  0.00000000000E+00  0.00000000000E+00  0.68551957823E+03  0.68551957823E+03  0.00000000000E+00 0. -1.
         -2   -1    0    0    0  501 -0.00000000000E+00 -0.00000000000E+00 -0.32887160340E+03  0.32887160340E+03  0.00000000000E+00 0.  1.
        -24    2    1    2    0    0  0.12407815203E+03  0.19410059810E+03  0.27339430673E+03  0.36637036317E+03  0.80077250588E+02 0.  0.
    5000000    2    1    2    0    0 -0.12407815203E+03 -0.19410059810E+03  0.83253668098E+02  0.64802081846E+03  0.59994114537E+03 0.  0.
        -24    2    4    4    0    0 -0.24038655399E+03 -0.33481989861E+03 -0.25482383977E+02  0.42087722234E+03  0.81229456148E+02 0.  0.
         24    2    4    4    0    0  0.11630840195E+03  0.14071930051E+03  0.10873605207E+03  0.22714359612E+03  0.80256578154E+02 0.  0.
         11    1    5    5    0    0 -0.95896844032E+02 -0.79340524555E+02 -0.27032117453E+02  0.12736506156E+03  0.00000000000E+00 0. -1.
        -12    1    5    5    0    0 -0.14448970995E+03 -0.25547937406E+03  0.15497334761E+01  0.29351216078E+03  0.00000000000E+00 0.  1.
         15    1    3    3    0    0 -0.57920596819E+00  0.62421318151E+02  0.65161871621E+02  0.90255103354E+02  0.17770000000E+01 0. -1.
        -16    1    3    3    0    0  0.12465735800E+03  0.13167927995E+03  0.20823243511E+03  0.27611525981E+03  0.00000000000E+00 0.  1.
          4    1    6    6  502    0  0.57680969357E+02  0.11529282222E+03  0.44100561828E+02  0.13625119682E+03  0.00000000000E+00 0. -1.
         -3    1    6    6    0  502  0.58627432596E+02  0.25426478289E+02  0.64635490246E+02  0.90892399299E+02  0.00000000000E+00 0.  1.
<mgrwt>
<rscale>  0 0.42728326E+03</rscale>
<asrwt>0</asrwt>
<pdfrwt beam="1">  1        1 0.10546455E+00 0.42728326E+03</pdfrwt>
<pdfrwt beam="2">  1       -2 0.50595631E-01 0.42728326E+03</pdfrwt>
<totfact> 0.95005820E+01</totfact>
</mgrwt>
</event>
<event>
12    3  0.1176505E-007  0.7494715E+03  0.7818608E-02  0.9636180E-01
          1   -1    0    0  501    0  0.00000000000E+00  0.00000000000E+00  0.42668337713E+03  0.42668337713E+03  0.00000000000E+00 0. -1.
         -2   -1    0    0    0  501 -0.00000000000E+00 -0.00000000000E+00 -0.16650569538E+04  0.16650569538E+04  0.00000000000E+00 0.  1.
        -24    2    1    2    0    0  0.47132404888E+03  0.53015576996E+03 -0.30987196595E+03  0.77821917226E+03  0.79955896099E+02 0.  0.
    5000000    2    1    2    0    0 -0.47132404888E+03 -0.53015576996E+03 -0.92850161070E+03  0.13135211586E+04  0.60000924463E+03 0.  0.
        -24    2    4    4    0    0 -0.60790516687E+02 -0.29389467457E+03 -0.73042168363E+03  0.79393228954E+03  0.82116245558E+02 0.  0.
         24    2    4    4    0    0 -0.41053353220E+03 -0.23626109539E+03 -0.19807992707E+03  0.51958886911E+03  0.79873957827E+02 0.  0.
         13    1    5    5    0    0 -0.32722180177E+02 -0.33767092461E+02 -0.15160001830E+03  0.15872467722E+03  0.00000000000E+00 0. -1.
        -14    1    5    5    0    0 -0.28068336509E+02 -0.26012758211E+03 -0.57882166533E+03  0.63520761232E+03  0.00000000000E+00 0.  1.
         15    1    3    3    0    0  0.17687049269E+03  0.24627656404E+03 -0.15810297588E+03  0.34195763757E+03  0.17770000000E+01 0. -1.
        -16    1    3    3    0    0  0.29445355620E+03  0.28387920592E+03 -0.15176899007E+03  0.43626153470E+03  0.00000000000E+00 0.  1.
          2    1    6    6  502    0 -0.26290712889E+03 -0.18624183292E+03 -0.15694460395E+03  0.35838218072E+03  0.00000000000E+00 0. -1.
         -1    1    6    6    0  502 -0.14762640331E+03 -0.50019262475E+02 -0.41135323114E+02  0.16120668839E+03  0.00000000000E+00 0.  1.
<mgrwt>
<rscale>  0 0.74947151E+03</rscale>
<asrwt>0</asrwt>
<pdfrwt beam="1">  1        1 0.65643597E-01 0.74947151E+03</pdfrwt>
<pdfrwt beam="2">  1       -2 0.25616261E+00 0.74947151E+03</pdfrwt>
<totfact> 0.29350924E+00</totfact>
</mgrwt>
</event>
<event>
12    3  0.1176505E-007  0.5913891E+03  0.7818608E-02  0.9923434E-01
         -2   -1    0    0    0  501 -0.00000000000E+00  0.00000000000E+00  0.12044479861E+04  0.12044479861E+04  0.00000000000E+00 0.  1.
          1   -1    0    0  501    0  0.00000000000E+00 -0.00000000000E+00 -0.33992592403E+03  0.33992592403E+03  0.00000000000E+00 0. -1.
        -24    2    1    2    0    0 -0.57356940717E+02  0.44511792205E+03  0.59237218104E+03  0.74720458620E+03  0.77395798281E+02 0.  0.
    5000000    2    1    2    0    0  0.57356940717E+02 -0.44511792205E+03  0.27214988106E+03  0.79716932396E+03  0.59999465840E+03 0.  0.
        -24    2    4    4    0    0  0.30522047897E+03 -0.14440770186E+03  0.83992306032E+02  0.35695672628E+03  0.79688592846E+02 0.  0.
         24    2    4    4    0    0 -0.24786353825E+03 -0.30071022019E+03  0.18815757503E+03  0.44021259767E+03  0.80752015373E+02 0.  0.
         11    1    5    5    0    0  0.37097901558E+02 -0.22628607164E+02  0.40272244174E+02  0.59246618579E+02  0.00000000000E+00 0. -1.
        -12    1    5    5    0    0  0.26812257741E+03 -0.12177909470E+03  0.43720061858E+02  0.29771010770E+03  0.00000000000E+00 0.  1.
         15    1    3    3    0    0 -0.20688873931E+02  0.32827792432E+03  0.38507763810E+03  0.50644088519E+03  0.17770000000E+01 0. -1.
        -16    1    3    3    0    0 -0.36668066786E+02  0.11683999773E+03  0.20729454294E+03  0.24076370101E+03  0.00000000000E+00 0.  1.
          4    1    6    6  502    0 -0.20326925776E+03 -0.20941658618E+03  0.10946442181E+03  0.31169882476E+03  0.00000000000E+00 0. -1.
         -3    1    6    6    0  502 -0.44594280493E+02 -0.91293634012E+02  0.78693153220E+02  0.12851377291E+03  0.00000000000E+00 0.  1.
<mgrwt>
<rscale>  0 0.59138906E+03</rscale>
<asrwt>0</asrwt>
<pdfrwt beam="1">  1        1 0.52296297E-01 0.59138906E+03</pdfrwt>
<pdfrwt beam="2">  1       -2 0.18529969E+00 0.59138906E+03</pdfrwt>
<totfact> 0.11264206E+01</totfact>
</mgrwt>
</event>
<event>
12    3  0.1176505E-007  0.1117485E+04  0.7818608E-02  0.9188316E-01
         -2   -1    0    0    0  501 -0.00000000000E+00  0.00000000000E+00  0.81577848462E+03  0.81577848462E+03  0.00000000000E+00 0.  1.
          1   -1    0    0  501    0  0.00000000000E+00 -0.00000000000E+00 -0.16048366106E+04  0.16048366106E+04  0.00000000000E+00 0. -1.
        -24    2    1    2    0    0  0.10550360663E+04  0.20553024844E+02 -0.51160253793E+03  0.11754586139E+04  0.80263741052E+02 0.  0.
    5000000    2    1    2    0    0 -0.10550360663E+04 -0.20553024844E+02 -0.27745558810E+03  0.12451564813E+04  0.59992460491E+03 0.  0.
        -24    2    4    4    0    0 -0.10979632438E+04  0.45145867317E+02 -0.24343161439E+03  0.11283746371E+04  0.80055834614E+02 0.  0.
         24    2    4    4    0    0  0.42927177436E+02 -0.65698892161E+02 -0.34023973706E+02  0.11678184429E+03  0.79506486376E+02 0.  0.
         11    1    5    5    0    0 -0.70402976057E+03 -0.59438859216E+00 -0.18084940474E+03  0.72688703680E+03  0.00000000000E+00 0. -1.
        -12    1    5    5    0    0 -0.39393348319E+03  0.45740255909E+02 -0.62582209651E+02  0.40148760025E+03  0.00000000000E+00 0.  1.
         15    1    3    3    0    0  0.80604648208E+02  0.11108415830E+02 -0.19106086677E+02  0.83598483791E+02  0.17770000000E+01 0. -1.
        -16    1    3    3    0    0  0.97443141812E+03  0.94446090144E+01 -0.49249645125E+03  0.10918601301E+04  0.00000000000E+00 0.  1.
          4    1    6    6  502    0  0.38960507590E+02 -0.58743337040E+02 -0.58139136466E+02  0.91372096328E+02  0.00000000000E+00 0. -1.
         -3    1    6    6    0  502  0.39666698463E+01 -0.69555551210E+01  0.24115162760E+02  0.25409747965E+02  0.00000000000E+00 0.  1.
<mgrwt>
<rscale>  0 0.11174847E+04</rscale>
<asrwt>0</asrwt>
<pdfrwt beam="1">  1        1 0.24689794E+00 0.11174847E+04</pdfrwt>
<pdfrwt beam="2">  1       -2 0.12550438E+00 0.11174847E+04</pdfrwt>
<totfact> 0.22750986E+00</totfact>
</mgrwt>
</event>
<event>
12    3  0.1176505E-007  0.7357838E+03  0.7818608E-02  0.9657921E-01
         -2   -1    0    0    0  501 -0.00000000000E+00  0.00000000000E+00  0.12710127737E+04  0.12710127737E+04  0.00000000000E+00 0.  1.
          1   -1    0    0  501    0  0.00000000000E+00 -0.00000000000E+00 -0.55141565040E+03  0.55141565040E+03  0.00000000000E+00 0. -1.
        -24    2    1    2    0    0  0.71035213258E+03  0.62607800441E+02  0.46948183690E+03  0.85745958773E+03  0.79396854299E+02 0.  0.
    5000000    2    1    2    0    0 -0.71035213258E+03 -0.62607800441E+02  0.25011528641E+03  0.96496883637E+03  0.60007275371E+03 0.  0.
        -24    2    4    4    0    0 -0.18251624259E+03  0.81944410082E+02 -0.16701318366E+03  0.27211026804E+03  0.78252982693E+02 0.  0.
         24    2    4    4    0    0 -0.52783588999E+03 -0.14455221052E+03  0.41712847007E+03  0.69285856834E+03  0.80936807764E+02 0.  0.
         13    1    5    5    0    0 -0.20521284238E+02  0.31024691566E+02 -0.52173809360E+01  0.37561624797E+02  0.00000000000E+00 0. -1.
        -14    1    5    5    0    0 -0.16199495836E+03  0.50919718516E+02 -0.16179580272E+03  0.23454864324E+03  0.00000000000E+00 0.  1.
         15    1    3    3    0    0  0.38341635684E+03  0.17042545514E+01  0.22345339984E+03  0.44378551892E+03  0.17770000000E+01 0. -1.
        -16    1    3    3    0    0  0.32693577574E+03  0.60903545890E+02  0.24602843707E+03  0.41367406881E+03  0.00000000000E+00 0.  1.
          4    1    6    6  502    0 -0.19477223522E+03 -0.34517667787E+02  0.19444629544E+03  0.27737529596E+03  0.00000000000E+00 0. -1.
         -3    1    6    6    0  502 -0.33306365477E+03 -0.11003454274E+03  0.22268217463E+03  0.41548327237E+03  0.00000000000E+00 0.  1.
<mgrwt>
<rscale>  0 0.73578376E+03</rscale>
<asrwt>0</asrwt>
<pdfrwt beam="1">  1        1 0.84833177E-01 0.73578376E+03</pdfrwt>
<pdfrwt beam="2">  1       -2 0.19554043E+00 0.73578376E+03</pdfrwt>
<totfact> 0.49448080E+00</totfact>
</mgrwt>
</event>
<event>
12    3  0.1176505E-007  0.1175706E+04  0.7818608E-02  0.9134391E-01
          1   -1    0    0  501    0  0.00000000000E+00  0.00000000000E+00  0.98438109349E+03  0.98438109349E+03  0.00000000000E+00 0. -1.
         -2   -1    0    0    0  501 -0.00000000000E+00 -0.00000000000E+00 -0.15751387740E+04  0.15751387740E+04  0.00000000000E+00 0.  1.
        -24    2    1    2    0    0 -0.11284737900E+04  0.27015287419E+03 -0.44378805154E+03  0.12448504635E+04  0.79178100778E+02 0.  0.
    5000000    2    1    2    0    0  0.11284737900E+04 -0.27015287419E+03 -0.14696962901E+03  0.13146694040E+04  0.60026652402E+03 0.  0.
        -24    2    4    4    0    0  0.40012676886E+03  0.15498843921E+02 -0.30819166392E+03  0.51149143591E+03  0.79370913924E+02 0.  0.
         24    2    4    4    0    0  0.72834702114E+03 -0.28565171811E+03  0.16122203491E+03  0.80317796811E+03  0.83761665765E+02 0.  0.
         11    1    5    5    0    0  0.22837050464E+03  0.48000622739E+02 -0.18025118516E+03  0.29486884699E+03  0.00000000000E+00 0. -1.
        -12    1    5    5    0    0  0.17175626422E+03 -0.32501778818E+02 -0.12794047875E+03  0.21662258892E+03  0.00000000000E+00 0.  1.
         15    1    3    3    0    0 -0.90693746912E+03  0.22487687142E+03 -0.32411826726E+03  0.98902021672E+03  0.17770000000E+01 0. -1.
        -16    1    3    3    0    0 -0.22153632089E+03  0.45276002774E+02 -0.11966978428E+03  0.25583024678E+03  0.00000000000E+00 0.  1.
          4    1    6    6  502    0  0.12439392539E+03 -0.58600639265E+02  0.60154975185E+02  0.15008832278E+03  0.00000000000E+00 0. -1.
         -3    1    6    6    0  502  0.60395309575E+03 -0.22705107885E+03  0.10106705972E+03  0.65308964533E+03  0.00000000000E+00 0.  1.
<mgrwt>
<rscale>  0 0.11757056E+04</rscale>
<asrwt>0</asrwt>
<pdfrwt beam="1">  1        1 0.15144324E+00 0.11757056E+04</pdfrwt>
<pdfrwt beam="2">  1       -2 0.24232904E+00 0.11757056E+04</pdfrwt>
<totfact> 0.95767458E-01</totfact>
</mgrwt>
</event>
<event>
12    3  0.1176505E-007  0.4647087E+03  0.7818608E-02  0.1023424E+00
          1   -1    0    0  501    0  0.00000000000E+00  0.00000000000E+00  0.56036045319E+03  0.56036045319E+03  0.00000000000E+00 0. -1.
         -2   -1    0    0    0  501 -0.00000000000E+00 -0.00000000000E+00 -0.65550494750E+03  0.65550494750E+03  0.00000000000E+00 0.  1.
        -24    2    1    2    0    0  0.37620679310E+03  0.13621207113E+03  0.17813091769E+03  0.44496472891E+03  0.78598388284E+02 0.  0.
    5000000    2    1    2    0    0 -0.37620679310E+03 -0.13621207113E+03 -0.27327541201E+03  0.77090067178E+03  0.59960246451E+03 0.  0.
        -24    2    4    4    0    0  0.27437030572E+02 -0.90963521131E+02  0.13952988825E+03  0.18631107977E+03  0.78842094764E+02 0.  0.
         24    2    4    4    0    0 -0.40364382367E+03 -0.45248549995E+02 -0.41280530025E+03  0.58458959201E+03  0.79755924574E+02 0.  0.
         13    1    5    5    0    0  0.52283229702E+02 -0.45625563438E+02  0.61585541883E+02  0.92779346388E+02  0.00000000000E+00 0. -1.
        -14    1    5    5    0    0 -0.24846199130E+02 -0.45337957693E+02  0.77944346363E+02  0.93531733379E+02  0.00000000000E+00 0.  1.
         15    1    3    3    0    0  0.29268762212E+03  0.90708465201E+02  0.16761763074E+03  0.34927481682E+03  0.17770000000E+01 0. -1.
        -16    1    3    3    0    0  0.83519170976E+02  0.45503605925E+02  0.10513286957E+02  0.95689912088E+02  0.00000000000E+00 0.  1.
          4    1    6    6  502    0 -0.14350705228E+03 -0.26893043963E+02 -0.20209141334E+03  0.24931596262E+03  0.00000000000E+00 0. -1.
         -3    1    6    6    0  502 -0.26013677139E+03 -0.18355506031E+02 -0.21071388691E+03  0.33527362939E+03  0.00000000000E+00 0.  1.
<mgrwt>
<rscale>  0 0.46470874E+03</rscale>
<asrwt>0</asrwt>
<pdfrwt beam="1">  1        1 0.86209301E-01 0.46470874E+03</pdfrwt>
<pdfrwt beam="2">  1       -2 0.10084691E+00 0.46470874E+03</pdfrwt>
<totfact> 0.28071133E+01</totfact>
</mgrwt>
</event>
<event>
12    3  0.1176505E-007  0.1263049E+04  0.7818608E-02  0.9059392E-01
          1   -1    0    0  501    0  0.00000000000E+00  0.00000000000E+00  0.20569027197E+04  0.20569027197E+04  0.00000000000E+00 0. -1.
         -2   -1    0    0    0  501 -0.00000000000E+00 -0.00000000000E+00 -0.12572256494E+04  0.12572256494E+04  0.00000000000E+00 0.  1.
        -24    2    1    2    0    0  0.10188916814E+04  0.73309569909E+03  0.13250909533E+04  0.18269779506E+04  0.80080177717E+02 0.  0.
    5000000    2    1    2    0    0 -0.10188916814E+04 -0.73309569909E+03 -0.52541388304E+03  0.14871504185E+04  0.59998921345E+03 0.  0.
        -24    2    4    4    0    0 -0.44907730354E+03 -0.25251171698E+03 -0.52011736949E+03  0.73673361863E+03  0.82593916352E+02 0.  0.
         24    2    4    4    0    0 -0.56981437784E+03 -0.48058398211E+03 -0.52965135577E+01  0.75041679984E+03  0.86301398428E+02 0.  0.
         11    1    5    5    0    0 -0.48235248402E+02 -0.55382740791E+02 -0.95034724165E+02  0.12010614457E+03  0.00000000000E+00 0. -1.
        -12    1    5    5    0    0 -0.40084205513E+03 -0.19712897619E+03 -0.42508264532E+03  0.61662747406E+03  0.00000000000E+00 0.  1.
         15    1    3    3    0    0  0.69215163932E+03  0.51529707463E+03  0.95973242613E+03  0.12906178576E+04  0.17770000000E+01 0. -1.
        -16    1    3    3    0    0  0.32674004206E+03  0.21779862446E+03  0.36535852719E+03  0.53636009293E+03  0.00000000000E+00 0.  1.
          4    1    6    6  502    0 -0.35764987626E+03 -0.35453232838E+03 -0.60961404651E+01  0.50363058762E+03  0.00000000000E+00 0. -1.
         -3    1    6    6    0  502 -0.21216450158E+03 -0.12605165372E+03  0.79962690736E+00  0.24678621222E+03  0.00000000000E+00 0.  1.
<mgrwt>
<rscale>  0 0.12630490E+04</rscale>
<asrwt>0</asrwt>
<pdfrwt beam="1">  1        1 0.31644657E+00 0.12630490E+04</pdfrwt>
<pdfrwt beam="2">  1       -2 0.19341933E+00 0.12630490E+04</pdfrwt>
<totfact> 0.34036805E-01</totfact>
</mgrwt>
</event>
<event>
12    3  0.1176505E-007  0.6868044E+03  0.7818608E-02  0.9740068E-01
         -2   -1    0    0    0  501 -0.00000000000E+00  0.00000000000E+00  0.39767607785E+03  0.39767607785E+03  0.00000000000E+00 0.  1.
          1   -1    0    0  501    0  0.00000000000E+00 -0.00000000000E+00 -0.16397067053E+04  0.16397067053E+04  0.00000000000E+00 0. -1.
        -24    2    1    2    0    0 -0.56251331485E+03  0.24269535175E+03 -0.94748140634E+03  0.11311330893E+04  0.80117333845E+02 0.  0.
    5000000    2    1    2    0    0  0.56251331485E+03 -0.24269535175E+03 -0.29454922107E+03  0.90624969383E+03  0.59933880301E+03 0.  0.
        -24    2    4    4    0    0  0.38301108873E+03  0.72652177854E+02 -0.35125797029E+03  0.53061914581E+03  0.78731716435E+02 0.  0.
         24    2    4    4    0    0  0.17950222611E+03 -0.31534752960E+03  0.56708749216E+02  0.37563054802E+03  0.78849938238E+02 0.  0.
         13    1    5    5    0    0  0.32905348767E+03  0.50517126287E+02 -0.26040132370E+03  0.42265473756E+03  0.00000000000E+00 0. -1.
        -14    1    5    5    0    0  0.53957601060E+02  0.22135051567E+02 -0.90856646586E+02  0.10796440825E+03  0.00000000000E+00 0.  1.
         15    1    3    3    0    0 -0.14761092396E+03  0.63575524876E+02 -0.18773265953E+03  0.24713870886E+03  0.17770000000E+01 0. -1.
        -16    1    3    3    0    0 -0.41490239089E+03  0.17911982687E+03 -0.75974874681E+03  0.88399438042E+03  0.00000000000E+00 0.  1.
          4    1    6    6  502    0  0.57187153092E+02 -0.17219132921E+03  0.45202107188E+02  0.18698517275E+03  0.00000000000E+00 0. -1.
         -3    1    6    6    0  502  0.12231507302E+03 -0.14315620039E+03  0.11506642028E+02  0.18864537527E+03  0.00000000000E+00 0.  1.
<mgrwt>
<rscale>  0 0.68680442E+03</rscale>
<asrwt>0</asrwt>
<pdfrwt beam="1">  1        1 0.25226257E+00 0.68680442E+03</pdfrwt>
<pdfrwt beam="2">  1       -2 0.61180935E-01 0.68680442E+03</pdfrwt>
<totfact> 0.11929830E+01</totfact>
</mgrwt>
</event>
<event>
12    3  0.1176505E-007  0.5652138E+03  0.7818608E-02  0.9980326E-01
         -2   -1    0    0    0  501 -0.00000000000E+00  0.00000000000E+00  0.44256954322E+03  0.44256954322E+03  0.00000000000E+00 0.  1.
          1   -1    0    0  501    0  0.00000000000E+00 -0.00000000000E+00 -0.82326629343E+03  0.82326629343E+03  0.00000000000E+00 0. -1.
        -24    2    1    2    0    0 -0.45024880919E+03 -0.17241369087E+01 -0.13581541813E+03  0.47709442523E+03  0.80288853272E+02 0.  0.
    5000000    2    1    2    0    0  0.45024880919E+03  0.17241369087E+01 -0.24488133208E+03  0.78874141142E+03  0.59951579166E+03 0.  0.
        -24    2    4    4    0    0  0.44211105062E+03 -0.19016407447E+03 -0.26609552173E+02  0.48901716541E+03  0.82493414922E+02 0.  0.
         24    2    4    4    0    0  0.81377585746E+01  0.19188821138E+03 -0.21827177991E+03  0.29972424600E+03  0.72833680104E+02 0.  0.
         13    1    5    5    0    0  0.22282399768E+03 -0.99599349042E+02  0.27671128142E+02  0.24563439418E+03  0.00000000000E+00 0. -1.
        -14    1    5    5    0    0  0.21928705293E+03 -0.90564725426E+02 -0.54280680315E+02  0.24338277123E+03  0.00000000000E+00 0.  1.
         15    1    3    3    0    0 -0.40383186815E+03  0.22239825464E+02 -0.11189942480E+03  0.41964202193E+03  0.17770000000E+01 0. -1.
        -16    1    3    3    0    0 -0.46416941046E+02 -0.23963962373E+02 -0.23915993334E+02  0.57452403308E+02  0.00000000000E+00 0.  1.
          2    1    6    6  502    0  0.10321480014E+02  0.10570289853E+03 -0.66890936061E+02  0.12551507095E+03  0.00000000000E+00 0. -1.
         -1    1    6    6    0  502 -0.21837214398E+01  0.86185312844E+02 -0.15138084385E+03  0.17420917506E+03  0.00000000000E+00 0.  1.
<mgrwt>
<rscale>  0 0.56521382E+03</rscale>
<asrwt>0</asrwt>
<pdfrwt beam="1">  1        1 0.12665635E+00 0.56521382E+03</pdfrwt>
<pdfrwt beam="2">  1       -2 0.68087622E-01 0.56521382E+03</pdfrwt>
<totfact> 0.37959867E+01</totfact>
</mgrwt>
</event>
<event>
12    3  0.1176505E-007  0.5540562E+03  0.7818608E-02  0.1000559E+00
         -2   -1    0    0    0  501 -0.00000000000E+00  0.00000000000E+00  0.81952219061E+03  0.81952219061E+03  0.00000000000E+00 0.  1.
          1   -1    0    0  501    0  0.00000000000E+00 -0.00000000000E+00 -0.56333917766E+03  0.56333917766E+03  0.00000000000E+00 0. -1.
        -24    2    1    2    0    0  0.15475530050E+03  0.44757403304E+03 -0.16778567727E+03  0.50874924376E+03  0.80012758036E+02 0.  0.
    5000000    2    1    2    0    0 -0.15475530050E+03 -0.44757403304E+03  0.42396869022E+03  0.87411212451E+03  0.60004236338E+03 0.  0.
        -24    2    4    4    0    0 -0.32796022918E+02 -0.47575141338E+03  0.50991165657E+03  0.70262935140E+03  0.79139885626E+02 0.  0.
         24    2    4    4    0    0 -0.12195927758E+03  0.28177380348E+02 -0.85942966349E+02  0.17148277311E+03  0.79700174753E+02 0.  0.
         11    1    5    5    0    0  0.23675316836E+02 -0.11521495656E+03  0.14262132084E+03  0.18486710903E+03  0.00000000000E+00 0. -1.
        -12    1    5    5    0    0 -0.56471339754E+02 -0.36053645682E+03  0.36729033573E+03  0.51776224238E+03  0.00000000000E+00 0.  1.
         15    1    3    3    0    0  0.43704576940E+02  0.61344635567E+02 -0.61768676412E+01  0.75594747048E+02  0.17770000000E+01 0. -1.
        -16    1    3    3    0    0  0.11105072356E+03  0.38622939747E+03 -0.16160880963E+03  0.43315449671E+03  0.00000000000E+00 0.  1.
          2    1    6    6  502    0 -0.10320727487E+03 -0.12095775576E+02 -0.62299030393E+02  0.12115782500E+03  0.00000000000E+00 0. -1.
         -1    1    6    6    0  502 -0.18752002718E+02  0.40273155924E+02 -0.23643935956E+02  0.50324948102E+02  0.00000000000E+00 0.  1.
<mgrwt>
<rscale>  0 0.55405618E+03</rscale>
<asrwt>0</asrwt>
<pdfrwt beam="1">  1        1 0.86667566E-01 0.55405618E+03</pdfrwt>
<pdfrwt beam="2">  1       -2 0.12608034E+00 0.55405618E+03</pdfrwt>
<totfact> 0.16028553E+01</totfact>
</mgrwt>
</event>
<event>
12    3  0.1176505E-007  0.2143927E+03  0.7818608E-02  0.1138134E+00
         -2   -1    0    0    0  501 -0.00000000000E+00  0.00000000000E+00  0.57110295357E+03  0.57110295357E+03  0.00000000000E+00 0.  1.
          1   -1    0    0  501    0  0.00000000000E+00 -0.00000000000E+00 -0.87596155352E+03  0.87596155352E+03  0.00000000000E+00 0. -1.
        -24    2    1    2    0    0  0.59240113009E+02 -0.82682834767E+02  0.45516508500E+03  0.47346107022E+03  0.81512503712E+02 0.  0.
    5000000    2    1    2    0    0 -0.59240113009E+02  0.82682834767E+02 -0.76002368495E+03  0.97360343687E+03  0.59993483683E+03 0.  0.
        -24    2    4    4    0    0 -0.16043733191E+03  0.91950948755E+02  0.18837189165E+01  0.20084528981E+03  0.78359221503E+02 0.  0.
         24    2    4    4    0    0  0.10119721890E+03 -0.92681139882E+01 -0.76190740387E+03  0.77275814706E+03  0.79532928540E+02 0.  0.
         13    1    5    5    0    0 -0.62358147478E+02  0.63819232247E+02  0.31461034060E+02  0.94610938192E+02  0.00000000000E+00 0. -1.
        -14    1    5    5    0    0 -0.98079184434E+02  0.28131716508E+02 -0.29577315144E+02  0.10623435162E+03  0.00000000000E+00 0.  1.
         15    1    3    3    0    0 -0.15958413443E+02 -0.30647891612E+02  0.18587119897E+03  0.18906407526E+03  0.17770000000E+01 0. -1.
        -16    1    3    3    0    0  0.75198526453E+02 -0.52034943156E+02  0.26929388603E+03  0.28439699496E+03  0.00000000000E+00 0.  1.
          4    1    6    6  502    0  0.98917922753E+02  0.30367871140E+01 -0.45694063945E+03  0.46753473186E+03  0.00000000000E+00 0. -1.
         -3    1    6    6    0  502  0.22792961489E+01 -0.12304901102E+02 -0.30496676442E+03  0.30522341520E+03  0.00000000000E+00 0.  1.
<mgrwt>
<rscale>  0 0.21439272E+03</rscale>
<asrwt>0</asrwt>
<pdfrwt beam="1">  1        1 0.13476332E+00 0.21439272E+03</pdfrwt>
<pdfrwt beam="2">  1       -2 0.87861993E-01 0.21439272E+03</pdfrwt>
<totfact> 0.20976463E+01</totfact>
</mgrwt>
</event>
<event>
12    3  0.1176505E-007  0.9697175E+03  0.7818608E-02  0.9342396E-01
          1   -1    0    0  501    0  0.00000000000E+00  0.00000000000E+00  0.17696959097E+04  0.17696959097E+04  0.00000000000E+00 0. -1.
         -2   -1    0    0    0  501 -0.00000000000E+00 -0.00000000000E+00 -0.55769160809E+03  0.55769160809E+03  0.00000000000E+00 0.  1.
        -24    2    1    2    0    0  0.52508329258E+03 -0.72539886977E+03  0.66730547747E+03  0.11196442945E+04  0.79942238235E+02 0.  0.
    5000000    2    1    2    0    0 -0.52508329258E+03  0.72539886977E+03  0.54469882409E+03  0.12077432233E+04  0.60002574944E+03 0.  0.
        -24    2    4    4    0    0 -0.59274884159E+03  0.44221809028E+03  0.24774994230E+03  0.78392880371E+03  0.79096819119E+02 0.  0.
         24    2    4    4    0    0  0.67665549007E+02  0.28318077948E+03  0.29694888179E+03  0.42381441957E+03  0.81670333934E+02 0.  0.
         11    1    5    5    0    0 -0.15157525055E+03  0.13426630266E+03  0.35633966520E+02  0.20560222805E+03  0.00000000000E+00 0. -1.
        -12    1    5    5    0    0 -0.44117359104E+03  0.30795178762E+03  0.21211597578E+03  0.57832657566E+03  0.00000000000E+00 0.  1.
         15    1    3    3    0    0  0.25528200421E+03 -0.29380292108E+03  0.31339348768E+03  0.49970760846E+03  0.17770000000E+01 0. -1.
        -16    1    3    3    0    0  0.26980128837E+03 -0.43159594868E+03  0.35391198979E+03  0.61993668600E+03  0.00000000000E+00 0.  1.
          4    1    6    6  502    0  0.84382039363E+02  0.24075614189E+03  0.23471242287E+03  0.34666088599E+03  0.00000000000E+00 0. -1.
         -3    1    6    6    0  502 -0.16716490356E+02  0.42424637593E+02  0.62236458917E+02  0.77153533576E+02  0.00000000000E+00 0.  1.
<mgrwt>
<rscale>  0 0.96971755E+03</rscale>
<asrwt>0</asrwt>
<pdfrwt beam="1">  1        1 0.27226091E+00 0.96971755E+03</pdfrwt>
<pdfrwt beam="2">  1       -2 0.85798710E-01 0.96971755E+03</pdfrwt>
<totfact> 0.44576575E+00</totfact>
</mgrwt>
</event>
<event>
12    3  0.1176505E-007  0.1298150E+04  0.7818608E-02  0.9031034E-01
         -2   -1    0    0    0  501 -0.00000000000E+00  0.00000000000E+00  0.10835904036E+04  0.10835904036E+04  0.00000000000E+00 0.  1.
          1   -1    0    0  501    0  0.00000000000E+00 -0.00000000000E+00 -0.19610575222E+04  0.19610575222E+04  0.00000000000E+00 0. -1.
        -24    2    1    2    0    0  0.61347726734E+03  0.11277407015E+04  0.14885892004E+03  0.12948328001E+04  0.79243641869E+02 0.  0.
    5000000    2    1    2    0    0 -0.61347726734E+03 -0.11277407015E+04 -0.10263260387E+04  0.17498151256E+04  0.60029525129E+03 0.  0.
        -24    2    4    4    0    0 -0.13939792869E+03 -0.10496952299E+03  0.39720751843E+02  0.19623577125E+03  0.80500661559E+02 0.  0.
         24    2    4    4    0    0 -0.47407933866E+03 -0.10227711785E+04 -0.10660467905E+04  0.15535793544E+04  0.79630067989E+02 0.  0.
         11    1    5    5    0    0 -0.64720696193E+00 -0.19476650627E+02  0.26267128929E+02  0.32706587389E+02  0.00000000000E+00 0. -1.
        -12    1    5    5    0    0 -0.13875072172E+03 -0.85492872367E+02  0.13453622914E+02  0.16352918386E+03  0.00000000000E+00 0.  1.
         15    1    3    3    0    0  0.50274968366E+03  0.91558092231E+03  0.90120785951E+02  0.10484133648E+04  0.17770000000E+01 0. -1.
        -16    1    3    3    0    0  0.11072758368E+03  0.21215977923E+03  0.58738134091E+02  0.24641943532E+03  0.00000000000E+00 0.  1.
          4    1    6    6  502    0 -0.47536014759E+03 -0.10235082520E+04 -0.10636893232E+04  0.15507970170E+04  0.00000000000E+00 0. -1.
         -3    1    6    6    0  502  0.12808089346E+01  0.73707342916E+00 -0.23574673721E+01  0.27823373586E+01  0.00000000000E+00 0.  1.
<mgrwt>
<rscale>  0 0.12981500E+04</rscale>
<asrwt>0</asrwt>
<pdfrwt beam="1">  1        1 0.30170115E+00 0.12981500E+04</pdfrwt>
<pdfrwt beam="2">  1       -2 0.16670622E+00 0.12981500E+04</pdfrwt>
<totfact> 0.60323450E-01</totfact>
</mgrwt>
</event>
<event>
12    3  0.1176505E-007  0.7377057E+03  0.7818608E-02  0.9654838E-01
          1   -1    0    0  501    0  0.00000000000E+00  0.00000000000E+00  0.11111433550E+04  0.11111433550E+04  0.00000000000E+00 0. -1.
         -2   -1    0    0    0  501 -0.00000000000E+00 -0.00000000000E+00 -0.55540350994E+03  0.55540350994E+03  0.00000000000E+00 0.  1.
        -24    2    1    2    0    0  0.50950895959E+03  0.37805873160E+03  0.46129464628E+03  0.78805058348E+03  0.75519447764E+02 0.  0.
    5000000    2    1    2    0    0 -0.50950895959E+03 -0.37805873160E+03  0.94445198820E+02  0.87849628149E+03  0.60025664225E+03 0.  0.
        -24    2    4    4    0    0 -0.15143171645E+03 -0.44272949662E+03 -0.53373694698E+02  0.47771030567E+03  0.80108756876E+02 0.  0.
         24    2    4    4    0    0 -0.35807724314E+03  0.64670765018E+02  0.14781889352E+03  0.40078597583E+03  0.79858332291E+02 0.  0.
         11    1    5    5    0    0 -0.39567212657E+02 -0.22975734029E+03 -0.41889566722E+02  0.23687282566E+03  0.00000000000E+00 0. -1.
        -12    1    5    5    0    0 -0.11186450380E+03 -0.21297215633E+03 -0.11484127976E+02  0.24083748001E+03  0.00000000000E+00 0.  1.
         15    1    3    3    0    0  0.39292218065E+03  0.32169340933E+03  0.38943924111E+03  0.63995356855E+03  0.17770000000E+01 0. -1.
        -16    1    3    3    0    0  0.11658677895E+03  0.56365322276E+02  0.71855405165E+02  0.14809701493E+03  0.00000000000E+00 0.  1.
          2    1    6    6  502    0 -0.21279661518E+03  0.48165062386E+02  0.47008087380E+02  0.22318609487E+03  0.00000000000E+00 0. -1.
         -1    1    6    6    0  502 -0.14528062796E+03  0.16505702631E+02  0.10081080614E+03  0.17759988095E+03  0.00000000000E+00 0.  1.
<mgrwt>
<rscale>  0 0.73770571E+03</rscale>
<asrwt>0</asrwt>
<pdfrwt beam="1">  1        1 0.17094513E+00 0.73770571E+03</pdfrwt>
<pdfrwt beam="2">  1       -2 0.85446694E-01 0.73770571E+03</pdfrwt>
<totfact> 0.13333659E+01</totfact>
</mgrwt>
</event>
<event>
12    3  0.1208123E-007  0.5173726E+03  0.7818608E-02  0.1009341E+00
          1   -1    0    0  501    0  0.00000000000E+00  0.00000000000E+00  0.29943304482E+04  0.29943304482E+04  0.00000000000E+00 0. -1.
         -2   -1    0    0    0  501 -0.00000000000E+00 -0.00000000000E+00 -0.15299390701E+03  0.15299390701E+03  0.00000000000E+00 0.  1.
        -24    2    1    2    0    0 -0.67072447039E+02 -0.49394129589E+03  0.65971217400E+03  0.83045797139E+03  0.77224172282E+02 0.  0.
    5000000    2    1    2    0    0  0.67072447039E+02  0.49394129589E+03  0.21816243672E+04  0.23168663838E+04  0.59992353185E+03 0.  0.
        -24    2    4    4    0    0  0.42557677594E+02  0.40142903514E+03  0.58029103441E+03  0.71060231723E+03  0.72536490509E+02 0.  0.
         24    2    4    4    0    0  0.24514769445E+02  0.92512260748E+02  0.16013333328E+04  0.16062640666E+04  0.81586253022E+02 0.  0.
         11    1    5    5    0    0  0.58098041367E+02  0.20502301054E+03  0.30567855680E+03  0.37262474066E+03  0.00000000000E+00 0. -1.
        -12    1    5    5    0    0 -0.15540363774E+02  0.19640602460E+03  0.27461247761E+03  0.33797757657E+03  0.00000000000E+00 0.  1.
         15    1    3    3    0    0 -0.50614104707E+02 -0.28305748661E+03  0.43863424837E+03  0.52448688248E+03  0.17770000000E+01 0. -1.
        -16    1    3    3    0    0 -0.16458342332E+02 -0.21088380928E+03  0.22107792563E+03  0.30597108891E+03  0.00000000000E+00 0.  1.
          4    1    6    6  502    0  0.47224351424E+02  0.23202435600E+02  0.62584175945E+03  0.62804967977E+03  0.00000000000E+00 0. -1.
         -3    1    6    6    0  502 -0.22709581979E+02  0.69309825148E+02  0.97549157333E+03  0.97821438684E+03  0.00000000000E+00 0.  1.
<mgrwt>
<rscale>  0 0.51737261E+03</rscale>
<asrwt>0</asrwt>
<pdfrwt beam="1">  1        1 0.46066618E+00 0.51737261E+03</pdfrwt>
<pdfrwt beam="2">  1       -2 0.23537526E-01 0.51737261E+03</pdfrwt>
<totfact> 0.94220685E+00</totfact>
</mgrwt>
</event>
<event>
12    3  0.1176505E-007  0.2714269E+03  0.7818608E-02  0.1100466E+00
          1   -1    0    0  501    0  0.00000000000E+00  0.00000000000E+00  0.20913717248E+03  0.20913717248E+03  0.00000000000E+00 0. -1.
         -2   -1    0    0    0  501 -0.00000000000E+00 -0.00000000000E+00 -0.79463662906E+03  0.79463662906E+03  0.00000000000E+00 0.  1.
        -24    2    1    2    0    0  0.47320157663E+02  0.63294897838E+02 -0.32594447384E+03  0.34520461918E+03  0.81737308887E+02 0.  0.
    5000000    2    1    2    0    0 -0.47320157663E+02 -0.63294897838E+02 -0.25955498274E+03  0.65856918235E+03  0.60008260887E+03 0.  0.
        -24    2    4    4    0    0 -0.31579229331E+02 -0.23393017440E+03 -0.36561013642E+03  0.44187784042E+03  0.76581197350E+02 0.  0.
         24    2    4    4    0    0 -0.15740928332E+02  0.17063527656E+03  0.10605515368E+03  0.21669134193E+03  0.79644633302E+02 0.  0.
         13    1    5    5    0    0  0.18574050263E+02 -0.66052212835E+02 -0.14280854986E+03  0.15843665004E+03  0.00000000000E+00 0. -1.
        -14    1    5    5    0    0 -0.50153279594E+02 -0.16787796156E+03 -0.22280158656E+03  0.28344119038E+03  0.00000000000E+00 0.  1.
         15    1    3    3    0    0  0.60871315736E+02  0.14205949544E+02 -0.16849118101E+03  0.17972078869E+03  0.17770000000E+01 0. -1.
        -16    1    3    3    0    0 -0.13551158073E+02  0.49088948294E+02 -0.15745329283E+03  0.16548383049E+03  0.00000000000E+00 0.  1.
          2    1    6    6  502    0  0.28541047822E+02  0.72170358899E+02  0.24493599143E+02  0.81382359965E+02  0.00000000000E+00 0. -1.
         -1    1    6    6    0  502 -0.44281976154E+02  0.98464917659E+02  0.81561554534E+02  0.13530898196E+03  0.00000000000E+00 0.  1.
<mgrwt>
<rscale>  0 0.27142692E+03</rscale>
<asrwt>0</asrwt>
<pdfrwt beam="1">  1        1 0.32174949E-01 0.27142692E+03</pdfrwt>
<pdfrwt beam="2">  1       -2 0.12225179E+00 0.27142692E+03</pdfrwt>
<totfact> 0.65101476E+01</totfact>
</mgrwt>
</event>
<event>
12    3  0.1176505E-007  0.9691576E+03  0.7818608E-02  0.9343034E-01
          1   -1    0    0  501    0  0.00000000000E+00  0.00000000000E+00  0.10899467031E+04  0.10899467031E+04  0.00000000000E+00 0. -1.
         -2   -1    0    0    0  501 -0.00000000000E+00 -0.00000000000E+00 -0.97062758139E+03  0.97062758139E+03  0.00000000000E+00 0.  1.
        -24    2    1    2    0    0 -0.92417275059E+03  0.65088019472E+02 -0.99477070560E+02  0.93529371297E+03  0.80913032022E+02 0.  0.
    5000000    2    1    2    0    0  0.92417275059E+03 -0.65088019472E+02  0.21879619230E+03  0.11252805715E+04  0.60004405480E+03 0.  0.
        -24    2    4    4    0    0  0.78518325236E+03  0.83906464354E+02  0.35416990516E+03  0.86837102503E+03  0.71266267223E+02 0.  0.
         24    2    4    4    0    0  0.13898949823E+03 -0.14899448383E+03 -0.13537371285E+03  0.25690954651E+03  0.78479526806E+02 0.  0.
         13    1    5    5    0    0  0.40447381524E+03  0.27515401827E+02  0.21672207488E+03  0.45970057896E+03  0.00000000000E+00 0. -1.
        -14    1    5    5    0    0  0.38070943712E+03  0.56391062527E+02  0.13744783028E+03  0.40867044607E+03  0.00000000000E+00 0.  1.
         15    1    3    3    0    0 -0.56829160577E+03  0.77937849483E+02 -0.50583271998E+02  0.57583980646E+03  0.17770000000E+01 0. -1.
        -16    1    3    3    0    0 -0.35588114482E+03 -0.12849830011E+02 -0.48893798562E+02  0.35945390652E+03  0.00000000000E+00 0.  1.
          4    1    6    6  502    0  0.48292575909E+01 -0.53314883178E+02 -0.35124339424E+02  0.64027476267E+02  0.00000000000E+00 0. -1.
         -3    1    6    6    0  502  0.13416024064E+03 -0.95679600648E+02 -0.10024937343E+03  0.19288207024E+03  0.00000000000E+00 0.  1.
<mgrwt>
<rscale>  0 0.96915758E+03</rscale>
<asrwt>0</asrwt>
<pdfrwt beam="1">  1        1 0.16768411E+00 0.96915758E+03</pdfrwt>
<pdfrwt beam="2">  1       -2 0.14932732E+00 0.96915758E+03</pdfrwt>
<totfact> 0.34283959E+00</totfact>
</mgrwt>
</event>
<event>
12    3  0.1176505E-007  0.1013780E+04  0.7818608E-02  0.9293559E-01
         -2   -1    0    0    0  501 -0.00000000000E+00  0.00000000000E+00  0.16632227919E+04  0.16632227919E+04  0.00000000000E+00 0.  1.
          1   -1    0    0  501    0  0.00000000000E+00 -0.00000000000E+00 -0.68765179865E+03  0.68765179865E+03  0.00000000000E+00 0. -1.
        -24    2    1    2    0    0  0.95410186304E+03  0.14901509325E+03  0.24446795087E+03  0.99920433704E+03  0.78287068483E+02 0.  0.
    5000000    2    1    2    0    0 -0.95410186304E+03 -0.14901509325E+03  0.73110304235E+03  0.13516702535E+04  0.59998746029E+03 0.  0.
        -24    2    4    4    0    0 -0.27256553550E+03  0.14478170983E+03  0.16909811305E+02  0.31845995704E+03  0.76662167190E+02 0.  0.
         24    2    4    4    0    0 -0.68153632754E+03 -0.29379680308E+03  0.71419323105E+03  0.10332102964E+04  0.81505939145E+02 0.  0.
         11    1    5    5    0    0 -0.11170438093E+02  0.26387616964E+02  0.13025733085E+02  0.31476256744E+02  0.00000000000E+00 0. -1.
        -12    1    5    5    0    0 -0.26139509741E+03  0.11839409286E+03  0.38840782196E+01  0.28698370030E+03  0.00000000000E+00 0.  1.
         15    1    3    3    0    0  0.36965189047E+03  0.90692001448E+02  0.11679646831E+03  0.39813582104E+03  0.17770000000E+01 0. -1.
        -16    1    3    3    0    0  0.58444997257E+03  0.58323091807E+02  0.12767148256E+03  0.60106851601E+03  0.00000000000E+00 0.  1.
          4    1    6    6  502    0 -0.24375841897E+03 -0.13239662226E+03  0.22485912251E+03  0.35708354398E+03  0.00000000000E+00 0. -1.
         -3    1    6    6    0  502 -0.43777790857E+03 -0.16140018082E+03  0.48933410854E+03  0.67612675245E+03  0.00000000000E+00 0.  1.
<mgrwt>
<rscale>  0 0.10137799E+04</rscale>
<asrwt>0</asrwt>
<pdfrwt beam="1">  1        1 0.10579258E+00 0.10137799E+04</pdfrwt>
<pdfrwt beam="2">  1       -2 0.25588043E+00 0.10137799E+04</pdfrwt>
<totfact> 0.14516293E+00</totfact>
</mgrwt>
</event>
<event>
12    3  0.1176505E-007  0.2387782E+03  0.7818608E-02  0.1120609E+00
         -2   -1    0    0    0  501 -0.00000000000E+00  0.00000000000E+00  0.53730848614E+03  0.53730848614E+03  0.00000000000E+00 0.  1.
          1   -1    0    0  501    0  0.00000000000E+00 -0.00000000000E+00 -0.29072037837E+03  0.29072037837E+03  0.00000000000E+00 0. -1.
        -24    2    1    2    0    0  0.10751755351E+03 -0.92742345965E+02  0.10912988735E+03  0.19609611317E+03  0.79894844889E+02 0.  0.
    5000000    2    1    2    0    0 -0.10751755351E+03  0.92742345965E+02  0.13745822041E+03  0.63193275133E+03  0.60023584765E+03 0.  0.
        -24    2    4    4    0    0  0.40517993210E+02  0.13591127648E+03 -0.19660956945E+03  0.25589305977E+03  0.81928947223E+02 0.  0.
         24    2    4    4    0    0 -0.14803554672E+03 -0.43168930515E+02  0.33406778986E+03  0.37603969156E+03  0.77630417716E+02 0.  0.
         13    1    5    5    0    0  0.29053375663E+02  0.61079436281E+02 -0.15589234918E+03  0.16993298887E+03  0.00000000000E+00 0. -1.
        -14    1    5    5    0    0  0.11464617547E+02  0.74831840199E+02 -0.40717220268E+02  0.85960070902E+02  0.00000000000E+00 0.  1.
         15    1    3    3    0    0  0.98150936527E+02 -0.10671245304E+03  0.90157181338E+02  0.17074140989E+03  0.17770000000E+01 0. -1.
        -16    1    3    3    0    0  0.93666169842E+01  0.13970107070E+02  0.18972706016E+02  0.25354703288E+02  0.00000000000E+00 0.  1.
          2    1    6    6  502    0 -0.69076643686E+02 -0.60193753920E+02  0.16756456178E+03  0.19097840998E+03  0.00000000000E+00 0. -1.
         -3    1    6    6    0  502 -0.78958903036E+02  0.17024823405E+02  0.16650322808E+03  0.18506128158E+03  0.00000000000E+00 0.  1.
<mgrwt>
<rscale>  0 0.23877819E+03</rscale>
<asrwt>0</asrwt>
<pdfrwt beam="1">  1        1 0.44726212E-01 0.23877819E+03</pdfrwt>
<pdfrwt beam="2">  1       -2 0.82662844E-01 0.23877819E+03</pdfrwt>
<totfact> 0.10740591E+02</totfact>
</mgrwt>
</event>
<event>
12    3  0.1176505E-007  0.2991236E+03  0.7818608E-02  0.1085680E+00
         -2   -1    0    0    0  501 -0.00000000000E+00  0.00000000000E+00  0.11808886837E+03  0.11808886837E+03  0.00000000000E+00 0.  1.
          1   -1    0    0  501    0  0.00000000000E+00 -0.00000000000E+00 -0.16509426410E+04  0.16509426410E+04  0.00000000000E+00 0. -1.
        -24    2    1    2    0    0 -0.11856715145E+03  0.19350894948E+03 -0.37245818030E+03  0.44313200723E+03  0.78338986634E+02 0.  0.
    5000000    2    1    2    0    0  0.11856715145E+03 -0.19350894948E+03 -0.11603955924E+04  0.13258995022E+04  0.59998973003E+03 0.  0.
        -24    2    4    4    0    0  0.18996549624E+03 -0.87471185293E+02 -0.84137674903E+02  0.23926352083E+03  0.80185946649E+02 0.  0.
         24    2    4    4    0    0 -0.71398344790E+02 -0.10603776419E+03 -0.10762579175E+04  0.10866359813E+04  0.78133987356E+02 0.  0.
         13    1    5    5    0    0  0.52375845852E+02 -0.64846253476E+02 -0.19677292730E+02  0.85647309752E+02  0.00000000000E+00 0. -1.
        -14    1    5    5    0    0  0.13758965039E+03 -0.22624931817E+02 -0.64460382172E+02  0.15361621107E+03  0.00000000000E+00 0.  1.
         15    1    3    3    0    0 -0.86122124007E+02  0.83143100626E+02 -0.23619520053E+03  0.26480393861E+03  0.17770000000E+01 0. -1.
        -16    1    3    3    0    0 -0.32445027448E+02  0.11036584886E+03 -0.13626297977E+03  0.17832806862E+03  0.00000000000E+00 0.  1.
          4    1    6    6  502    0  0.22267735036E+01 -0.45016640496E+02 -0.54337411656E+03  0.54524021035E+03  0.00000000000E+00 0. -1.
         -3    1    6    6    0  502 -0.73625118293E+02 -0.61021123695E+02 -0.53288380091E+03  0.54139577099E+03  0.00000000000E+00 0.  1.
<mgrwt>
<rscale>  0 0.29912364E+03</rscale>
<asrwt>0</asrwt>
<pdfrwt beam="1">  1        1 0.25399117E+00 0.29912364E+03</pdfrwt>
<pdfrwt beam="2">  1       -2 0.18167519E-01 0.29912364E+03</pdfrwt>
<totfact> 0.12401239E+02</totfact>
</mgrwt>
</event>
<event>
12    3  0.1176505E-007  0.9151267E+03  0.7818608E-02  0.9406867E-01
         -2   -1    0    0    0  501 -0.00000000000E+00  0.00000000000E+00  0.55109665993E+03  0.55109665993E+03  0.00000000000E+00 0.  1.
          1   -1    0    0  501    0  0.00000000000E+00 -0.00000000000E+00 -0.18880884776E+04  0.18880884776E+04  0.00000000000E+00 0. -1.
        -24    2    1    2    0    0  0.19357217034E+03 -0.89108433199E+03 -0.39324099121E+03  0.99623121947E+03  0.79603351881E+02 0.  0.
    5000000    2    1    2    0    0 -0.19357217034E+03  0.89108433199E+03 -0.94375082648E+03  0.14429539181E+04  0.59995742794E+03 0.  0.
        -24    2    4    4    0    0 -0.10386069432E+03  0.52188964856E+03 -0.90462979896E+03  0.10524511532E+04  0.78374151353E+02 0.  0.
         24    2    4    4    0    0 -0.89711476020E+02  0.36919468344E+03 -0.39121027528E+02  0.39050276488E+03  0.81296318352E+02 0.  0.
         11    1    5    5    0    0 -0.76799820704E+02  0.45641092441E+03 -0.82425472693E+03  0.94530682810E+03  0.00000000000E+00 0. -1.
        -12    1    5    5    0    0 -0.27060873618E+02  0.65478724143E+02 -0.80375072024E+02  0.10714432509E+03  0.00000000000E+00 0.  1.
         15    1    3    3    0    0  0.13197077690E+03 -0.68146038426E+03 -0.26568066481E+03  0.74323207321E+03  0.17770000000E+01 0. -1.
        -16    1    3    3    0    0  0.61601393437E+02 -0.20962394774E+03 -0.12756032639E+03  0.25299914626E+03  0.00000000000E+00 0.  1.
          2    1    6    6  502    0 -0.77408005504E+02  0.20209934697E+03  0.76423806805E+01  0.21655149814E+03  0.00000000000E+00 0. -1.
         -3    1    6    6    0  502 -0.12303470516E+02  0.16709533646E+03 -0.46763408209E+02  0.17395126674E+03  0.00000000000E+00 0.  1.
<mgrwt>
<rscale>  0 0.91512668E+03</rscale>
<asrwt>0</asrwt>
<pdfrwt beam="1">  1        1 0.29047515E+00 0.91512668E+03</pdfrwt>
<pdfrwt beam="2">  1       -2 0.84784101E-01 0.91512668E+03</pdfrwt>
<totfact> 0.38383597E+00</totfact>
</mgrwt>
</event>
<event>
12    3  0.1176505E-007  0.1268011E+04  0.7818608E-02  0.9055324E-01
         -2   -1    0    0    0  501 -0.00000000000E+00  0.00000000000E+00  0.15467428536E+04  0.15467428536E+04  0.00000000000E+00 0.  1.
          1   -1    0    0  501    0  0.00000000000E+00 -0.00000000000E+00 -0.10969794314E+04  0.10969794314E+04  0.00000000000E+00 0. -1.
        -24    2    1    2    0    0  0.16761938931E+03 -0.11943139391E+04 -0.43172119041E+02  0.12093572008E+04  0.78733489914E+02 0.  0.
    5000000    2    1    2    0    0 -0.16761938931E+03  0.11943139391E+04  0.49293554133E+03  0.14343650842E+04  0.59994641617E+03 0.  0.
        -24    2    4    4    0    0 -0.98208440124E+02 -0.26156017384E+02  0.20412092882E+02  0.12131733481E+03  0.63025449093E+02 0.  0.
         24    2    4    4    0    0 -0.69410949190E+02  0.12204699565E+04  0.47252344845E+03  0.13130477494E+04  0.80319290887E+02 0.  0.
         13    1    5    5    0    0 -0.23717285113E+02 -0.12495109473E+02 -0.21855239756E+02  0.34587409251E+02  0.00000000000E+00 0. -1.
        -14    1    5    5    0    0 -0.74491155011E+02 -0.13660907911E+02  0.42267332638E+02  0.86729925563E+02  0.00000000000E+00 0.  1.
         15    1    3    3    0    0  0.13554392371E+03 -0.69673410116E+03 -0.15214553114E+02  0.70996140975E+03  0.17770000000E+01 0. -1.
        -16    1    3    3    0    0  0.32075465604E+02 -0.49757983791E+03 -0.27957565927E+02  0.49939579101E+03  0.00000000000E+00 0.  1.
          4    1    6    6  502    0 -0.70438451457E+02  0.53697205081E+03  0.21109035012E+03  0.58125699541E+03  0.00000000000E+00 0. -1.
         -3    1    6    6    0  502  0.10275022678E+01  0.68349790564E+03  0.26143309833E+03  0.73179075402E+03  0.00000000000E+00 0.  1.
<mgrwt>
<rscale>  0 0.12680114E+04</rscale>
<asrwt>0</asrwt>
<pdfrwt beam="1">  1        1 0.16876607E+00 0.12680114E+04</pdfrwt>
<pdfrwt beam="2">  1       -2 0.23796044E+00 0.12680114E+04</pdfrwt>
<totfact> 0.82546695E-01</totfact>
</mgrwt>
</event>
<event>
12    3  0.1176505E-007  0.2066310E+04  0.7818608E-02  0.8576231E-01
         -2   -1    0    0    0  501 -0.00000000000E+00  0.00000000000E+00  0.20754199448E+04  0.20754199448E+04  0.00000000000E+00 0.  1.
          1   -1    0    0  501    0  0.00000000000E+00 -0.00000000000E+00 -0.32226829434E+04  0.32226829434E+04  0.00000000000E+00 0. -1.
        -24    2    1    2    0    0 -0.85660368695E+03  0.18567932465E+04 -0.21278857511E+04  0.29521628310E+04  0.76919270337E+02 0.  0.
    5000000    2    1    2    0    0  0.85660368695E+03 -0.18567932465E+04  0.98062275260E+03  0.23459400572E+04  0.60030220102E+03 0.  0.
        -24    2    4    4    0    0  0.53754895525E+03 -0.15345345680E+04  0.94852408478E+03  0.18844558349E+04  0.87867142517E+02 0.  0.
         24    2    4    4    0    0  0.31905473169E+03 -0.32225867852E+03  0.32098667827E+02  0.46148422233E+03  0.79314470864E+02 0.  0.
         13    1    5    5    0    0  0.20859178725E+03 -0.70783369036E+03  0.45678685214E+03  0.86786709536E+03  0.00000000000E+00 0. -1.
        -14    1    5    5    0    0  0.32895716800E+03 -0.82670087760E+03  0.49173723264E+03  0.10165887395E+04  0.00000000000E+00 0.  1.
         15    1    3    3    0    0 -0.25278190259E+03  0.62433303833E+03 -0.67649220343E+03  0.95463882807E+03  0.17770000000E+01 0. -1.
        -16    1    3    3    0    0 -0.60382178436E+03  0.12324602081E+04 -0.14513935477E+04  0.19975240029E+04  0.00000000000E+00 0.  1.
          4    1    6    6  502    0  0.27367574247E+03 -0.23555650903E+03  0.10352187171E+02  0.36123738558E+03  0.00000000000E+00 0. -1.
         -3    1    6    6    0  502  0.45378989220E+02 -0.86702169495E+02  0.21746480656E+02  0.10024683675E+03  0.00000000000E+00 0.  1.
<mgrwt>
<rscale>  0 0.20663095E+04</rscale>
<asrwt>0</asrwt>
<pdfrwt beam="1">  1        1 0.49579738E+00 0.20663095E+04</pdfrwt>
<pdfrwt beam="2">  1       -2 0.31929538E+00 0.20663095E+04</pdfrwt>
<totfact> 0.75971492E-03</totfact>
</mgrwt>
</event>
<event>
12    3  0.1176505E-007  0.9437316E+03  0.7818608E-02  0.9372507E-01
          1   -1    0    0  501    0  0.00000000000E+00  0.00000000000E+00  0.10451143025E+04  0.10451143025E+04  0.00000000000E+00 0. -1.
         -2   -1    0    0    0  501 -0.00000000000E+00 -0.00000000000E+00 -0.90111907662E+03  0.90111907662E+03  0.00000000000E+00 0.  1.
        -24    2    1    2    0    0 -0.82967136414E+03 -0.21645375223E+03 -0.11323696643E+03  0.86862863787E+03  0.80537572849E+02 0.  0.
    5000000    2    1    2    0    0  0.82967136414E+03  0.21645375223E+03  0.25723219229E+03  0.10776047412E+04  0.59988063666E+03 0.  0.
        -24    2    4    4    0    0  0.90225952251E+03  0.15378564750E+03  0.21255276947E+03  0.94322763549E+03  0.82325094637E+02 0.  0.
         24    2    4    4    0    0 -0.72588158369E+02  0.62668104734E+02  0.44679422814E+02  0.13437710574E+03  0.82853024310E+02 0.  0.
         13    1    5    5    0    0  0.42223363061E+03  0.82252812393E+02  0.59052908653E+02  0.43420503220E+03  0.00000000000E+00 0. -1.
        -14    1    5    5    0    0  0.48002589190E+03  0.71532835108E+02  0.15349986082E+03  0.50902260329E+03  0.00000000000E+00 0.  1.
         15    1    3    3    0    0 -0.25055371967E+03 -0.48446979824E+02 -0.58977901743E+00  0.25520145349E+03  0.17770000000E+01 0. -1.
        -16    1    3    3    0    0 -0.57911764447E+03 -0.16800677241E+03 -0.11264718741E+03  0.61342718439E+03  0.00000000000E+00 0.  1.
          4    1    6    6  502    0 -0.33873451952E+02 -0.65120141689E+01 -0.12438048641E+02  0.36667725995E+02  0.00000000000E+00 0. -1.
         -3    1    6    6    0  502 -0.38714706417E+02  0.69180118903E+02  0.57117471455E+02  0.97709379743E+02  0.00000000000E+00 0.  1.
<mgrwt>
<rscale>  0 0.94373164E+03</rscale>
<asrwt>0</asrwt>
<pdfrwt beam="1">  1        1 0.16078682E+00 0.94373164E+03</pdfrwt>
<pdfrwt beam="2">  1       -2 0.13863370E+00 0.94373164E+03</pdfrwt>
<totfact> 0.45191911E+00</totfact>
</mgrwt>
</event>
<event>
12    3  0.1176505E-007  0.2040772E+04  0.7818608E-02  0.8587792E-01
          1   -1    0    0  501    0  0.00000000000E+00  0.00000000000E+00  0.20861126927E+04  0.20861126927E+04  0.00000000000E+00 0. -1.
         -2   -1    0    0    0  501 -0.00000000000E+00 -0.00000000000E+00 -0.20939149051E+04  0.20939149051E+04  0.00000000000E+00 0.  1.
        -24    2    1    2    0    0 -0.12260845661E+03  0.20119532339E+04  0.34757339134E+03  0.20469909472E+04  0.79850024129E+02 0.  0.
    5000000    2    1    2    0    0  0.12260845661E+03 -0.20119532339E+04 -0.35537560374E+03  0.21330366507E+04  0.60047055263E+03 0.  0.
        -24    2    4    4    0    0  0.28603684587E+03 -0.11905268844E+04 -0.20682743982E+02  0.12272125507E+04  0.80321410253E+02 0.  0.
         24    2    4    4    0    0 -0.16342838927E+03 -0.82142634951E+03 -0.33469285976E+03  0.90582410007E+03  0.83951794505E+02 0.  0.
         13    1    5    5    0    0  0.18554420179E+03 -0.84428593456E+03 -0.47105226716E+02  0.86571605767E+03  0.00000000000E+00 0. -1.
        -14    1    5    5    0    0  0.10049264408E+03 -0.34624094982E+03  0.26422482734E+02  0.36149649299E+03  0.00000000000E+00 0.  1.
         15    1    3    3    0    0 -0.92383058727E+02  0.17661465027E+04  0.32640039591E+03  0.17984294467E+04  0.17770000000E+01 0. -1.
        -16    1    3    3    0    0 -0.30225397879E+02  0.24580673123E+03  0.21172995422E+02  0.24856150049E+03  0.00000000000E+00 0.  1.
          2    1    6    6  502    0 -0.69680790209E+02 -0.52122306996E+03 -0.23423363484E+03  0.57566856513E+03  0.00000000000E+00 0. -1.
         -1    1    6    6    0  502 -0.93747599058E+02 -0.30020327955E+03 -0.10045922492E+03  0.33015553494E+03  0.00000000000E+00 0.  1.
<mgrwt>
<rscale>  0 0.20407719E+04</rscale>
<asrwt>0</asrwt>
<pdfrwt beam="1">  1        1 0.32094041E+00 0.20407719E+04</pdfrwt>
<pdfrwt beam="2">  1       -2 0.32214075E+00 0.20407719E+04</pdfrwt>
<totfact> 0.46972779E-02</totfact>
</mgrwt>
</event>
<event>
12    3  0.1176505E-007  0.9017200E+03  0.7818608E-02  0.9423434E-01
          1   -1    0    0  501    0  0.00000000000E+00  0.00000000000E+00  0.20330414167E+04  0.20330414167E+04  0.00000000000E+00 0. -1.
         -2   -1    0    0    0  501 -0.00000000000E+00 -0.00000000000E+00 -0.59824873539E+03  0.59824873539E+03  0.00000000000E+00 0.  1.
        -24    2    1    2    0    0  0.84238438302E+03 -0.41060809787E+02 -0.18088552431E+02  0.84740724838E+03  0.80463718685E+02 0.  0.
    5000000    2    1    2    0    0 -0.84238438302E+03  0.41060809787E+02  0.14528812338E+04  0.17838829037E+04  0.60006407654E+03 0.  0.
        -24    2    4    4    0    0 -0.47559877751E+03  0.24610526616E+03  0.11148691181E+04  0.12393424775E+04  0.79212543154E+02 0.  0.
         24    2    4    4    0    0 -0.36678560551E+03 -0.20504445637E+03  0.33801211569E+03  0.54454042620E+03  0.75479639033E+02 0.  0.
         13    1    5    5    0    0 -0.47241245715E+03  0.24105008953E+03  0.10715821505E+04  0.11956450061E+04  0.00000000000E+00 0. -1.
        -14    1    5    5    0    0 -0.31863203597E+01  0.50551766306E+01  0.43286967623E+02  0.43697471485E+02  0.00000000000E+00 0.  1.
         15    1    3    3    0    0  0.45746484127E+03  0.16137877607E+02  0.17413992346E+01  0.45775616029E+03  0.17770000000E+01 0. -1.
        -16    1    3    3    0    0  0.38491954175E+03 -0.57198687395E+02 -0.19829951666E+02  0.38965108808E+03  0.00000000000E+00 0.  1.
          4    1    6    6  502    0 -0.23278593802E+03 -0.13025617312E+03  0.25955794734E+03  0.37219120302E+03  0.00000000000E+00 0. -1.
         -3    1    6    6    0  502 -0.13399966749E+03 -0.74788283247E+02  0.78454168355E+02  0.17234922318E+03  0.00000000000E+00 0.  1.
<mgrwt>
<rscale>  0 0.90171997E+03</rscale>
<asrwt>0</asrwt>
<pdfrwt beam="1">  1        1 0.31277560E+00 0.90171997E+03</pdfrwt>
<pdfrwt beam="2">  1       -2 0.92038268E-01 0.90171997E+03</pdfrwt>
<totfact> 0.25434935E+00</totfact>
</mgrwt>
</event>
<event>
12    3  0.1176505E-007  0.6032677E+03  0.7818608E-02  0.9898650E-01
         -2   -1    0    0    0  501 -0.00000000000E+00  0.00000000000E+00  0.14865188605E+04  0.14865188605E+04  0.00000000000E+00 0.  1.
          1   -1    0    0  501    0  0.00000000000E+00 -0.00000000000E+00 -0.15640328915E+04  0.15640328915E+04  0.00000000000E+00 0. -1.
        -24    2    1    2    0    0  0.15439287240E+03 -0.45432096632E+03 -0.14215311305E+04  0.15024513867E+04  0.79779163137E+02 0.  0.
    5000000    2    1    2    0    0 -0.15439287240E+03  0.45432096632E+03  0.13440170995E+04  0.15481003653E+04  0.59999006466E+03 0.  0.
        -24    2    4    4    0    0 -0.34634690537E+03  0.33631180184E+03  0.11101883664E+04  0.12132283878E+04  0.79643612799E+02 0.  0.
         24    2    4    4    0    0  0.19195403297E+03  0.11800916448E+03  0.23382873305E+03  0.33487197746E+03  0.81797623517E+02 0.  0.
         11    1    5    5    0    0 -0.26493892456E+03  0.20896123058E+03  0.73579416652E+03  0.80947543824E+03  0.00000000000E+00 0. -1.
        -12    1    5    5    0    0 -0.81407980811E+02  0.12735057126E+03  0.37439419993E+03  0.40375294956E+03  0.00000000000E+00 0.  1.
         15    1    3    3    0    0  0.12000155820E+03 -0.29647595446E+03 -0.10415764675E+04  0.10895793045E+04  0.17770000000E+01 0. -1.
        -16    1    3    3    0    0  0.34391314203E+02 -0.15784501186E+03 -0.37995466305E+03  0.41287208217E+03  0.00000000000E+00 0.  1.
          4    1    6    6  502    0  0.18663152049E+01 -0.81904857446E+01  0.33432555937E+00  0.84070781343E+01  0.00000000000E+00 0. -1.
         -3    1    6    6    0  502  0.19008771776E+03  0.12619965022E+03  0.23349440749E+03  0.32646489932E+03  0.00000000000E+00 0.  1.
<mgrwt>
<rscale>  0 0.60326766E+03</rscale>
<asrwt>0</asrwt>
<pdfrwt beam="1">  1        1 0.24062044E+00 0.60326766E+03</pdfrwt>
<pdfrwt beam="2">  1       -2 0.22869521E+00 0.60326766E+03</pdfrwt>
<totfact> 0.48970496E-01</totfact>
</mgrwt>
</event>
<event>
12    3  0.1176505E-007  0.9293190E+03  0.7818608E-02  0.9389656E-01
          1   -1    0    0  501    0  0.00000000000E+00  0.00000000000E+00  0.10515764870E+04  0.10515764870E+04  0.00000000000E+00 0. -1.
         -2   -1    0    0    0  501 -0.00000000000E+00 -0.00000000000E+00 -0.10426072743E+04  0.10426072743E+04  0.00000000000E+00 0.  1.
        -24    2    1    2    0    0  0.41117988948E+02 -0.91760868786E+03 -0.27271082253E+03  0.96147549375E+03  0.79796862763E+02 0.  0.
    5000000    2    1    2    0    0 -0.41117988948E+02  0.91760868786E+03  0.28168003516E+03  0.11327082675E+04  0.59998998662E+03 0.  0.
        -24    2    4    4    0    0  0.71236873022E+02  0.49580898371E+03 -0.13392846693E+03  0.52469272019E+03  0.80401343046E+02 0.  0.
         24    2    4    4    0    0 -0.11235486197E+03  0.42179970415E+03  0.41560850209E+03  0.60801554733E+03  0.80086661514E+02 0.  0.
         11    1    5    5    0    0  0.28401146567E+02  0.28743917760E+03 -0.11582478436E+03  0.31119654017E+03  0.00000000000E+00 0. -1.
        -12    1    5    5    0    0  0.42835726455E+02  0.20836980611E+03 -0.18103682572E+02  0.21349618002E+03  0.00000000000E+00 0.  1.
         15    1    3    3    0    0  0.18791719836E+01 -0.55452907679E+03 -0.13136479252E+03  0.56988235166E+03  0.17770000000E+01 0. -1.
        -16    1    3    3    0    0  0.39238816964E+02 -0.36307961107E+03 -0.14134603001E+03  0.39159314209E+03  0.00000000000E+00 0.  1.
          2    1    6    6  502    0 -0.58807549557E+01  0.57575032610E+02  0.94996165321E+02  0.11123730977E+03  0.00000000000E+00 0. -1.
         -1    1    6    6    0  502 -0.10647410701E+03  0.36422467154E+03  0.32061233677E+03  0.49677823756E+03  0.00000000000E+00 0.  1.
<mgrwt>
<rscale>  0 0.92931905E+03</rscale>
<asrwt>0</asrwt>
<pdfrwt beam="1">  1        1 0.16178100E+00 0.92931905E+03</pdfrwt>
<pdfrwt beam="2">  1       -2 0.16040112E+00 0.92931905E+03</pdfrwt>
<totfact> 0.30388184E+00</totfact>
</mgrwt>
</event>
<event>
12    3  0.1176505E-007  0.7029289E+03  0.7818608E-02  0.9712236E-01
         -2   -1    0    0    0  501 -0.00000000000E+00  0.00000000000E+00  0.60826545685E+03  0.60826545685E+03  0.00000000000E+00 0.  1.
          1   -1    0    0  501    0  0.00000000000E+00 -0.00000000000E+00 -0.14888291775E+04  0.14888291775E+04  0.00000000000E+00 0. -1.
        -24    2    1    2    0    0 -0.55357877754E+03 -0.36569025876E+03  0.19688565987E+03  0.69668586658E+03  0.80177336839E+02 0.  0.
    5000000    2    1    2    0    0  0.55357877754E+03  0.36569025876E+03 -0.10774493805E+04  0.14004087678E+04  0.60005726474E+03 0.  0.
        -24    2    4    4    0    0  0.82306006203E+02 -0.52382386920E+02 -0.58094519600E+03  0.59438208696E+03  0.79212066156E+02 0.  0.
         24    2    4    4    0    0  0.47127277133E+03  0.41807264568E+03 -0.49650418453E+03  0.80602668082E+03  0.79245459588E+02 0.  0.
         11    1    5    5    0    0 -0.62057319274E+01 -0.11747351314E+02 -0.22384002133E+03  0.22423395488E+03  0.00000000000E+00 0. -1.
        -12    1    5    5    0    0  0.88511738131E+02 -0.40635035606E+02 -0.35710517467E+03  0.37014813208E+03  0.00000000000E+00 0.  1.
         15    1    3    3    0    0 -0.17052743075E+03 -0.11933195700E+03  0.23915515963E+02  0.20951093106E+03  0.17770000000E+01 0. -1.
        -16    1    3    3    0    0 -0.38305134679E+03 -0.24635830176E+03  0.17297014390E+03  0.48717493552E+03  0.00000000000E+00 0.  1.
          2    1    6    6  502    0  0.10944101961E+02  0.20998018874E+02 -0.48432507308E+01  0.24169138214E+02  0.00000000000E+00 0. -1.
         -1    1    6    6    0  502  0.46032866937E+03  0.39707462681E+03 -0.49166093380E+03  0.78185754260E+03  0.00000000000E+00 0.  1.
<mgrwt>
<rscale>  0 0.70292892E+03</rscale>
<asrwt>0</asrwt>
<pdfrwt beam="1">  1        1 0.22905064E+00 0.70292892E+03</pdfrwt>
<pdfrwt beam="2">  1       -2 0.93579302E-01 0.70292892E+03</pdfrwt>
<totfact> 0.58666135E+00</totfact>
</mgrwt>
</event>
<event>
12    3  0.1176505E-007  0.1850442E+04  0.7818608E-02  0.8679925E-01
          1   -1    0    0  501    0  0.00000000000E+00  0.00000000000E+00  0.22301344287E+04  0.22301344287E+04  0.00000000000E+00 0. -1.
         -2   -1    0    0    0  501 -0.00000000000E+00 -0.00000000000E+00 -0.18989270917E+04  0.18989270917E+04  0.00000000000E+00 0.  1.
        -24    2    1    2    0    0  0.17316043094E+04 -0.51658807593E+03 -0.72863952435E+03  0.19498810069E+04  0.76181756012E+02 0.  0.
    5000000    2    1    2    0    0 -0.17316043094E+04  0.51658807593E+03  0.10598468614E+04  0.21791805135E+04  0.60019631481E+03 0.  0.
        -24    2    4    4    0    0 -0.25615995853E+03 -0.11282760708E+03  0.89940033519E+02  0.30288738115E+03  0.72825563919E+02 0.  0.
         24    2    4    4    0    0 -0.14754443509E+04  0.62941568301E+03  0.96990682791E+03  0.18762931324E+04  0.81587555531E+02 0.  0.
         13    1    5    5    0    0 -0.47480598160E+02 -0.54162588157E+02  0.15356641245E+02  0.73646585717E+02  0.00000000000E+00 0. -1.
        -14    1    5    5    0    0 -0.20867936037E+03 -0.58665018920E+02  0.74583392274E+02  0.22924079544E+03  0.00000000000E+00 0.  1.
         15    1    3    3    0    0  0.49194363518E+03 -0.16274619361E+03 -0.17588927342E+03  0.54720659532E+03  0.17770000000E+01 0. -1.
        -16    1    3    3    0    0  0.12396606742E+04 -0.35384188233E+03 -0.55275025093E+03  0.14026744116E+04  0.00000000000E+00 0.  1.
          4    1    6    6  502    0 -0.72171186444E+03  0.28287597446E+03  0.42921197157E+03  0.88606418997E+03  0.00000000000E+00 0. -1.
         -3    1    6    6    0  502 -0.75373248644E+03  0.34653970855E+03  0.54069485635E+03  0.99022894242E+03  0.00000000000E+00 0.  1.
<mgrwt>
<rscale>  0 0.18504421E+04</rscale>
<asrwt>0</asrwt>
<pdfrwt beam="1">  1        1 0.34309760E+00 0.18504421E+04</pdfrwt>
<pdfrwt beam="2">  1       -2 0.29214263E+00 0.18504421E+04</pdfrwt>
<totfact> 0.58379475E-02</totfact>
</mgrwt>
</event>
<event>
12    3  0.1176505E-007  0.8039674E+03  0.7818608E-02  0.9554292E-01
          1   -1    0    0  501    0  0.00000000000E+00  0.00000000000E+00  0.63805649117E+03  0.63805649117E+03  0.00000000000E+00 0. -1.
         -2   -1    0    0    0  501 -0.00000000000E+00 -0.00000000000E+00 -0.12077070746E+04  0.12077070746E+04  0.00000000000E+00 0.  1.
        -24    2    1    2    0    0  0.35643283068E+03  0.68523756785E+03 -0.28640228670E+03  0.82760787607E+03  0.79458413853E+02 0.  0.
    5000000    2    1    2    0    0 -0.35643283068E+03 -0.68523756785E+03 -0.28324829675E+03  0.10181556897E+04  0.59984708361E+03 0.  0.
        -24    2    4    4    0    0 -0.90630753013E+02 -0.30950459929E+02  0.14204394881E+03  0.18985856494E+03  0.81840863438E+02 0.  0.
         24    2    4    4    0    0 -0.26580207767E+03 -0.65428710792E+03 -0.42529224556E+03  0.82829712478E+03  0.80375796724E+02 0.  0.
         13    1    5    5    0    0 -0.85080880381E+02  0.77227340658E+01  0.11032236176E+03  0.13953286470E+03  0.00000000000E+00 0. -1.
        -14    1    5    5    0    0 -0.55498726320E+01 -0.38673193995E+02  0.31721587048E+02  0.50325700242E+02  0.00000000000E+00 0.  1.
         15    1    3    3    0    0  0.31270287972E+03  0.63773567087E+03 -0.24715631975E+03  0.75205005219E+03  0.17770000000E+01 0. -1.
        -16    1    3    3    0    0  0.43729950961E+02  0.47501896985E+02 -0.39245966944E+02  0.75557823880E+02  0.00000000000E+00 0.  1.
          2    1    6    6  502    0 -0.12575396289E+03 -0.23495696466E+03 -0.12883681909E+03  0.29600297360E+03  0.00000000000E+00 0. -1.
         -1    1    6    6    0  502 -0.14004811478E+03 -0.41933014326E+03 -0.29645542647E+03  0.53229415118E+03  0.00000000000E+00 0.  1.
<mgrwt>
<rscale>  0 0.80396741E+03</rscale>
<asrwt>0</asrwt>
<pdfrwt beam="1">  1        1 0.98162539E-01 0.80396741E+03</pdfrwt>
<pdfrwt beam="2">  1       -2 0.18580108E+00 0.80396741E+03</pdfrwt>
<totfact> 0.46174759E+00</totfact>
</mgrwt>
</event>
<event>
12    3  0.1216390E-007  0.7866911E+03  0.7818608E-02  0.9579483E-01
         -2   -1    0    0    0  501 -0.00000000000E+00  0.00000000000E+00  0.35696513112E+03  0.35696513112E+03  0.00000000000E+00 0.  1.
          1   -1    0    0  501    0  0.00000000000E+00 -0.00000000000E+00 -0.22988319995E+04  0.22988319995E+04  0.00000000000E+00 0. -1.
        -24    2    1    2    0    0 -0.77795388594E+03 -0.40815523995E+02 -0.11593223637E+04  0.13991147248E+04  0.81335812884E+02 0.  0.
    5000000    2    1    2    0    0  0.77795388594E+03  0.40815523995E+02 -0.78254450459E+03  0.12566824058E+04  0.59999717638E+03 0.  0.
        -24    2    4    4    0    0  0.55089531415E+03 -0.26507206949E+02 -0.15079653022E+03  0.57734038050E+03  0.79962755408E+02 0.  0.
         24    2    4    4    0    0  0.22705857178E+03  0.67322730944E+02 -0.63174797437E+03  0.67934202527E+03  0.79448971428E+02 0.  0.
         13    1    5    5    0    0  0.31350763141E+03  0.23536983175E+02 -0.94557417855E+02  0.32830188821E+03  0.00000000000E+00 0. -1.
        -14    1    5    5    0    0  0.23738768275E+03 -0.50044190124E+02 -0.56239112368E+02  0.24903849229E+03  0.00000000000E+00 0.  1.
         15    1    3    3    0    0 -0.43868010625E+03 -0.10771177019E+02 -0.72063840773E+03  0.84372929681E+03  0.17770000000E+01 0. -1.
        -16    1    3    3    0    0 -0.33927377968E+03 -0.30044346976E+02 -0.43868395602E+03  0.55538542800E+03  0.00000000000E+00 0.  1.
          4    1    6    6  502    0  0.19269156407E+03  0.60156645860E+02 -0.43589911653E+03  0.48037162770E+03  0.00000000000E+00 0. -1.
         -3    1    6    6    0  502  0.34367007712E+02  0.71660850836E+01 -0.19584885784E+03  0.19897039758E+03  0.00000000000E+00 0.  1.
<mgrwt>
<rscale>  0 0.78669113E+03</rscale>
<asrwt>0</asrwt>
<pdfrwt beam="1">  1        1 0.35366646E+00 0.78669113E+03</pdfrwt>
<pdfrwt beam="2">  1       -2 0.54917712E-01 0.78669113E+03</pdfrwt>
<totfact> 0.53284002E+00</totfact>
</mgrwt>
</event>
<event>
12    3  0.1176505E-007  0.1630383E+04  0.7818608E-02  0.8802097E-01
          1   -1    0    0  501    0  0.00000000000E+00  0.00000000000E+00  0.14272663624E+04  0.14272663624E+04  0.00000000000E+00 0. -1.
         -2   -1    0    0    0  501 -0.00000000000E+00 -0.00000000000E+00 -0.20074384985E+04  0.20074384985E+04  0.00000000000E+00 0.  1.
        -24    2    1    2    0    0  0.27222850856E+03 -0.15708238486E+04  0.10202033296E+03  0.15997713889E+04  0.85231591897E+02 0.  0.
    5000000    2    1    2    0    0 -0.27222850856E+03  0.15708238486E+04 -0.68219246907E+03  0.18349334721E+04  0.59999863178E+03 0.  0.
        -24    2    4    4    0    0  0.56416638715E+02  0.10333694059E+04 -0.25176029064E+03  0.10680737863E+04  0.79769686819E+02 0.  0.
         24    2    4    4    0    0 -0.32864514727E+03  0.53745444270E+03 -0.43043217843E+03  0.76685968582E+03  0.77051973977E+02 0.  0.
         11    1    5    5    0    0  0.13725687023E+02  0.10366643029E+03 -0.25465939625E+01  0.10460214336E+03  0.00000000000E+00 0. -1.
        -12    1    5    5    0    0  0.42690951692E+02  0.92970297557E+03 -0.24921369667E+03  0.96347164294E+03  0.00000000000E+00 0.  1.
         15    1    3    3    0    0  0.15917246736E+03 -0.75322258048E+03  0.17295922020E+02  0.77005352850E+03  0.17770000000E+01 0. -1.
        -16    1    3    3    0    0  0.11305604120E+03 -0.81760126808E+03  0.84724410944E+02  0.82971786038E+03  0.00000000000E+00 0.  1.
          2    1    6    6  502    0 -0.19709130391E+03  0.30387123609E+03 -0.20236507010E+03  0.41489074682E+03  0.00000000000E+00 0. -1.
         -1    1    6    6    0  502 -0.13155384336E+03  0.23358320661E+03 -0.22806710834E+03  0.35196893900E+03  0.00000000000E+00 0.  1.
<mgrwt>
<rscale>  0 0.16303833E+04</rscale>
<asrwt>0</asrwt>
<pdfrwt beam="1">  1        1 0.21957944E+00 0.16303833E+04</pdfrwt>
<pdfrwt beam="2">  1       -2 0.30883669E+00 0.16303833E+04</pdfrwt>
<totfact> 0.16826253E-01</totfact>
</mgrwt>
</event>
<event>
12    3  0.1176505E-007  0.1365444E+04  0.7818608E-02  0.8979219E-01
         -2   -1    0    0    0  501 -0.00000000000E+00  0.00000000000E+00  0.14499900254E+04  0.14499900254E+04  0.00000000000E+00 0.  1.
          1   -1    0    0  501    0  0.00000000000E+00 -0.00000000000E+00 -0.15043496730E+04  0.15043496730E+04  0.00000000000E+00 0. -1.
        -24    2    1    2    0    0 -0.44819547942E+03  0.12849898700E+04  0.36129803715E+03  0.14101286947E+04  0.76475552526E+02 0.  0.
    5000000    2    1    2    0    0  0.44819547942E+03 -0.12849898700E+04 -0.41565768481E+03  0.15442110037E+04  0.59978175950E+03 0.  0.
        -24    2    4    4    0    0  0.37818413533E+03 -0.10445367981E+04 -0.79399566249E+02  0.11165400440E+04  0.79227621253E+02 0.  0.
         24    2    4    4    0    0  0.70011344089E+02 -0.24045307191E+03 -0.33625811856E+03  0.42767095963E+03  0.84342511922E+02 0.  0.
         13    1    5    5    0    0  0.20068440945E+03 -0.65708919345E+03 -0.32893234489E+02  0.68783893843E+03  0.00000000000E+00 0. -1.
        -14    1    5    5    0    0  0.17749972589E+03 -0.38744760467E+03 -0.46506331761E+02  0.42870110560E+03  0.00000000000E+00 0.  1.
         15    1    3    3    0    0 -0.19513654247E+03  0.49481170068E+03  0.10955410847E+03  0.54306735286E+03  0.17770000000E+01 0. -1.
        -16    1    3    3    0    0 -0.25305893696E+03  0.79017816935E+03  0.25174392868E+03  0.86706134184E+03  0.00000000000E+00 0.  1.
          4    1    6    6  502    0  0.56785671916E+02 -0.10017425354E+03 -0.20488509978E+03  0.23502637665E+03  0.00000000000E+00 0. -1.
         -3    1    6    6    0  502  0.13225672173E+02 -0.14027881837E+03 -0.13137301878E+03  0.19264458298E+03  0.00000000000E+00 0.  1.
<mgrwt>
<rscale>  0 0.13654436E+04</rscale>
<asrwt>0</asrwt>
<pdfrwt beam="1">  1        1 0.23143841E+00 0.13654436E+04</pdfrwt>
<pdfrwt beam="2">  1       -2 0.22307539E+00 0.13654436E+04</pdfrwt>
<totfact> 0.51471015E-01</totfact>
</mgrwt>
</event>
<event>
12    3  0.1176505E-007  0.1253551E+04  0.7818608E-02  0.9067233E-01
         -2   -1    0    0    0  501 -0.00000000000E+00  0.00000000000E+00  0.18041517056E+04  0.18041517056E+04  0.00000000000E+00 0.  1.
          1   -1    0    0  501    0  0.00000000000E+00 -0.00000000000E+00 -0.99742102956E+03  0.99742102956E+03  0.00000000000E+00 0. -1.
        -24    2    1    2    0    0 -0.89685096552E+03  0.78579384083E+03 -0.82172269818E+02  0.11978539167E+04  0.79297598139E+02 0.  0.
    5000000    2    1    2    0    0  0.89685096552E+03 -0.78579384083E+03  0.88890294588E+03  0.16037188185E+04  0.59995998790E+03 0.  0.
        -24    2    4    4    0    0  0.85752759747E+03 -0.86097228674E+03  0.84340380450E+03  0.14813311314E+04  0.79906723099E+02 0.  0.
         24    2    4    4    0    0  0.39323368049E+02  0.75178445906E+02  0.45499141385E+02  0.12238768716E+03  0.75567506887E+02 0.  0.
         11    1    5    5    0    0  0.69235200459E+03 -0.64826503943E+03  0.65453334004E+03  0.11523943565E+04  0.00000000000E+00 0. -1.
        -12    1    5    5    0    0  0.16517559288E+03 -0.21270724731E+03  0.18887046445E+03  0.32893677491E+03  0.00000000000E+00 0.  1.
         15    1    3    3    0    0 -0.51489434543E+03  0.40762513624E+03 -0.67233169232E+02  0.66014990375E+03  0.17770000000E+01 0. -1.
        -16    1    3    3    0    0 -0.38195662010E+03  0.37816870459E+03 -0.14939100585E+02  0.53770401291E+03  0.00000000000E+00 0.  1.
          4    1    6    6  502    0 -0.87247767498E+01  0.20721601519E+02  0.44386026601E+02  0.49755661550E+02  0.00000000000E+00 0. -1.
         -3    1    6    6    0  502  0.48048144799E+02  0.54456844387E+02  0.11131147841E+01  0.72632025606E+02  0.00000000000E+00 0.  1.
<mgrwt>
<rscale>  0 0.12535508E+04</rscale>
<asrwt>0</asrwt>
<pdfrwt beam="1">  1        1 0.15344939E+00 0.12535508E+04</pdfrwt>
<pdfrwt beam="2">  1       -2 0.27756180E+00 0.12535508E+04</pdfrwt>
<totfact> 0.56511090E-01</totfact>
</mgrwt>
</event>
<event>
12    3  0.1176505E-007  0.6815499E+03  0.7818608E-02  0.9749315E-01
         -2   -1    0    0    0  501 -0.00000000000E+00  0.00000000000E+00  0.46010825887E+03  0.46010825887E+03  0.00000000000E+00 0.  1.
          1   -1    0    0  501    0  0.00000000000E+00 -0.00000000000E+00 -0.12007112113E+04  0.12007112113E+04  0.00000000000E+00 0. -1.
        -24    2    1    2    0    0  0.31492944344E+03 -0.46039473365E+03 -0.61082690470E+03  0.83136823592E+03  0.83185161354E+02 0.  0.
    5000000    2    1    2    0    0 -0.31492944344E+03  0.46039473365E+03 -0.12977604776E+03  0.82945123427E+03  0.60000305194E+03 0.  0.
        -24    2    4    4    0    0  0.13444082333E+03  0.27842081604E+03  0.65511643305E+01  0.31941649984E+03  0.79946837571E+02 0.  0.
         24    2    4    4    0    0 -0.44937026677E+03  0.18197391761E+03 -0.13632721209E+03  0.51003473443E+03  0.80636085061E+02 0.  0.
         13    1    5    5    0    0  0.30252431273E+02  0.12668860555E+02  0.88140429004E+01  0.33961698690E+02  0.00000000000E+00 0. -1.
        -14    1    5    5    0    0  0.10418839206E+03  0.26575195548E+03 -0.22628785699E+01  0.28545480115E+03  0.00000000000E+00 0.  1.
         15    1    3    3    0    0  0.90196380369E+02 -0.11334125305E+03 -0.21300998146E+03  0.25760053688E+03  0.17770000000E+01 0. -1.
        -16    1    3    3    0    0  0.22473306307E+03 -0.34705348060E+03 -0.39781692324E+03  0.57376769903E+03  0.00000000000E+00 0.  1.
          4    1    6    6  502    0 -0.21025262894E+03  0.10714840093E+03 -0.30093457417E+02  0.23789191658E+03  0.00000000000E+00 0. -1.
         -3    1    6    6    0  502 -0.23911763784E+03  0.74825516682E+02 -0.10623375467E+03  0.27214281784E+03  0.00000000000E+00 0.  1.
<mgrwt>
<rscale>  0 0.68154991E+03</rscale>
<asrwt>0</asrwt>
<pdfrwt beam="1">  1        1 0.18472480E+00 0.68154991E+03</pdfrwt>
<pdfrwt beam="2">  1       -2 0.70785888E-01 0.68154991E+03</pdfrwt>
<totfact> 0.17574538E+01</totfact>
</mgrwt>
</event>
<event>
12    3  0.1176505E-007  0.1009409E+04  0.7818608E-02  0.9298285E-01
          1   -1    0    0  501    0  0.00000000000E+00  0.00000000000E+00  0.28860684190E+04  0.28860684190E+04  0.00000000000E+00 0. -1.
         -2   -1    0    0    0  501 -0.00000000000E+00 -0.00000000000E+00 -0.38423941332E+03  0.38423941332E+03  0.00000000000E+00 0.  1.
        -24    2    1    2    0    0 -0.95548600376E+03  0.13144066879E+03  0.10696906910E+04  0.14424144782E+04  0.78046138461E+02 0.  0.
    5000000    2    1    2    0    0  0.95548600376E+03 -0.13144066879E+03  0.14321383147E+04  0.18278933541E+04  0.59995317221E+03 0.  0.
        -24    2    4    4    0    0  0.34628272535E+02 -0.10629440216E+03  0.15467657561E+02  0.13619179335E+03  0.76232138611E+02 0.  0.
         24    2    4    4    0    0  0.92085773123E+03 -0.25146266635E+02  0.14166706571E+04  0.16917015608E+04  0.79291387011E+02 0.  0.
         13    1    5    5    0    0  0.38661768651E+02 -0.18501827905E+02 -0.11291268728E+02  0.44323162574E+02  0.00000000000E+00 0. -1.
        -14    1    5    5    0    0 -0.40334961161E+01 -0.87792574253E+02  0.26758926290E+02  0.91868630778E+02  0.00000000000E+00 0.  1.
         15    1    3    3    0    0 -0.38323322303E+03  0.21370876838E+02  0.39196424755E+03  0.54860144613E+03  0.17770000000E+01 0. -1.
        -16    1    3    3    0    0 -0.57225278074E+03  0.11006979196E+03  0.67772644343E+03  0.89381303206E+03  0.00000000000E+00 0.  1.
          2    1    6    6  502    0  0.32540041162E+03 -0.20048058634E+02  0.43628166601E+03  0.54463661705E+03  0.00000000000E+00 0. -1.
         -1    1    6    6    0  502  0.59545731961E+03 -0.50982080014E+01  0.98038899112E+03  0.11470649437E+04  0.00000000000E+00 0.  1.
<mgrwt>
<rscale>  0 0.10094088E+04</rscale>
<asrwt>0</asrwt>
<pdfrwt beam="1">  1        1 0.44401051E+00 0.10094088E+04</pdfrwt>
<pdfrwt beam="2">  1       -2 0.59113758E-01 0.10094088E+04</pdfrwt>
<totfact> 0.17338151E+00</totfact>
</mgrwt>
</event>
<event>
12    3  0.1176505E-007  0.7127038E+03  0.7818608E-02  0.9695750E-01
         -2   -1    0    0    0  501 -0.00000000000E+00  0.00000000000E+00  0.17971211903E+03  0.17971211903E+03  0.00000000000E+00 0.  1.
          1   -1    0    0  501    0  0.00000000000E+00 -0.00000000000E+00 -0.38833477971E+04  0.38833477971E+04  0.00000000000E+00 0. -1.
        -24    2    1    2    0    0 -0.65677216761E+03  0.81122510385E+02 -0.89662482901E+03  0.11173364993E+04  0.81081606261E+02 0.  0.
    5000000    2    1    2    0    0  0.65677216761E+03 -0.81122510385E+02 -0.28070108491E+04  0.29457234169E+04  0.60003833196E+03 0.  0.
        -24    2    4    4    0    0  0.10630663154E+03 -0.15334117095E+03 -0.22357931915E+03  0.30215947670E+03  0.80610314386E+02 0.  0.
         24    2    4    4    0    0  0.55046553607E+03  0.72218660568E+02 -0.25834315299E+04  0.26435639402E+04  0.77999964517E+02 0.  0.
         13    1    5    5    0    0  0.83117819251E+02 -0.49331698417E+02 -0.10922121808E+03  0.14584739567E+03  0.00000000000E+00 0. -1.
        -14    1    5    5    0    0  0.23188812289E+02 -0.10400947254E+03 -0.11435810108E+03  0.15631208102E+03  0.00000000000E+00 0.  1.
         15    1    3    3    0    0 -0.70793551406E+02  0.34773455557E+02 -0.10410542117E+03  0.13062165432E+03  0.17770000000E+01 0. -1.
        -16    1    3    3    0    0 -0.58597861620E+03  0.46349054828E+02 -0.79251940784E+03  0.98671484499E+03  0.00000000000E+00 0.  1.
          2    1    6    6  502    0  0.58563513653E+02  0.19836682239E+01 -0.17972035363E+03  0.18903181103E+03  0.00000000000E+00 0. -1.
         -1    1    6    6    0  502  0.49190202242E+03  0.70234992344E+02 -0.24037111763E+04  0.24545321291E+04  0.00000000000E+00 0.  1.
<mgrwt>
<rscale>  0 0.71270384E+03</rscale>
<asrwt>0</asrwt>
<pdfrwt beam="1">  1        1 0.59743809E+00 0.71270384E+03</pdfrwt>
<pdfrwt beam="2">  1       -2 0.27648020E-01 0.71270384E+03</pdfrwt>
<totfact> 0.14034531E+00</totfact>
</mgrwt>
</event>
<event>
12    3  0.1176505E-007  0.3810899E+03  0.7818608E-02  0.1050532E+00
          1   -1    0    0  501    0  0.00000000000E+00  0.00000000000E+00  0.33640457865E+03  0.33640457865E+03  0.00000000000E+00 0. -1.
         -2   -1    0    0    0  501 -0.00000000000E+00 -0.00000000000E+00 -0.48219050641E+03  0.48219050641E+03  0.00000000000E+00 0.  1.
        -24    2    1    2    0    0 -0.53707117369E+02  0.12582491332E+03  0.60019466268E+02  0.16968174410E+03  0.80456166212E+02 0.  0.
    5000000    2    1    2    0    0  0.53707117369E+02 -0.12582491332E+03 -0.20580539403E+03  0.64891334097E+03  0.60001358368E+03 0.  0.
        -24    2    4    4    0    0  0.57625038935E+02  0.22927610863E+03 -0.11284576152E+03  0.27413333705E+03  0.80788250933E+02 0.  0.
         24    2    4    4    0    0 -0.39179215657E+01 -0.35510102195E+03 -0.92959632502E+02  0.37478000391E+03  0.75541195108E+02 0.  0.
         13    1    5    5    0    0  0.57503683917E+02  0.10942155868E+03 -0.26513280688E+02  0.12642272430E+03  0.00000000000E+00 0. -1.
        -14    1    5    5    0    0  0.12135501750E+00  0.11985454995E+03 -0.86332480837E+02  0.14771061275E+03  0.00000000000E+00 0.  1.
         15    1    3    3    0    0  0.12616436818E+02  0.72150798051E+02  0.31072560286E+02  0.79583753802E+02  0.17770000000E+01 0. -1.
        -16    1    3    3    0    0 -0.66323554187E+02  0.53674115270E+02  0.28946905981E+02  0.90097990299E+02  0.00000000000E+00 0.  1.
          4    1    6    6  502    0  0.27795349336E+02 -0.18772463544E+03 -0.72721402560E+02  0.20322776037E+03  0.00000000000E+00 0. -1.
         -3    1    6    6    0  502 -0.31713270901E+02 -0.16737638651E+03 -0.20238229942E+02  0.17155224354E+03  0.00000000000E+00 0.  1.
<mgrwt>
<rscale>  0 0.38108992E+03</rscale>
<asrwt>0</asrwt>
<pdfrwt beam="1">  1        1 0.51754551E-01 0.38108992E+03</pdfrwt>
<pdfrwt beam="2">  1       -2 0.74183155E-01 0.38108992E+03</pdfrwt>
<totfact> 0.11183347E+02</totfact>
</mgrwt>
</event>
<event>
12    3  0.1176505E-007  0.1169217E+04  0.7818608E-02  0.9140236E-01
         -2   -1    0    0    0  501 -0.00000000000E+00  0.00000000000E+00  0.16661539620E+04  0.16661539620E+04  0.00000000000E+00 0.  1.
          1   -1    0    0  501    0  0.00000000000E+00 -0.00000000000E+00 -0.12522158660E+04  0.12522158660E+04  0.00000000000E+00 0. -1.
        -24    2    1    2    0    0  0.80134717070E+03 -0.83678834112E+03  0.95579388062E+03  0.15052658806E+04  0.99556081054E+02 0.  0.
    5000000    2    1    2    0    0 -0.80134717070E+03  0.83678834112E+03 -0.54185578471E+03  0.14131039474E+04  0.60073543171E+03 0.  0.
        -24    2    4    4    0    0 -0.58478517853E+03  0.48685089431E+03 -0.49570457447E+02  0.76683950829E+03  0.81167129488E+02 0.  0.
         24    2    4    4    0    0 -0.21656199218E+03  0.34993744680E+03 -0.49228532726E+03  0.64626443910E+03  0.77185288010E+02 0.  0.
         11    1    5    5    0    0 -0.41340013748E+03  0.38879137561E+03 -0.45823028436E+02  0.56934888896E+03  0.00000000000E+00 0. -1.
        -12    1    5    5    0    0 -0.17138504105E+03  0.98059518702E+02 -0.37474290112E+01  0.19749061934E+03  0.00000000000E+00 0.  1.
         15    1    3    3    0    0  0.20962871570E+03 -0.16610804380E+03  0.19401571831E+03  0.33042599374E+03  0.17770000000E+01 0. -1.
        -16    1    3    3    0    0  0.59171845500E+03 -0.67068029732E+03  0.76177816231E+03  0.11748398869E+04  0.00000000000E+00 0.  1.
          4    1    6    6  502    0 -0.19473594326E+03  0.30964396318E+03 -0.39286159254E+03  0.53678832180E+03  0.00000000000E+00 0. -1.
         -3    1    6    6    0  502 -0.21826048915E+02  0.40293483625E+02 -0.99423734720E+02  0.10947611730E+03  0.00000000000E+00 0.  1.
<mgrwt>
<rscale>  0 0.11692172E+04</rscale>
<asrwt>0</asrwt>
<pdfrwt beam="1">  1        1 0.19264859E+00 0.11692172E+04</pdfrwt>
<pdfrwt beam="2">  1       -2 0.25633138E+00 0.11692172E+04</pdfrwt>
<totfact> 0.49437751E-01</totfact>
</mgrwt>
</event>
<event>
12    3  0.1176505E-007  0.1873888E+04  0.7818608E-02  0.8667964E-01
         -2   -1    0    0    0  501 -0.00000000000E+00  0.00000000000E+00  0.21946674006E+04  0.21946674006E+04  0.00000000000E+00 0.  1.
          1   -1    0    0  501    0  0.00000000000E+00 -0.00000000000E+00 -0.16522813013E+04  0.16522813013E+04  0.00000000000E+00 0. -1.
        -24    2    1    2    0    0 -0.79078554677E+03  0.16540353910E+04  0.55689424696E+03  0.19178637465E+04  0.83037896318E+02 0.  0.
    5000000    2    1    2    0    0  0.79078554677E+03 -0.16540353910E+04 -0.14508147631E+02  0.19290849554E+04  0.59998618594E+03 0.  0.
        -24    2    4    4    0    0  0.56596796918E+03 -0.15681840009E+04 -0.65056444144E+02  0.16704412936E+04  0.81369352586E+02 0.  0.
         24    2    4    4    0    0  0.22481757758E+03 -0.85851390051E+02  0.50548296513E+02  0.25864366183E+03  0.80174866120E+02 0.  0.
         13    1    5    5    0    0  0.20920212250E+03 -0.64118498316E+03  0.77428607547E+01  0.67449511680E+03  0.00000000000E+00 0. -1.
        -14    1    5    5    0    0  0.35676584668E+03 -0.92699901775E+03 -0.72799304898E+02  0.99594617679E+03  0.00000000000E+00 0.  1.
         15    1    3    3    0    0 -0.67667170928E+03  0.14557937495E+04  0.46505915938E+03  0.16713776422E+04  0.17770000000E+01 0. -1.
        -16    1    3    3    0    0 -0.11411383749E+03  0.19824164145E+03  0.91835087584E+02  0.24648610432E+03  0.00000000000E+00 0.  1.
          2    1    6    6  502    0  0.11410480796E+03 -0.16503064381E+02  0.55406372241E+02  0.12791451997E+03  0.00000000000E+00 0. -1.
         -1    1    6    6    0  502  0.11071276962E+03 -0.69348325670E+02 -0.48580757280E+01  0.13072914186E+03  0.00000000000E+00 0.  1.
<mgrwt>
<rscale>  0 0.18738881E+04</rscale>
<asrwt>0</asrwt>
<pdfrwt beam="1">  1        1 0.25419712E+00 0.18738881E+04</pdfrwt>
<pdfrwt beam="2">  1       -2 0.33764114E+00 0.18738881E+04</pdfrwt>
<totfact> 0.75804953E-02</totfact>
</mgrwt>
</event>
<event>
12    3  0.1176505E-007  0.9853970E+03  0.7818608E-02  0.9324708E-01
         -2   -1    0    0    0  501 -0.00000000000E+00  0.00000000000E+00  0.67934746779E+03  0.67934746779E+03  0.00000000000E+00 0.  1.
          1   -1    0    0  501    0  0.00000000000E+00 -0.00000000000E+00 -0.20400511140E+04  0.20400511140E+04  0.00000000000E+00 0. -1.
        -24    2    1    2    0    0  0.86283350117E+03  0.33691601580E+03  0.46707946715E+02  0.93086286463E+03  0.79561221840E+02 0.  0.
    5000000    2    1    2    0    0 -0.86283350117E+03 -0.33691601580E+03 -0.14074115929E+04  0.17885357171E+04  0.60004880399E+03 0.  0.
        -24    2    4    4    0    0 -0.66390824332E+03 -0.27739399979E+02 -0.11631094317E+04  0.13419458436E+04  0.80321026217E+02 0.  0.
         24    2    4    4    0    0 -0.19892525785E+03 -0.30917661582E+03 -0.24430216120E+03  0.44658987350E+03  0.67805096921E+02 0.  0.
         11    1    5    5    0    0 -0.28182888575E+03 -0.51495789051E+02 -0.49384742454E+03  0.57093310980E+03  0.00000000000E+00 0. -1.
        -12    1    5    5    0    0 -0.38207935757E+03  0.23756389072E+02 -0.66926200715E+03  0.77101273382E+03  0.00000000000E+00 0.  1.
         15    1    3    3    0    0  0.18924170072E+03  0.98396545371E+02 -0.13687862630E+02  0.21374006817E+03  0.17770000000E+01 0. -1.
        -16    1    3    3    0    0  0.67359180045E+03  0.23851947043E+03  0.60395809345E+02  0.71712279646E+03  0.00000000000E+00 0.  1.
          4    1    6    6  502    0 -0.92528624634E+02 -0.85812984304E+02 -0.90104658382E+02  0.15506212985E+03  0.00000000000E+00 0. -1.
         -3    1    6    6    0  502 -0.10639663321E+03 -0.22336363152E+03 -0.15419750282E+03  0.29152774365E+03  0.00000000000E+00 0.  1.
<mgrwt>
<rscale>  0 0.98539704E+03</rscale>
<asrwt>0</asrwt>
<pdfrwt beam="1">  1        1 0.31385402E+00 0.98539704E+03</pdfrwt>
<pdfrwt beam="2">  1       -2 0.10451500E+00 0.98539704E+03</pdfrwt>
<totfact> 0.18409832E+00</totfact>
</mgrwt>
</event>
<event>
12    3  0.1176505E-007  0.1304119E+04  0.7818608E-02  0.9026305E-01
         -2   -1    0    0    0  501 -0.00000000000E+00  0.00000000000E+00  0.12294512200E+04  0.12294512200E+04  0.00000000000E+00 0.  1.
          1   -1    0    0  501    0  0.00000000000E+00 -0.00000000000E+00 -0.14781104901E+04  0.14781104901E+04  0.00000000000E+00 0. -1.
        -24    2    1    2    0    0  0.11139430443E+04  0.62766874133E+03 -0.17775729559E+03  0.12933634072E+04  0.79712559759E+02 0.  0.
    5000000    2    1    2    0    0 -0.11139430443E+04 -0.62766874133E+03 -0.70901974509E+02  0.14141983028E+04  0.60007715750E+03 0.  0.
        -24    2    4    4    0    0 -0.29899735323E+03 -0.16722556969E+02  0.18485440239E+03  0.36079949139E+03  0.79536543518E+02 0.  0.
         24    2    4    4    0    0 -0.81494569105E+03 -0.61094618436E+03 -0.25575637690E+03  0.10533988114E+04  0.82740631138E+02 0.  0.
         13    1    5    5    0    0 -0.27806949461E+03 -0.34574852542E+02  0.15507615628E+03  0.32026032928E+03  0.00000000000E+00 0. -1.
        -14    1    5    5    0    0 -0.20927858620E+02  0.17852295572E+02  0.29778246111E+02  0.40539162116E+02  0.00000000000E+00 0.  1.
         15    1    3    3    0    0  0.33761082490E+03  0.19472388318E+03 -0.91131709800E+02  0.40025817422E+03  0.17770000000E+01 0. -1.
        -16    1    3    3    0    0  0.77633221938E+03  0.43294485816E+03 -0.86625585785E+02  0.89310523297E+03  0.00000000000E+00 0.  1.
          2    1    6    6  502    0 -0.22225752529E+03 -0.12200744813E+03 -0.63278747781E+02  0.26132054046E+03  0.00000000000E+00 0. -1.
         -1    1    6    6    0  502 -0.59268816576E+03 -0.48893873623E+03 -0.19247762912E+03  0.79207827096E+03  0.00000000000E+00 0.  1.
<mgrwt>
<rscale>  0 0.13041189E+04</rscale>
<asrwt>0</asrwt>
<pdfrwt beam="1">  1        1 0.22740161E+00 0.13041189E+04</pdfrwt>
<pdfrwt beam="2">  1       -2 0.18914634E+00 0.13041189E+04</pdfrwt>
<totfact> 0.89875367E-01</totfact>
</mgrwt>
</event>
<event>
12    3  0.1176505E-007  0.1071988E+04  0.7818608E-02  0.9232933E-01
          1   -1    0    0  501    0  0.00000000000E+00  0.00000000000E+00  0.14931015897E+04  0.14931015897E+04  0.00000000000E+00 0. -1.
         -2   -1    0    0    0  501 -0.00000000000E+00 -0.00000000000E+00 -0.86243844794E+03  0.86243844794E+03  0.00000000000E+00 0.  1.
        -24    2    1    2    0    0 -0.79105971717E+03  0.68428227205E+03  0.16131467303E+03  0.10616282468E+04  0.83752055293E+02 0.  0.
    5000000    2    1    2    0    0  0.79105971717E+03 -0.68428227205E+03  0.46934846873E+03  0.12939117908E+04  0.59991835556E+03 0.  0.
        -24    2    4    4    0    0  0.25046513993E+00 -0.42799793363E+02 -0.94286903264E+02  0.12730940531E+03  0.74066048288E+02 0.  0.
         24    2    4    4    0    0  0.79080925203E+03 -0.64148247869E+03  0.56363537199E+03  0.11666023855E+04  0.79982809009E+02 0.  0.
         13    1    5    5    0    0 -0.32273710724E+02 -0.29985872140E+02 -0.76031820090E+02  0.87872536086E+02  0.00000000000E+00 0. -1.
        -14    1    5    5    0    0  0.32524175863E+02 -0.12813921223E+02 -0.18255083174E+02  0.39436869227E+02  0.00000000000E+00 0.  1.
         15    1    3    3    0    0 -0.41176683683E+03  0.34556156042E+03  0.12442754637E+03  0.55176996292E+03  0.17770000000E+01 0. -1.
        -16    1    3    3    0    0 -0.37929288034E+03  0.33872071163E+03  0.36887126665E+02  0.50985828392E+03  0.00000000000E+00 0.  1.
          4    1    6    6  502    0  0.19280317266E+03 -0.17625400235E+03  0.10937049935E+03  0.28319682707E+03  0.00000000000E+00 0. -1.
         -3    1    6    6    0  502  0.59800607938E+03 -0.46522847634E+03  0.45426487264E+03  0.88340555844E+03  0.00000000000E+00 0.  1.
<mgrwt>
<rscale>  0 0.10719880E+04</rscale>
<asrwt>0</asrwt>
<pdfrwt beam="1">  1        1 0.22970794E+00 0.10719880E+04</pdfrwt>
<pdfrwt beam="2">  1       -2 0.13268284E+00 0.10719880E+04</pdfrwt>
<totfact> 0.23696501E+00</totfact>
</mgrwt>
</event>
<event>
12    3  0.1176505E-007  0.9990096E+03  0.7818608E-02  0.9309632E-01
         -2   -1    0    0    0  501 -0.00000000000E+00  0.00000000000E+00  0.16885637178E+04  0.16885637178E+04  0.00000000000E+00 0.  1.
          1   -1    0    0  501    0  0.00000000000E+00 -0.00000000000E+00 -0.68200970096E+03  0.68200970096E+03  0.00000000000E+00 0. -1.
        -24    2    1    2    0    0  0.92036929082E+03 -0.35745570824E+03  0.44760655565E+03  0.10870919416E+04  0.81012627987E+02 0.  0.
    5000000    2    1    2    0    0 -0.92036929082E+03  0.35745570824E+03  0.55894746119E+03  0.12834814772E+04  0.60004018462E+03 0.  0.
        -24    2    4    4    0    0 -0.89047785306E+03  0.37993409525E+03  0.31155407840E+03  0.10200607254E+04  0.78467931295E+02 0.  0.
         24    2    4    4    0    0 -0.29891437753E+02 -0.22478387011E+02  0.24739338279E+03  0.26342075180E+03  0.82390719727E+02 0.  0.
         13    1    5    5    0    0 -0.26161136959E+03  0.14030235038E+03  0.69574762508E+02  0.30490310887E+03  0.00000000000E+00 0. -1.
        -14    1    5    5    0    0 -0.62886648348E+03  0.23963174487E+03  0.24197931589E+03  0.71515761655E+03  0.00000000000E+00 0.  1.
         15    1    3    3    0    0  0.17628582918E+03 -0.87683158135E+02  0.11933898220E+03  0.23023896324E+03  0.17770000000E+01 0. -1.
        -16    1    3    3    0    0  0.74408346164E+03 -0.26977255010E+03  0.32826757346E+03  0.85685297832E+03  0.00000000000E+00 0.  1.
          2    1    6    6  502    0 -0.11293064857E+02 -0.17022538269E+02  0.60565265317E+01  0.21306844830E+02  0.00000000000E+00 0. -1.
         -1    1    6    6    0  502 -0.18598372896E+02 -0.54558487423E+01  0.24133685626E+03  0.24211390697E+03  0.00000000000E+00 0.  1.
<mgrwt>
<rscale>  0 0.99900960E+03</rscale>
<asrwt>0</asrwt>
<pdfrwt beam="1">  1        1 0.10492457E+00 0.99900960E+03</pdfrwt>
<pdfrwt beam="2">  1       -2 0.25977903E+00 0.99900960E+03</pdfrwt>
<totfact> 0.13943553E+00</totfact>
</mgrwt>
</event>
<event>
12    3  0.1176505E-007  0.8242551E+03  0.7818608E-02  0.9525558E-01
         -2   -1    0    0    0  501 -0.00000000000E+00  0.00000000000E+00  0.65456587699E+03  0.65456587699E+03  0.00000000000E+00 0.  1.
          1   -1    0    0  501    0  0.00000000000E+00 -0.00000000000E+00 -0.16177462596E+04  0.16177462596E+04  0.00000000000E+00 0. -1.
        -24    2    1    2    0    0 -0.70679902862E+03 -0.20288460920E+03 -0.10875409313E+04  0.13151859539E+04  0.79004966335E+02 0.  0.
    5000000    2    1    2    0    0  0.70679902862E+03  0.20288460920E+03  0.12436054867E+03  0.95712618265E+03  0.59991495393E+03 0.  0.
        -24    2    4    4    0    0  0.48688990312E+03  0.38126833588E+03  0.19696014237E+03  0.65410728236E+03  0.81459913153E+02 0.  0.
         24    2    4    4    0    0  0.21990912550E+03 -0.17838372668E+03 -0.72599593696E+02  0.30301890029E+03  0.79805861378E+02 0.  0.
         11    1    5    5    0    0  0.24644931903E+03  0.20057911137E+03  0.14337388294E+03  0.34860481505E+03  0.00000000000E+00 0. -1.
        -12    1    5    5    0    0  0.24044058410E+03  0.18068922451E+03  0.53586259426E+02  0.30550246731E+03  0.00000000000E+00 0.  1.
         15    1    3    3    0    0 -0.51728171719E+03 -0.13649397231E+03 -0.84740971587E+03  0.10021563569E+04  0.17770000000E+01 0. -1.
        -16    1    3    3    0    0 -0.18951731143E+03 -0.66390636890E+02 -0.24013121542E+03  0.31302959703E+03  0.00000000000E+00 0.  1.
          4    1    6    6  502    0  0.53636480940E+02 -0.92792012254E+02 -0.27337519062E+02  0.11060998858E+03  0.00000000000E+00 0. -1.
         -3    1    6    6    0  502  0.16627264455E+03 -0.85591714424E+02 -0.45262074634E+02  0.19240891171E+03  0.00000000000E+00 0.  1.
<mgrwt>
<rscale>  0 0.82425510E+03</rscale>
<asrwt>0</asrwt>
<pdfrwt beam="1">  1        1 0.24888404E+00 0.82425510E+03</pdfrwt>
<pdfrwt beam="2">  1       -2 0.10070244E+00 0.82425510E+03</pdfrwt>
<totfact> 0.39619194E+00</totfact>
</mgrwt>
</event>
<event>
12    3  0.1176505E-007  0.3882355E+03  0.7818608E-02  0.1047931E+00
         -2   -1    0    0    0  501 -0.00000000000E+00  0.00000000000E+00  0.13696632468E+04  0.13696632468E+04  0.00000000000E+00 0.  1.
          1   -1    0    0  501    0  0.00000000000E+00 -0.00000000000E+00 -0.20616046904E+03  0.20616046904E+03  0.00000000000E+00 0. -1.
        -24    2    1    2    0    0 -0.96802636206E+02 -0.30853532257E+03  0.62073562270E+03  0.70449005642E+03  0.80179365562E+02 0.  0.
    5000000    2    1    2    0    0  0.96802636206E+02  0.30853532257E+03  0.54276715509E+03  0.87133365945E+03  0.60005113597E+03 0.  0.
        -24    2    4    4    0    0 -0.19898544741E+02  0.30069300649E+03  0.13837031295E+01  0.31158329618E+03  0.79183329002E+02 0.  0.
         24    2    4    4    0    0  0.11670118095E+03  0.78423160844E+01  0.54138345196E+03  0.55975036326E+03  0.80893507513E+02 0.  0.
         11    1    5    5    0    0 -0.16428106847E+02  0.96071537519E+02  0.36239725529E+02  0.10398529089E+03  0.00000000000E+00 0. -1.
        -12    1    5    5    0    0 -0.34704378943E+01  0.20462146897E+03 -0.34856022399E+02  0.20759800529E+03  0.00000000000E+00 0.  1.
         15    1    3    3    0    0  0.12788499537E+02 -0.51575773560E+02  0.11602849794E+03  0.12762984056E+03  0.17770000000E+01 0. -1.
        -16    1    3    3    0    0 -0.10959113574E+03 -0.25695954901E+03  0.50470712476E+03  0.57686021586E+03  0.00000000000E+00 0.  1.
          2    1    6    6  502    0  0.84475216435E+02  0.42452741707E+02  0.34112048239E+03  0.35397949231E+03  0.00000000000E+00 0. -1.
         -1    1    6    6    0  502  0.32225964512E+02 -0.34610425623E+02  0.20026296957E+03  0.20577087095E+03  0.00000000000E+00 0.  1.
<mgrwt>
<rscale>  0 0.38823546E+03</rscale>
<asrwt>0</asrwt>
<pdfrwt beam="1">  1        1 0.31716996E-01 0.38823546E+03</pdfrwt>
<pdfrwt beam="2">  1       -2 0.21071742E+00 0.38823546E+03</pdfrwt>
<totfact> 0.15077220E+01</totfact>
</mgrwt>
</event>
<event>
12    3  0.1176505E-007  0.6268918E+03  0.7818608E-02  0.9851133E-01
         -2   -1    0    0    0  501 -0.00000000000E+00  0.00000000000E+00  0.20809866631E+04  0.20809866631E+04  0.00000000000E+00 0.  1.
          1   -1    0    0  501    0  0.00000000000E+00 -0.00000000000E+00 -0.30625109075E+03  0.30625109075E+03  0.00000000000E+00 0. -1.
        -24    2    1    2    0    0  0.17155367258E+03  0.46512661245E+03  0.14666896888E+04  0.15502421509E+04  0.79364065322E+02 0.  0.
    5000000    2    1    2    0    0 -0.17155367258E+03 -0.46512661245E+03  0.30804588353E+03  0.83699560299E+03  0.59991328113E+03 0.  0.
        -24    2    4    4    0    0  0.36693805928E+02  0.12048649638E+03  0.37912065627E+02  0.15453745995E+03  0.81123798010E+02 0.  0.
         24    2    4    4    0    0 -0.20824747851E+03 -0.58561310883E+03  0.27013381791E+03  0.68245814304E+03  0.80418355425E+02 0.  0.
         13    1    5    5    0    0  0.20156352541E+02  0.42712992615E+02  0.55731808536E+02  0.73052808081E+02  0.00000000000E+00 0. -1.
        -14    1    5    5    0    0  0.16537453387E+02  0.77773503764E+02 -0.17819742909E+02  0.81484651865E+02  0.00000000000E+00 0.  1.
         15    1    3    3    0    0  0.10260291808E+03  0.37336795674E+03  0.11426246735E+04  0.12064515291E+04  0.17770000000E+01 0. -1.
        -16    1    3    3    0    0  0.68950754502E+02  0.91758655710E+02  0.32406501538E+03  0.34379062180E+03  0.00000000000E+00 0.  1.
          2    1    6    6  502    0 -0.26759076586E+02 -0.16202465458E+03  0.49392744971E+02  0.17148667624E+03  0.00000000000E+00 0. -1.
         -3    1    6    6    0  502 -0.18148840192E+03 -0.42358845424E+03  0.22074107293E+03  0.51097146680E+03  0.00000000000E+00 0.  1.
<mgrwt>
<rscale>  0 0.62689179E+03</rscale>
<asrwt>0</asrwt>
<pdfrwt beam="1">  1        1 0.47115554E-01 0.62689179E+03</pdfrwt>
<pdfrwt beam="2">  1       -2 0.32015179E+00 0.62689179E+03</pdfrwt>
<totfact> 0.19090541E+00</totfact>
</mgrwt>
</event>
<event>
12    3  0.1176505E-007  0.6728039E+03  0.7818608E-02  0.9764906E-01
         -2   -1    0    0    0  501 -0.00000000000E+00  0.00000000000E+00  0.54434845283E+03  0.54434845283E+03  0.00000000000E+00 0.  1.
          1   -1    0    0  501    0  0.00000000000E+00 -0.00000000000E+00 -0.10654362614E+04  0.10654362614E+04  0.00000000000E+00 0. -1.
        -24    2    1    2    0    0  0.60810851062E+03  0.10228415706E+03 -0.37333258672E+02  0.62273332423E+03  0.78390123311E+02 0.  0.
    5000000    2    1    2    0    0 -0.60810851062E+03 -0.10228415706E+03 -0.48375454993E+03  0.98705139002E+03  0.59999497705E+03 0.  0.
        -24    2    4    4    0    0 -0.64716624369E+03 -0.73384734849E+02 -0.19750945061E+03  0.68562015554E+03  0.82798238679E+02 0.  0.
         24    2    4    4    0    0  0.39057733066E+02 -0.28899422212E+02 -0.28624509932E+03  0.30143123448E+03  0.81017585234E+02 0.  0.
         13    1    5    5    0    0 -0.39423986945E+03 -0.82522829180E+02 -0.10606157498E+03  0.41651428510E+03  0.00000000000E+00 0. -1.
        -14    1    5    5    0    0 -0.25292637423E+03  0.91380943318E+01 -0.91447875625E+02  0.26910587044E+03  0.00000000000E+00 0.  1.
         15    1    3    3    0    0  0.34913383165E+03  0.92111842582E+02 -0.14572474646E+01  0.36108766975E+03  0.17770000000E+01 0. -1.
        -16    1    3    3    0    0  0.25897467897E+03  0.10172314479E+02 -0.35876011207E+02  0.26164565448E+03  0.00000000000E+00 0.  1.
          2    1    6    6  502    0 -0.15174561783E+01 -0.28858060763E+02 -0.23145895951E+03  0.23325595444E+03  0.00000000000E+00 0. -1.
         -1    1    6    6    0  502  0.40575189245E+02 -0.41361449029E-01 -0.54786139817E+02  0.68175280044E+02  0.00000000000E+00 0.  1.
<mgrwt>
<rscale>  0 0.67280391E+03</rscale>
<asrwt>0</asrwt>
<pdfrwt beam="1">  1        1 0.16391327E+00 0.67280391E+03</pdfrwt>
<pdfrwt beam="2">  1       -2 0.83745916E-01 0.67280391E+03</pdfrwt>
<totfact> 0.15220811E+01</totfact>
</mgrwt>
</event>
<event>
12    3  0.1176505E-007  0.6786291E+03  0.7818608E-02  0.9754494E-01
         -2   -1    0    0    0  501 -0.00000000000E+00  0.00000000000E+00  0.33457627095E+03  0.33457627095E+03  0.00000000000E+00 0.  1.
          1   -1    0    0  501    0  0.00000000000E+00 -0.00000000000E+00 -0.21186493868E+04  0.21186493868E+04  0.00000000000E+00 0. -1.
        -24    2    1    2    0    0 -0.55880708208E+03  0.18129214641E+02 -0.14703585457E+04  0.15751128232E+04  0.80200558016E+02 0.  0.
    5000000    2    1    2    0    0  0.55880708208E+03 -0.18129214641E+02 -0.31371457021E+03  0.87811283459E+03  0.60005940981E+03 0.  0.
        -24    2    4    4    0    0 -0.79929067990E+02 -0.12020178701E+03 -0.27274992866E+02  0.16693732349E+03  0.79290725986E+02 0.  0.
         24    2    4    4    0    0  0.63873615007E+03  0.10207257237E+03 -0.28643957734E+03  0.71117551110E+03  0.72940363860E+02 0.  0.
         13    1    5    5    0    0 -0.10951636644E+02 -0.24386267729E+02  0.26109223055E+02  0.37367364470E+02  0.00000000000E+00 0. -1.
        -14    1    5    5    0    0 -0.68977431346E+02 -0.95815519285E+02 -0.53384215922E+02  0.12956995902E+03  0.00000000000E+00 0.  1.
         15    1    3    3    0    0 -0.25029056905E+03  0.47866395679E+02 -0.67333437078E+03  0.71994367376E+03  0.17770000000E+01 0. -1.
        -16    1    3    3    0    0 -0.30851651303E+03 -0.29737181038E+02 -0.79702417488E+03  0.85516914941E+03  0.00000000000E+00 0.  1.
          2    1    6    6  502    0  0.26516882689E+03  0.58897886680E+02 -0.85303795365E+02  0.28471073972E+03  0.00000000000E+00 0. -1.
         -1    1    6    6    0  502  0.37356732318E+03  0.43174685692E+02 -0.20113578198E+03  0.42646477138E+03  0.00000000000E+00 0.  1.
<mgrwt>
<rscale>  0 0.67862907E+03</rscale>
<asrwt>0</asrwt>
<pdfrwt beam="1">  1        1 0.32594606E+00 0.67862907E+03</pdfrwt>
<pdfrwt beam="2">  1       -2 0.51473273E-01 0.67862907E+03</pdfrwt>
<totfact> 0.81883833E+00</totfact>
</mgrwt>
</event>
<event>
12    3  0.1176505E-007  0.3609435E+03  0.7818608E-02  0.1058211E+00
         -2   -1    0    0    0  501 -0.00000000000E+00  0.00000000000E+00  0.20646736818E+03  0.20646736818E+03  0.00000000000E+00 0.  1.
          1   -1    0    0  501    0  0.00000000000E+00 -0.00000000000E+00 -0.13851100354E+04  0.13851100354E+04  0.00000000000E+00 0. -1.
        -24    2    1    2    0    0 -0.22927431522E+03 -0.21266585896E+03 -0.13344908441E+03  0.34642630185E+03  0.66400642307E+02 0.  0.
    5000000    2    1    2    0    0  0.22927431522E+03  0.21266585896E+03 -0.10451935828E+04  0.12451511017E+04  0.60014844948E+03 0.  0.
        -24    2    4    4    0    0  0.57988727480E+02  0.20940628078E+03 -0.10284442516E+04  0.10543688625E+04  0.82355549454E+02 0.  0.
         24    2    4    4    0    0  0.17128558774E+03  0.32595781878E+01 -0.16749331177E+02  0.19078223924E+03  0.82267522741E+02 0.  0.
         13    1    5    5    0    0 -0.55480354426E+01 -0.15758297973E+01 -0.98833699795E+02  0.99001839135E+02  0.00000000000E+00 0. -1.
        -14    1    5    5    0    0  0.63536762923E+02  0.21098211057E+03 -0.92961055185E+03  0.95536702336E+03  0.00000000000E+00 0.  1.
         15    1    3    3    0    0 -0.15161554578E+03 -0.14670012148E+03 -0.12245830966E+03  0.24394137554E+03  0.17770000000E+01 0. -1.
        -16    1    3    3    0    0 -0.77658769437E+02 -0.65965737482E+02 -0.10990774742E+02  0.10248492631E+03  0.00000000000E+00 0.  1.
          2    1    6    6  502    0  0.68317473563E+02  0.32802569428E+02  0.18499007293E+02  0.78009608549E+02  0.00000000000E+00 0. -1.
         -1    1    6    6    0  502  0.10296811418E+03 -0.29542991240E+02 -0.35248338470E+02  0.11277263069E+03  0.00000000000E+00 0.  1.
<mgrwt>
<rscale>  0 0.36094347E+03</rscale>
<asrwt>0</asrwt>
<pdfrwt beam="1">  1        1 0.21309384E+00 0.36094347E+03</pdfrwt>
<pdfrwt beam="2">  1       -2 0.31764212E-01 0.36094347E+03</pdfrwt>
<totfact> 0.68524387E+01</totfact>
</mgrwt>
</event>
<event>
12    3  0.1176505E-007  0.5189234E+03  0.7818608E-02  0.1008954E+00
          1   -1    0    0  501    0  0.00000000000E+00  0.00000000000E+00  0.57536529907E+03  0.57536529907E+03  0.00000000000E+00 0. -1.
         -2   -1    0    0    0  501 -0.00000000000E+00 -0.00000000000E+00 -0.69675330685E+03  0.69675330685E+03  0.00000000000E+00 0.  1.
        -24    2    1    2    0    0 -0.48047838433E+03 -0.70283342544E+02 -0.85752887398E+02  0.49943407218E+03  0.79256600440E+02 0.  0.
    5000000    2    1    2    0    0  0.48047838433E+03  0.70283342544E+02 -0.35635120390E+02  0.77268453374E+03  0.59997691691E+03 0.  0.
        -24    2    4    4    0    0  0.13116193130E+03 -0.73143706676E+02 -0.27167324157E+03  0.32029073722E+03  0.78907237391E+02 0.  0.
         24    2    4    4    0    0  0.34931645303E+03  0.14342704922E+03  0.23603812118E+03  0.45239379652E+03  0.79704765670E+02 0.  0.
         13    1    5    5    0    0  0.94718003996E+02 -0.86616016790E+01 -0.16439489125E+03  0.18992683826E+03  0.00000000000E+00 0. -1.
        -14    1    5    5    0    0  0.36443927304E+02 -0.64482104997E+02 -0.10727835033E+03  0.13036389896E+03  0.00000000000E+00 0.  1.
         15    1    3    3    0    0 -0.34480675805E+03 -0.77964878736E+02 -0.38692064777E+02  0.35562684983E+03  0.17770000000E+01 0. -1.
        -16    1    3    3    0    0 -0.13567162627E+03  0.76815361912E+01 -0.47060822621E+02  0.14380722235E+03  0.00000000000E+00 0.  1.
          4    1    6    6  502    0  0.19293667517E+03  0.98099102230E+02  0.92654160729E+02  0.23544168702E+03  0.00000000000E+00 0. -1.
         -3    1    6    6    0  502  0.15637977785E+03  0.45327946991E+02  0.14338396046E+03  0.21695210950E+03  0.00000000000E+00 0.  1.
<mgrwt>
<rscale>  0 0.51892335E+03</rscale>
<asrwt>0</asrwt>
<pdfrwt beam="1">  1        1 0.88517739E-01 0.51892335E+03</pdfrwt>
<pdfrwt beam="2">  1       -2 0.10719282E+00 0.51892335E+03</pdfrwt>
<totfact> 0.23233930E+01</totfact>
</mgrwt>
</event>
<event>
12    3  0.1523992E-007  0.1150462E+04  0.7818608E-02  0.9157357E-01
         -4   -1    0    0    0  501 -0.00000000000E+00  0.00000000000E+00  0.11156468493E+04  0.11156468493E+04  0.00000000000E+00 0.  1.
          3   -1    0    0  501    0  0.00000000000E+00 -0.00000000000E+00 -0.14567045923E+04  0.14567045923E+04  0.00000000000E+00 0. -1.
        -24    2    1    2    0    0 -0.50597927414E+03  0.10307536558E+04  0.19998520413E+03  0.11682161309E+04  0.79162629784E+02 0.  0.
    5000000    2    1    2    0    0  0.50597927414E+03 -0.10307536558E+04 -0.54104294712E+03  0.14041353108E+04  0.60033355359E+03 0.  0.
        -24    2    4    4    0    0  0.24533855070E+03 -0.46902864842E+03 -0.56722513855E+03  0.77931924170E+03  0.73588349538E+02 0.  0.
         24    2    4    4    0    0  0.26064072344E+03 -0.56172500735E+03  0.26182191429E+02  0.62481606906E+03  0.79000268428E+02 0.  0.
         11    1    5    5    0    0  0.12468289929E+03 -0.21935848143E+03 -0.32251064045E+03  0.40948392149E+03  0.00000000000E+00 0. -1.
        -12    1    5    5    0    0  0.12065565141E+03 -0.24967016698E+03 -0.24471449810E+03  0.36983532022E+03  0.00000000000E+00 0.  1.
         15    1    3    3    0    0 -0.35766657023E+03  0.71442227120E+03  0.10254141435E+03  0.80550757689E+03  0.17770000000E+01 0. -1.
        -16    1    3    3    0    0 -0.14831270390E+03  0.31633138457E+03  0.97443789783E+02  0.36270855403E+03  0.00000000000E+00 0.  1.
          4    1    6    6  502    0  0.11833581066E+03 -0.17824287125E+03  0.28035350879E+02  0.21577735315E+03  0.00000000000E+00 0. -1.
         -3    1    6    6    0  502  0.14230491278E+03 -0.38348213610E+03 -0.18531594497E+01  0.40903871591E+03  0.00000000000E+00 0.  1.
<mgrwt>
<rscale>  0 0.11504620E+04</rscale>
<asrwt>0</asrwt>
<pdfrwt beam="1">  1        3 0.22410840E+00 0.11504620E+04</pdfrwt>
<pdfrwt beam="2">  1       -4 0.17163798E+00 0.11504620E+04</pdfrwt>
<totfact> 0.46921409E-02</totfact>
</mgrwt>
</event>
<event>
12    3  0.1176505E-007  0.7803471E+03  0.7818608E-02  0.9588908E-01
         -2   -1    0    0    0  501 -0.00000000000E+00  0.00000000000E+00  0.99172886616E+03  0.99172886616E+03  0.00000000000E+00 0.  1.
          1   -1    0    0  501    0  0.00000000000E+00 -0.00000000000E+00 -0.83797891851E+03  0.83797891851E+03  0.00000000000E+00 0. -1.
        -24    2    1    2    0    0  0.12997172589E+03  0.76409018788E+03 -0.16977325244E+03  0.79754817600E+03  0.80831126715E+02 0.  0.
    5000000    2    1    2    0    0 -0.12997172589E+03 -0.76409018788E+03  0.32352320008E+03  0.10321596087E+04  0.59996644243E+03 0.  0.
        -24    2    4    4    0    0 -0.91462785087E+02 -0.24848471862E+03 -0.15995591938E+03  0.31941501711E+03  0.79561049308E+02 0.  0.
         24    2    4    4    0    0 -0.38508940800E+02 -0.51560546926E+03  0.48347911946E+03  0.71274459156E+03  0.83191678634E+02 0.  0.
         13    1    5    5    0    0 -0.61865085821E+02 -0.20482742119E+03 -0.15914868291E+03  0.26666432942E+03  0.00000000000E+00 0. -1.
        -14    1    5    5    0    0 -0.29597699267E+02 -0.43657297437E+02 -0.80723647296E+00  0.52750687693E+02  0.00000000000E+00 0.  1.
         15    1    3    3    0    0  0.18087523714E+02  0.75612583039E+02 -0.42165776845E+02  0.88462035325E+02  0.17770000000E+01 0. -1.
        -16    1    3    3    0    0  0.11188420217E+03  0.68847760484E+03 -0.12760747559E+03  0.70908614067E+03  0.00000000000E+00 0.  1.
          4    1    6    6  502    0 -0.18123846356E+02 -0.44085754961E+03  0.37276637595E+03  0.57761459806E+03  0.00000000000E+00 0. -1.
         -3    1    6    6    0  502 -0.20385094443E+02 -0.74747919647E+02  0.11071274351E+03  0.13512999350E+03  0.00000000000E+00 0.  1.
<mgrwt>
<rscale>  0 0.78034707E+03</rscale>
<asrwt>0</asrwt>
<pdfrwt beam="1">  1        1 0.12891983E+00 0.78034707E+03</pdfrwt>
<pdfrwt beam="2">  1       -2 0.15257367E+00 0.78034707E+03</pdfrwt>
<totfact> 0.52478236E+00</totfact>
</mgrwt>
</event>
<event>
12    3  0.1176505E-007  0.3740395E+03  0.7818608E-02  0.1053159E+00
          1   -1    0    0  501    0  0.00000000000E+00  0.00000000000E+00  0.32615631561E+04  0.32615631561E+04  0.00000000000E+00 0. -1.
         -2   -1    0    0    0  501 -0.00000000000E+00 -0.00000000000E+00 -0.54101824214E+02  0.54101824214E+02  0.00000000000E+00 0.  1.
        -24    2    1    2    0    0  0.12822810866E+03 -0.14148631393E+03  0.93706105682E+03  0.95960208752E+03  0.79321606628E+02 0.  0.
    5000000    2    1    2    0    0 -0.12822810866E+03  0.14148631393E+03  0.22704002751E+04  0.23560628928E+04  0.59987842179E+03 0.  0.
        -24    2    4    4    0    0 -0.18721002633E+02 -0.18360872385E+03  0.14200545867E+04  0.14342131226E+04  0.79684454730E+02 0.  0.
         24    2    4    4    0    0 -0.10950710603E+03  0.32509503778E+03  0.85034568840E+03  0.92184977026E+03  0.95082171295E+02 0.  0.
         13    1    5    5    0    0  0.15402480089E+02 -0.14522761963E+01  0.12922467561E+03  0.13014746362E+03  0.00000000000E+00 0. -1.
        -14    1    5    5    0    0 -0.34123482722E+02 -0.18215644765E+03  0.12908299111E+04  0.13040656589E+04  0.00000000000E+00 0.  1.
         15    1    3    3    0    0  0.68121699561E+02 -0.25681620807E+02  0.25603031793E+03  0.26618563641E+03  0.17770000000E+01 0. -1.
        -16    1    3    3    0    0  0.60106409101E+02 -0.11580469312E+03  0.68103073889E+03  0.69341645111E+03  0.00000000000E+00 0.  1.
          2    1    6    6  502    0 -0.97635864328E+01  0.12489656011E+02  0.78107233186E+01  0.17672762265E+02  0.00000000000E+00 0. -1.
         -1    1    6    6    0  502 -0.99743519597E+02  0.31260538176E+03  0.84253496508E+03  0.90417700800E+03  0.00000000000E+00 0.  1.
<mgrwt>
<rscale>  0 0.37403953E+03</rscale>
<asrwt>0</asrwt>
<pdfrwt beam="1">  1        1 0.50177879E+00 0.37403953E+03</pdfrwt>
<pdfrwt beam="2">  1       -2 0.83233601E-02 0.37403953E+03</pdfrwt>
<totfact> 0.35594736E+01</totfact>
</mgrwt>
</event>
<event>
12    3  0.1176505E-007  0.4936993E+03  0.7818608E-02  0.1015437E+00
         -2   -1    0    0    0  501 -0.00000000000E+00  0.00000000000E+00  0.10058139546E+04  0.10058139546E+04  0.00000000000E+00 0.  1.
          1   -1    0    0  501    0  0.00000000000E+00 -0.00000000000E+00 -0.37602271665E+03  0.37602271665E+03  0.00000000000E+00 0. -1.
        -24    2    1    2    0    0  0.17929731487E+03  0.33613450807E+03 -0.57298277504E+02  0.39325990827E+03  0.78970426163E+02 0.  0.
    5000000    2    1    2    0    0 -0.17929731487E+03 -0.33613450807E+03  0.68708951547E+03  0.98857676299E+03  0.60004839756E+03 0.  0.
        -24    2    4    4    0    0 -0.58172268390E+02 -0.43174509666E+03  0.68642718475E+03  0.81690728502E+03  0.79795933746E+02 0.  0.
         24    2    4    4    0    0 -0.12112504648E+03  0.95610588586E+02  0.66233071384E+00  0.17166947797E+03  0.75215087924E+02 0.  0.
         13    1    5    5    0    0 -0.51935568110E+02 -0.38636396925E+03  0.65179723648E+03  0.75948275652E+03  0.00000000000E+00 0. -1.
        -14    1    5    5    0    0 -0.62367002794E+01 -0.45381127410E+02  0.34629948275E+02  0.57424528495E+02  0.00000000000E+00 0.  1.
         15    1    3    3    0    0  0.12163113795E+03  0.23850989414E+03 -0.76061862493E+02  0.27833373489E+03  0.17770000000E+01 0. -1.
        -16    1    3    3    0    0  0.57666176913E+02  0.97624613933E+02  0.18763584988E+02  0.11492617338E+03  0.00000000000E+00 0.  1.
          2    1    6    6  502    0 -0.12577798552E+03  0.10254185094E+03 -0.35489810638E+01  0.16231921667E+03  0.00000000000E+00 0. -1.
         -1    1    6    6    0  502  0.46529390391E+01 -0.69312623521E+01  0.42113117777E+01  0.93502613003E+01  0.00000000000E+00 0.  1.
<mgrwt>
<rscale>  0 0.49369925E+03</rscale>
<asrwt>0</asrwt>
<pdfrwt beam="1">  1        1 0.57849649E-01 0.49369925E+03</pdfrwt>
<pdfrwt beam="2">  1       -2 0.15474061E+00 0.49369925E+03</pdfrwt>
<totfact> 0.16429156E+01</totfact>
</mgrwt>
</event>
<event>
12    3  0.1176505E-007  0.1135312E+04  0.7818608E-02  0.9171442E-01
          1   -1    0    0  501    0  0.00000000000E+00  0.00000000000E+00  0.13210893802E+04  0.13210893802E+04  0.00000000000E+00 0. -1.
         -2   -1    0    0    0  501 -0.00000000000E+00 -0.00000000000E+00 -0.10352146180E+04  0.10352146180E+04  0.00000000000E+00 0.  1.
        -24    2    1    2    0    0 -0.25696580553E+03  0.10287576024E+04  0.39186377523E+03  0.11332582936E+04  0.79646167090E+02 0.  0.
    5000000    2    1    2    0    0  0.25696580553E+03 -0.10287576024E+04 -0.10598901300E+03  0.12230457045E+04  0.60019454740E+03 0.  0.
        -24    2    4    4    0    0  0.44271042767E+03 -0.74517600330E+03 -0.80804439985E+02  0.87460091236E+03  0.84365868204E+02 0.  0.
         24    2    4    4    0    0 -0.18574462214E+03 -0.28358159913E+03 -0.25184573016E+02  0.34844479217E+03  0.76550130347E+02 0.  0.
         13    1    5    5    0    0  0.19235447409E+03 -0.39830642706E+03 -0.22841028651E+02  0.44291078800E+03  0.00000000000E+00 0. -1.
        -14    1    5    5    0    0  0.25035595358E+03 -0.34686957624E+03 -0.57963411335E+02  0.43169012436E+03  0.00000000000E+00 0.  1.
         15    1    3    3    0    0 -0.90288051205E+02  0.27534311262E+03  0.76758235064E+02  0.29976782055E+03  0.17770000000E+01 0. -1.
        -16    1    3    3    0    0 -0.16667775433E+03  0.75341448981E+03  0.31510554016E+03  0.83349047306E+03  0.00000000000E+00 0.  1.
          4    1    6    6  502    0 -0.81302113328E+02 -0.11607596599E+03  0.26996660754E+02  0.14426532225E+03  0.00000000000E+00 0. -1.
         -3    1    6    6    0  502 -0.10444250881E+03 -0.16750563314E+03 -0.52181233770E+02  0.20417946992E+03  0.00000000000E+00 0.  1.
<mgrwt>
<rscale>  0 0.11353118E+04</rscale>
<asrwt>0</asrwt>
<pdfrwt beam="1">  1        1 0.20324452E+00 0.11353118E+04</pdfrwt>
<pdfrwt beam="2">  1       -2 0.15926379E+00 0.11353118E+04</pdfrwt>
<totfact> 0.19190429E+00</totfact>
</mgrwt>
</event>
<event>
12    3  0.1176505E-007  0.9470419E+03  0.7818608E-02  0.9368615E-01
         -2   -1    0    0    0  501 -0.00000000000E+00  0.00000000000E+00  0.28182853875E+03  0.28182853875E+03  0.00000000000E+00 0.  1.
          1   -1    0    0  501    0  0.00000000000E+00 -0.00000000000E+00 -0.33729653115E+04  0.33729653115E+04  0.00000000000E+00 0. -1.
        -24    2    1    2    0    0 -0.75058625367E+03 -0.41633081411E+03 -0.10314877211E+04  0.13441976949E+04  0.78673077903E+02 0.  0.
    5000000    2    1    2    0    0  0.75058625367E+03  0.41633081411E+03 -0.20596490516E+04  0.23105961554E+04  0.59999108851E+03 0.  0.
        -24    2    4    4    0    0  0.62275621921E+03  0.41993068009E+02 -0.14217780764E+04  0.15548908044E+04  0.81509439371E+02 0.  0.
         24    2    4    4    0    0  0.12783003446E+03  0.37433774610E+03 -0.63787097520E+03  0.75570535094E+03  0.87988241104E+02 0.  0.
         13    1    5    5    0    0  0.40113637038E+03  0.63508724293E+02 -0.95231398191E+03  0.10352997952E+04  0.00000000000E+00 0. -1.
        -14    1    5    5    0    0  0.22161984882E+03 -0.21515656284E+02 -0.46946409453E+03  0.51959100927E+03  0.00000000000E+00 0.  1.
         15    1    3    3    0    0 -0.28794203312E+03 -0.12432795548E+03 -0.41019013521E+03  0.51635952563E+03  0.17770000000E+01 0. -1.
        -16    1    3    3    0    0 -0.46264422055E+03 -0.29200285863E+03 -0.62129758591E+03  0.82783816928E+03  0.00000000000E+00 0.  1.
          4    1    6    6  502    0 -0.15382353224E+01  0.11245671565E+03 -0.15832083229E+03  0.19420186662E+03  0.00000000000E+00 0. -1.
         -1    1    6    6    0  502  0.12936826978E+03  0.26188103045E+03 -0.47955014291E+03  0.56150348432E+03  0.00000000000E+00 0.  1.
<mgrwt>
<rscale>  0 0.94704189E+03</rscale>
<asrwt>0</asrwt>
<pdfrwt beam="1">  1        1 0.51891772E+00 0.94704189E+03</pdfrwt>
<pdfrwt beam="2">  1       -2 0.43358238E-01 0.94704189E+03</pdfrwt>
<totfact> 0.14502769E+00</totfact>
</mgrwt>
</event>
<event>
12    3  0.1481597E-007  0.1899610E+04  0.7818608E-02  0.8655050E-01
         -2   -1    0    0    0  501 -0.00000000000E+00  0.00000000000E+00  0.12465291932E+04  0.12465291932E+04  0.00000000000E+00 0.  1.
          1   -1    0    0  501    0  0.00000000000E+00 -0.00000000000E+00 -0.30403439530E+04  0.30403439530E+04  0.00000000000E+00 0. -1.
        -24    2    1    2    0    0  0.10100876058E+04 -0.15710596852E+04 -0.12580109074E+04  0.22532574300E+04  0.77923661292E+02 0.  0.
    5000000    2    1    2    0    0 -0.10100876058E+04  0.15710596852E+04 -0.53580385236E+03  0.20336157161E+04  0.60000133903E+03 0.  0.
        -24    2    4    4    0    0 -0.36051222394E+02  0.38094416108E+03  0.31969085334E+02  0.39226402473E+03  0.80192881143E+02 0.  0.
         24    2    4    4    0    0 -0.97403638341E+03  0.11901155241E+04 -0.56777293769E+03  0.16413516914E+04  0.80916185785E+02 0.  0.
         13    1    5    5    0    0 -0.48645952996E+02  0.11929172935E+03  0.50330368794E+01  0.12892740940E+03  0.00000000000E+00 0. -1.
        -14    1    5    5    0    0  0.12594730602E+02  0.26165243173E+03  0.26936048455E+02  0.26333661533E+03  0.00000000000E+00 0.  1.
         15    1    3    3    0    0  0.30973939583E+03 -0.41772291761E+03 -0.35496618163E+03  0.62963090542E+03  0.17770000000E+01 0. -1.
        -16    1    3    3    0    0  0.70034820997E+03 -0.11533367676E+04 -0.90304472581E+03  0.16236265246E+04  0.00000000000E+00 0.  1.
          4    1    6    6  502    0 -0.29772197750E+03  0.40853790811E+03 -0.15963951843E+03  0.53011920744E+03  0.00000000000E+00 0. -1.
         -3    1    6    6    0  502 -0.67631440591E+03  0.78157761598E+03 -0.40813341926E+03  0.11112324839E+04  0.00000000000E+00 0.  1.
<mgrwt>
<rscale>  0 0.18996104E+04</rscale>
<asrwt>0</asrwt>
<pdfrwt beam="1">  1        1 0.46774522E+00 0.18996104E+04</pdfrwt>
<pdfrwt beam="2">  1       -2 0.19177372E+00 0.18996104E+04</pdfrwt>
<totfact> 0.66731177E-02</totfact>
</mgrwt>
</event>
<event>
12    3  0.1176505E-007  0.9394523E+03  0.7818608E-02  0.9377565E-01
         -4   -1    0    0    0  501 -0.00000000000E+00  0.00000000000E+00  0.13995231033E+04  0.13995231033E+04  0.00000000000E+00 0.  1.
          3   -1    0    0  501    0  0.00000000000E+00 -0.00000000000E+00 -0.72821684414E+03  0.72821684414E+03  0.00000000000E+00 0. -1.
        -24    2    1    2    0    0  0.73438048805E+03  0.54116458711E+03  0.19446737009E+03  0.93629378824E+03  0.81576272812E+02 0.  0.
    5000000    2    1    2    0    0 -0.73438048805E+03 -0.54116458711E+03  0.47683888912E+03  0.11914461592E+04  0.59999567715E+03 0.  0.
        -24    2    4    4    0    0 -0.44363000665E+03 -0.48681936310E+03  0.48929431443E+02  0.66520903195E+03  0.79424755850E+02 0.  0.
         24    2    4    4    0    0 -0.29075048140E+03 -0.54345224010E+02  0.42790945768E+03  0.52623712728E+03  0.79559816179E+02 0.  0.
         11    1    5    5    0    0 -0.37148747777E+03 -0.36898149654E+03  0.57699765896E+02  0.52676328072E+03  0.00000000000E+00 0. -1.
        -12    1    5    5    0    0 -0.72142528877E+02 -0.11783786656E+03 -0.87703344530E+01  0.13844575123E+03  0.00000000000E+00 0.  1.
         15    1    3    3    0    0  0.63501425974E+03  0.47940701769E+03  0.14269351279E+03  0.80835561172E+03  0.17770000000E+01 0. -1.
        -16    1    3    3    0    0  0.99366228314E+02  0.61757569423E+02  0.51773857300E+02  0.12793817652E+03  0.00000000000E+00 0.  1.
          2    1    6    6  502    0 -0.88705775169E+02 -0.51193337762E+02  0.17177768731E+03  0.19999261545E+03  0.00000000000E+00 0. -1.
         -1    1    6    6    0  502 -0.20204470624E+03 -0.31518862479E+01  0.25613177037E+03  0.32624451183E+03  0.00000000000E+00 0.  1.
<mgrwt>
<rscale>  0 0.93945226E+03</rscale>
<asrwt>0</asrwt>
<pdfrwt beam="1">  1        3 0.11203336E+00 0.93945226E+03</pdfrwt>
<pdfrwt beam="2">  1       -4 0.21531125E+00 0.93945226E+03</pdfrwt>
<totfact> 0.15580349E-01</totfact>
</mgrwt>
</event>
<event>
12    3  0.1242153E-007  0.7647015E+03  0.7818608E-02  0.9612564E-01
         -4   -1    0    0    0  501 -0.00000000000E+00  0.00000000000E+00  0.80122944196E+03  0.80122944196E+03  0.00000000000E+00 0.  1.
          3   -1    0    0  501    0  0.00000000000E+00 -0.00000000000E+00 -0.77109294646E+03  0.77109294646E+03  0.00000000000E+00 0. -1.
        -24    2    1    2    0    0 -0.65972641576E+03 -0.52718669921E+02  0.10907561491E+03  0.67554807183E+03  0.80308815061E+02 0.  0.
    5000000    2    1    2    0    0  0.65972641576E+03  0.52718669921E+02 -0.78939119413E+02  0.89677431659E+03  0.59996215590E+03 0.  0.
        -24    2    4    4    0    0 -0.87762668003E+02 -0.60661989451E+02 -0.17266525888E+02  0.13424321897E+03  0.79630057534E+02 0.  0.
         24    2    4    4    0    0  0.74748908377E+03  0.11338065937E+03 -0.61672593526E+02  0.76253109763E+03  0.77814277521E+02 0.  0.
         13    1    5    5    0    0 -0.23034239237E+02 -0.63816892802E+01  0.29276515298E+02  0.37794397512E+02  0.00000000000E+00 0. -1.
        -14    1    5    5    0    0 -0.64728428766E+02 -0.54280300171E+02 -0.46543041185E+02  0.96448821454E+02  0.00000000000E+00 0.  1.
         15    1    3    3    0    0 -0.30885525725E+03 -0.50512597866E+02  0.82556175525E+02  0.32366923289E+03  0.17770000000E+01 0. -1.
        -16    1    3    3    0    0 -0.35087115851E+03 -0.22060720557E+01  0.26519439384E+02  0.35187883894E+03  0.00000000000E+00 0.  1.
          4    1    6    6  502    0  0.41934088476E+03  0.84474528093E+02 -0.21058312639E+01  0.42776998264E+03  0.00000000000E+00 0. -1.
         -3    1    6    6    0  502  0.32814819901E+03  0.28906131279E+02 -0.59566762262E+02  0.33476111498E+03  0.00000000000E+00 0.  1.
<mgrwt>
<rscale>  0 0.76470146E+03</rscale>
<asrwt>0</asrwt>
<pdfrwt beam="1">  1        3 0.11862968E+00 0.76470146E+03</pdfrwt>
<pdfrwt beam="2">  1       -4 0.12326607E+00 0.76470146E+03</pdfrwt>
<totfact> 0.64825354E-01</totfact>
</mgrwt>
</event>
<event>
12    3  0.2152814E-007  0.1187127E+04  0.7818608E-02  0.9124199E-01
          1   -1    0    0  501    0  0.00000000000E+00  0.00000000000E+00  0.20341320712E+04  0.20341320712E+04  0.00000000000E+00 0. -1.
         -2   -1    0    0    0  501 -0.00000000000E+00 -0.00000000000E+00 -0.12545895484E+04  0.12545895484E+04  0.00000000000E+00 0.  1.
        -24    2    1    2    0    0 -0.76143897797E+03  0.90209891605E+03  0.13943593811E+04  0.18287157928E+04  0.79947456625E+02 0.  0.
    5000000    2    1    2    0    0  0.76143897797E+03 -0.90209891605E+03 -0.61481685823E+03  0.14600058268E+04  0.60003789357E+03 0.  0.
        -24    2    4    4    0    0  0.52126898534E+03 -0.51671734148E+03 -0.66837074538E+03  0.99583090390E+03  0.79003606346E+02 0.  0.
         24    2    4    4    0    0  0.24016999262E+03 -0.38538157457E+03  0.53553887155E+02  0.46417492293E+03  0.79935954843E+02 0.  0.
         13    1    5    5    0    0  0.30745090694E+03 -0.34236706887E+03 -0.38042339388E+03  0.59704541589E+03  0.00000000000E+00 0. -1.
        -14    1    5    5    0    0  0.21381807840E+03 -0.17435027261E+03 -0.28794735150E+03  0.39878548801E+03  0.00000000000E+00 0.  1.
         15    1    3    3    0    0 -0.53472877280E+03  0.64534106895E+03  0.93372263705E+03  0.12546876410E+04  0.17770000000E+01 0. -1.
        -16    1    3    3    0    0 -0.22671020517E+03  0.25675784710E+03  0.46063674402E+03  0.57402815185E+03  0.00000000000E+00 0.  1.
          2    1    6    6  502    0  0.23169824372E+03 -0.34010221814E+03  0.30477462863E+02  0.41265296639E+03  0.00000000000E+00 0. -1.
         -1    1    6    6    0  502  0.84717489038E+01 -0.45279356433E+02  0.23076424291E+02  0.51521956548E+02  0.00000000000E+00 0.  1.
<mgrwt>
<rscale>  0 0.11871271E+04</rscale>
<asrwt>0</asrwt>
<pdfrwt beam="1">  1        1 0.31294340E+00 0.11871271E+04</pdfrwt>
<pdfrwt beam="2">  1       -2 0.19301378E+00 0.11871271E+04</pdfrwt>
<totfact> 0.35843145E-01</totfact>
</mgrwt>
</event>
<event>
12    3  0.1176505E-007  0.4524251E+03  0.7818608E-02  0.1027001E+00
         -2   -1    0    0    0  501 -0.00000000000E+00  0.00000000000E+00  0.32430582791E+03  0.32430582791E+03  0.00000000000E+00 0.  1.
          1   -1    0    0  501    0  0.00000000000E+00 -0.00000000000E+00 -0.71465316501E+03  0.71465316501E+03  0.00000000000E+00 0. -1.
        -24    2    1    2    0    0  0.26287307037E+03  0.11297189649E+03 -0.93524405296E+02  0.31113731248E+03  0.78706494712E+02 0.  0.
    5000000    2    1    2    0    0 -0.26287307037E+03 -0.11297189649E+03 -0.29682293180E+03  0.72782168044E+03  0.59979633640E+03 0.  0.
        -24    2    4    4    0    0 -0.25916705142E+02  0.20170641400E+03  0.17124431810E+02  0.21792154615E+03  0.76415973828E+02 0.  0.
         24    2    4    4    0    0 -0.23695636523E+03 -0.31467831049E+03 -0.31394736361E+03  0.50990013430E+03  0.79148226258E+02 0.  0.
         13    1    5    5    0    0 -0.47169574948E+02  0.17087681423E+03  0.13070086059E+01  0.17727256616E+03  0.00000000000E+00 0. -1.
        -14    1    5    5    0    0  0.21252869806E+02  0.30829599768E+02  0.15817423204E+02  0.40648979983E+02  0.00000000000E+00 0.  1.
         15    1    3    3    0    0  0.10587802210E+03  0.86799413918E+02 -0.53648059457E+02  0.14705633558E+03  0.17770000000E+01 0. -1.
        -16    1    3    3    0    0  0.15699504827E+03  0.26172482575E+02 -0.39876345839E+02  0.16408097691E+03  0.00000000000E+00 0.  1.
          4    1    6    6  502    0 -0.58382159476E+02 -0.85125605731E+02 -0.41061571128E+02  0.11108959411E+03  0.00000000000E+00 0. -1.
         -1    1    6    6    0  502 -0.17857420575E+03 -0.22955270476E+03 -0.27288579249E+03  0.39881054019E+03  0.00000000000E+00 0.  1.
<mgrwt>
<rscale>  0 0.45242513E+03</rscale>
<asrwt>0</asrwt>
<pdfrwt beam="1">  1        1 0.10994664E+00 0.45242513E+03</pdfrwt>
<pdfrwt beam="2">  1       -2 0.49893205E-01 0.45242513E+03</pdfrwt>
<totfact> 0.91610561E+01</totfact>
</mgrwt>
</event>
<event>
12    3  0.1176505E-007  0.5352506E+03  0.7818608E-02  0.1004967E+00
          1   -1    0    0  501    0  0.00000000000E+00  0.00000000000E+00  0.30339551047E+03  0.30339551047E+03  0.00000000000E+00 0. -1.
         -2   -1    0    0    0  501 -0.00000000000E+00 -0.00000000000E+00 -0.16781373787E+04  0.16781373787E+04  0.00000000000E+00 0.  1.
        -24    2    1    2    0    0 -0.34680872124E+03 -0.20071030610E+03  0.22399934681E+02  0.40908930911E+03  0.79318280713E+02 0.  0.
    5000000    2    1    2    0    0  0.34680872124E+03  0.20071030610E+03 -0.13971418029E+04  0.15724435801E+04  0.60001056567E+03 0.  0.
        -24    2    4    4    0    0 -0.98169700004E+02  0.19089337082E+03 -0.24799760910E+03  0.33752394401E+03  0.79636861026E+02 0.  0.
         24    2    4    4    0    0  0.44497842124E+03  0.98169352823E+01 -0.11491441938E+04  0.12349196361E+04  0.79949745180E+02 0.  0.
         13    1    5    5    0    0 -0.43664901685E+02  0.11328256732E+03 -0.82519685396E+02  0.14679598828E+03  0.00000000000E+00 0. -1.
        -14    1    5    5    0    0 -0.54504798319E+02  0.77610803498E+02 -0.16547792371E+03  0.19072795572E+03  0.00000000000E+00 0.  1.
         15    1    3    3    0    0 -0.18425182446E+03 -0.15036209689E+03  0.22780939986E+02  0.23891342355E+03  0.17770000000E+01 0. -1.
        -16    1    3    3    0    0 -0.16255689678E+03 -0.50348209209E+02 -0.38100530465E+00  0.17017588556E+03  0.00000000000E+00 0.  1.
          2    1    6    6  502    0  0.96918609352E+02  0.15499890472E+02 -0.34438660839E+03  0.35809998532E+03  0.00000000000E+00 0. -1.
         -1    1    6    6    0  502  0.34805981189E+03 -0.56829551899E+01 -0.80475758544E+03  0.87681965076E+03  0.00000000000E+00 0.  1.
<mgrwt>
<rscale>  0 0.53525056E+03</rscale>
<asrwt>0</asrwt>
<pdfrwt beam="1">  1        1 0.46676233E-01 0.53525056E+03</pdfrwt>
<pdfrwt beam="2">  1       -2 0.25817498E+00 0.53525056E+03</pdfrwt>
<totfact> 0.46116361E+00</totfact>
</mgrwt>
</event>
<event>
12    3  0.1176505E-007  0.3862289E+03  0.7818608E-02  0.1048655E+00
         -2   -1    0    0    0  501 -0.00000000000E+00  0.00000000000E+00  0.79440159453E+02  0.79440159453E+02  0.00000000000E+00 0.  1.
          1   -1    0    0  501    0  0.00000000000E+00 -0.00000000000E+00 -0.29003582286E+04  0.29003582286E+04  0.00000000000E+00 0. -1.
        -24    2    1    2    0    0 -0.22351160389E+03 -0.17183733748E+03 -0.10024725169E+04  0.10442582595E+04  0.77708800540E+02 0.  0.
    5000000    2    1    2    0    0  0.22351160389E+03  0.17183733748E+03 -0.18184455522E+04  0.19355401286E+04  0.60007154181E+03 0.  0.
        -24    2    4    4    0    0  0.41959218835E+02 -0.12536131913E+03 -0.10847676205E+03  0.18866234671E+03  0.79688372924E+02 0.  0.
         24    2    4    4    0    0  0.18155238505E+03  0.29719865662E+03 -0.17099687902E+04  0.17468777819E+04  0.79375130851E+02 0.  0.
         11    1    5    5    0    0 -0.48286329216E+01 -0.89512875562E+01 -0.48587050914E+02  0.49640132567E+02  0.00000000000E+00 0. -1.
        -12    1    5    5    0    0  0.46787851757E+02 -0.11641003158E+03 -0.59889711137E+02  0.13902221414E+03  0.00000000000E+00 0.  1.
         15    1    3    3    0    0 -0.10341306631E+03 -0.57253330843E+02 -0.30027010521E+03  0.32270342420E+03  0.17770000000E+01 0. -1.
        -16    1    3    3    0    0 -0.12009853758E+03 -0.11458400664E+03 -0.70220241170E+03  0.72155483527E+03  0.00000000000E+00 0.  1.
          2    1    6    6  502    0  0.83606287097E+02  0.86686841560E+02 -0.72333036719E+03  0.73328810152E+03  0.00000000000E+00 0. -1.
         -1    1    6    6    0  502  0.97946097956E+02  0.21051181506E+03 -0.98663842301E+03  0.10135896804E+04  0.00000000000E+00 0.  1.
<mgrwt>
<rscale>  0 0.38622887E+03</rscale>
<asrwt>0</asrwt>
<pdfrwt beam="1">  1        1 0.44620888E+00 0.38622887E+03</pdfrwt>
<pdfrwt beam="2">  1       -2 0.12221565E-01 0.38622887E+03</pdfrwt>
<totfact> 0.34621592E+01</totfact>
</mgrwt>
</event>
<event>
12    3  0.1176505E-007  0.3847243E+03  0.7818608E-02  0.1049201E+00
         -2   -1    0    0    0  501 -0.00000000000E+00  0.00000000000E+00  0.81060346179E+03  0.81060346179E+03  0.00000000000E+00 0.  1.
          1   -1    0    0  501    0  0.00000000000E+00 -0.00000000000E+00 -0.26971282978E+03  0.26971282978E+03  0.00000000000E+00 0. -1.
        -24    2    1    2    0    0 -0.22011766507E+03  0.13444233177E+03  0.85908962069E+02  0.28449698854E+03  0.83854991974E+02 0.  0.
    5000000    2    1    2    0    0  0.22011766507E+03 -0.13444233177E+03  0.45498166994E+03  0.79581930303E+03  0.59982790537E+03 0.  0.
        -24    2    4    4    0    0  0.32293940708E+03 -0.17076695971E+03  0.60378355228E+02  0.37862034252E+03  0.79098690334E+02 0.  0.
         24    2    4    4    0    0 -0.10282174201E+03  0.36324627947E+02  0.39460331471E+03  0.41719896051E+03  0.80320653924E+02 0.  0.
         11    1    5    5    0    0  0.17109960240E+03 -0.10441039809E+03 -0.49484290708E+01  0.20050210004E+03  0.00000000000E+00 0. -1.
        -12    1    5    5    0    0  0.15183980469E+03 -0.66356561626E+02  0.65326784299E+02  0.17811824248E+03  0.00000000000E+00 0.  1.
         15    1    3    3    0    0 -0.19886575889E+03  0.87177363603E+02  0.54420805339E+02  0.22385768820E+03  0.17770000000E+01 0. -1.
        -16    1    3    3    0    0 -0.21251906182E+02  0.47264968165E+02  0.31488156729E+02  0.60639300344E+02  0.00000000000E+00 0.  1.
          2    1    6    6  502    0 -0.30384732787E+02  0.51996489156E+02  0.15083227258E+03  0.16241071800E+03  0.00000000000E+00 0. -1.
         -1    1    6    6    0  502 -0.72437009228E+02 -0.15671861209E+02  0.24377104213E+03  0.25478824251E+03  0.00000000000E+00 0.  1.
<mgrwt>
<rscale>  0 0.38472426E+03</rscale>
<asrwt>0</asrwt>
<pdfrwt beam="1">  1        1 0.41494282E-01 0.38472426E+03</pdfrwt>
<pdfrwt beam="2">  1       -2 0.12470822E+00 0.38472426E+03</pdfrwt>
<totfact> 0.44319108E+01</totfact>
</mgrwt>
</event>
<event>
12    3  0.1176505E-007  0.1267246E+04  0.7818608E-02  0.9055950E-01
          1   -1    0    0  501    0  0.00000000000E+00  0.00000000000E+00  0.88749871079E+03  0.88749871079E+03  0.00000000000E+00 0. -1.
         -2   -1    0    0    0  501 -0.00000000000E+00 -0.00000000000E+00 -0.18410227707E+04  0.18410227707E+04  0.00000000000E+00 0.  1.
        -24    2    1    2    0    0 -0.98831970005E+03  0.68311549085E+03 -0.55481257860E+03  0.13276479034E+04  0.10681458077E+03 0.  0.
    5000000    2    1    2    0    0  0.98831970005E+03 -0.68311549085E+03 -0.39871148132E+03  0.14008735781E+04  0.60004444264E+03 0.  0.
        -24    2    4    4    0    0 -0.40392305229E+02 -0.16823006716E+03 -0.48923655488E+02  0.19582667121E+03  0.77599402524E+02 0.  0.
         24    2    4    4    0    0  0.10287120053E+04 -0.51488542369E+03 -0.34978782583E+03  0.12050469069E+04  0.80194360042E+02 0.  0.
         13    1    5    5    0    0 -0.27107418190E+02 -0.42128365914E+02  0.17015345961E+02  0.52906836361E+02  0.00000000000E+00 0. -1.
        -14    1    5    5    0    0 -0.13284887038E+02 -0.12610170125E+03 -0.65939001450E+02  0.14291983485E+03  0.00000000000E+00 0.  1.
         15    1    3    3    0    0 -0.28862198766E+03  0.14841007539E+03 -0.12565194652E+03  0.34802265965E+03  0.17770000000E+01 0. -1.
        -16    1    3    3    0    0 -0.69969771239E+03  0.53470541546E+03 -0.42916063208E+03  0.97962524374E+03  0.00000000000E+00 0.  1.
          2    1    6    6  502    0  0.48035221569E+03 -0.27891085120E+03 -0.19004548068E+03  0.58706626436E+03  0.00000000000E+00 0. -1.
         -1    1    6    6    0  502  0.54835978959E+03 -0.23597457250E+03 -0.15974234515E+03  0.61798064253E+03  0.00000000000E+00 0.  1.
<mgrwt>
<rscale>  0 0.12672464E+04</rscale>
<asrwt>0</asrwt>
<pdfrwt beam="1">  1        1 0.13653826E+00 0.12672464E+04</pdfrwt>
<pdfrwt beam="2">  1       -2 0.28323427E+00 0.12672464E+04</pdfrwt>
<totfact> 0.63960793E-01</totfact>
</mgrwt>
</event>
<event>
12    3  0.1176505E-007  0.6617306E+03  0.7818608E-02  0.9785013E-01
          1   -1    0    0  501    0  0.00000000000E+00  0.00000000000E+00  0.81684002627E+03  0.81684002627E+03  0.00000000000E+00 0. -1.
         -2   -1    0    0    0  501 -0.00000000000E+00 -0.00000000000E+00 -0.72200484972E+03  0.72200484972E+03  0.00000000000E+00 0.  1.
        -24    2    1    2    0    0  0.59244140471E+03  0.25983474789E+03  0.71889758520E+02  0.65607734340E+03  0.82270461975E+02 0.  0.
    5000000    2    1    2    0    0 -0.59244140471E+03 -0.25983474789E+03  0.22945418026E+02  0.88276753260E+03  0.60020922200E+03 0.  0.
        -24    2    4    4    0    0 -0.24145804709E+03 -0.24411317621E+02 -0.26259114302E+03  0.36644755345E+03  0.80198504408E+02 0.  0.
         24    2    4    4    0    0 -0.35098335763E+03 -0.23542343027E+03  0.28553656105E+03  0.51631997914E+03  0.80260104161E+02 0.  0.
         11    1    5    5    0    0 -0.13995747501E+03  0.16821850961E+02 -0.18316739631E+03  0.23113062227E+03  0.00000000000E+00 0. -1.
        -12    1    5    5    0    0 -0.10150057208E+03 -0.41233168583E+02 -0.79423746713E+02  0.13531693118E+03  0.00000000000E+00 0.  1.
         15    1    3    3    0    0  0.55044262700E+03  0.22369480791E+03  0.81874081578E+02  0.59977743845E+03  0.17770000000E+01 0. -1.
        -16    1    3    3    0    0  0.41998777708E+02  0.36139939973E+02 -0.99843230579E+01  0.56299904948E+02  0.00000000000E+00 0.  1.
          2    1    6    6  502    0 -0.19855326085E+03 -0.11814943082E+03  0.20098621277E+03  0.30623217192E+03  0.00000000000E+00 0. -1.
         -3    1    6    6    0  502 -0.15243009678E+03 -0.11727399945E+03  0.84550348282E+02  0.21008780723E+03  0.00000000000E+00 0.  1.
<mgrwt>
<rscale>  0 0.66173063E+03</rscale>
<asrwt>0</asrwt>
<pdfrwt beam="1">  1        1 0.12566770E+00 0.66173063E+03</pdfrwt>
<pdfrwt beam="2">  1       -2 0.11107767E+00 0.66173063E+03</pdfrwt>
<totfact> 0.12405390E+01</totfact>
</mgrwt>
</event>
<event>
12    3  0.1176505E-007  0.1258639E+04  0.7818608E-02  0.9063024E-01
         -2   -1    0    0    0  501 -0.00000000000E+00  0.00000000000E+00  0.62604482240E+03  0.62604482240E+03  0.00000000000E+00 0.  1.
          1   -1    0    0  501    0  0.00000000000E+00 -0.00000000000E+00 -0.28773734661E+04  0.28773734661E+04  0.00000000000E+00 0. -1.
        -24    2    1    2    0    0 -0.12098379178E+04 -0.93023013725E+02 -0.15761725354E+04  0.19907554289E+04  0.80163880376E+02 0.  0.
    5000000    2    1    2    0    0  0.12098379178E+04  0.93023013725E+02 -0.67515610828E+03  0.15126628596E+04  0.59996007181E+03 0.  0.
        -24    2    4    4    0    0 -0.20245127485E+02  0.59142893884E+02  0.13178831689E+02  0.10040736772E+03  0.77461027645E+02 0.  0.
         24    2    4    4    0    0  0.12300830453E+04  0.33880119841E+02 -0.68833493996E+03  0.14122554919E+04  0.80052631929E+02 0.  0.
         11    1    5    5    0    0  0.86273113616E+01  0.19783603311E+02  0.39453832062E+02  0.44971394526E+02  0.00000000000E+00 0. -1.
        -12    1    5    5    0    0 -0.28872438846E+02  0.39359290573E+02 -0.26275000373E+02  0.55435973193E+02  0.00000000000E+00 0.  1.
         15    1    3    3    0    0 -0.75099188830E+03 -0.18767773254E+02 -0.97761426638E+03  0.12329127533E+04  0.17770000000E+01 0. -1.
        -16    1    3    3    0    0 -0.45884602953E+03 -0.74255240471E+02 -0.59855826904E+03  0.75784267562E+03  0.00000000000E+00 0.  1.
          2    1    6    6  502    0  0.36187813315E+03  0.22089111113E+02 -0.16384916438E+03  0.39785708584E+03  0.00000000000E+00 0. -1.
         -1    1    6    6    0  502  0.86820491216E+03  0.11791008728E+02 -0.52448577559E+03  0.10143984060E+04  0.00000000000E+00 0.  1.
<mgrwt>
<rscale>  0 0.12586386E+04</rscale>
<asrwt>0</asrwt>
<pdfrwt beam="1">  1        1 0.44267284E+00 0.12586386E+04</pdfrwt>
<pdfrwt beam="2">  1       -2 0.96314589E-01 0.12586386E+04</pdfrwt>
<totfact> 0.57163889E-01</totfact>
</mgrwt>
</event>
<event>
12    3  0.1176505E-007  0.5614797E+03  0.7818608E-02  0.9988712E-01
         -2   -1    0    0    0  501 -0.00000000000E+00  0.00000000000E+00  0.62360264501E+03  0.62360264501E+03  0.00000000000E+00 0.  1.
          3   -1    0    0  501    0  0.00000000000E+00 -0.00000000000E+00 -0.53640815385E+03  0.53640815385E+03  0.00000000000E+00 0. -1.
        -24    2    1    2    0    0 -0.20696102277E+03  0.34309602490E+03 -0.87675566129E+02  0.41772881579E+03  0.79136662768E+02 0.  0.
    5000000    2    1    2    0    0  0.20696102277E+03 -0.34309602490E+03  0.17487005729E+03  0.74228198308E+03  0.59987936972E+03 0.  0.
        -24    2    4    4    0    0  0.19710212095E+03 -0.49896270275E+03  0.16326738728E+03  0.56614953131E+03  0.77820480815E+02 0.  0.
         24    2    4    4    0    0  0.98589018229E+01  0.15586667786E+03  0.11602670009E+02  0.17613245176E+03  0.80600244423E+02 0.  0.
         13    1    5    5    0    0  0.11296199990E+03 -0.37733966662E+03  0.12733097753E+03  0.41395508847E+03  0.00000000000E+00 0. -1.
        -14    1    5    5    0    0  0.84140121047E+02 -0.12162303613E+03  0.35936409749E+02  0.15219444285E+03  0.00000000000E+00 0.  1.
         15    1    3    3    0    0 -0.18057734685E+03  0.33446304075E+03 -0.87148022070E+02  0.38996363844E+03  0.17770000000E+01 0. -1.
        -16    1    3    3    0    0 -0.26383675924E+02  0.86329841489E+01 -0.52754405877E+00  0.27765177351E+02  0.00000000000E+00 0.  1.
          4    1    6    6  502    0 -0.32755355131E+02  0.58682311174E+02 -0.96912114591E+01  0.67900268881E+02  0.00000000000E+00 0. -1.
         -3    1    6    6    0  502  0.42614256954E+02  0.97184366683E+02  0.21293881468E+02  0.10823218288E+03  0.00000000000E+00 0.  1.
<mgrwt>
<rscale>  0 0.56147971E+03</rscale>
<asrwt>0</asrwt>
<pdfrwt beam="1">  1        3 0.82524332E-01 0.56147971E+03</pdfrwt>
<pdfrwt beam="2">  1       -2 0.95938867E-01 0.56147971E+03</pdfrwt>
<totfact> 0.52126156E+00</totfact>
</mgrwt>
</event>
<event>
12    3  0.1176505E-007  0.5788258E+03  0.7818608E-02  0.9950336E-01
         -2   -1    0    0    0  501 -0.00000000000E+00  0.00000000000E+00  0.45258252675E+03  0.45258252675E+03  0.00000000000E+00 0.  1.
          1   -1    0    0  501    0  0.00000000000E+00 -0.00000000000E+00 -0.89516399281E+03  0.89516399281E+03  0.00000000000E+00 0. -1.
        -24    2    1    2    0    0 -0.18861640373E+03 -0.44220777585E+03 -0.27985338406E+03  0.56183652113E+03  0.78857435499E+02 0.  0.
    5000000    2    1    2    0    0  0.18861640373E+03  0.44220777585E+03 -0.16272808200E+03  0.78590999842E+03  0.60004185868E+03 0.  0.
        -24    2    4    4    0    0  0.61042161127E+02  0.51102034848E+03 -0.27203703360E+03  0.58736685102E+03  0.78279806007E+02 0.  0.
         24    2    4    4    0    0  0.12757424260E+03 -0.68812572633E+02  0.10930895159E+03  0.19854314740E+03  0.80377714280E+02 0.  0.
         11    1    5    5    0    0  0.55226017241E+02  0.16325584882E+03 -0.10125247884E+03  0.19988609162E+03  0.00000000000E+00 0. -1.
        -12    1    5    5    0    0  0.58161438866E+01  0.34776449967E+03 -0.17078455475E+03  0.38748075940E+03  0.00000000000E+00 0.  1.
         15    1    3    3    0    0 -0.62065740587E+02 -0.16181182865E+03 -0.14489159414E+03  0.22590253612E+03  0.17770000000E+01 0. -1.
        -16    1    3    3    0    0 -0.12655066314E+03 -0.28039594720E+03 -0.13496178992E+03  0.33593398501E+03  0.00000000000E+00 0.  1.
          4    1    6    6  502    0  0.13042432568E+03 -0.74488280671E+02  0.83257946959E+02  0.17172913096E+03  0.00000000000E+00 0. -1.
         -3    1    6    6    0  502 -0.28500830811E+01  0.56757080377E+01  0.26051004636E+02  0.26814016444E+02  0.00000000000E+00 0.  1.
<mgrwt>
<rscale>  0 0.57882583E+03</rscale>
<asrwt>0</asrwt>
<pdfrwt beam="1">  1        1 0.13771754E+00 0.57882583E+03</pdfrwt>
<pdfrwt beam="2">  1       -2 0.69628082E-01 0.57882583E+03</pdfrwt>
<totfact> 0.31486428E+01</totfact>
</mgrwt>
</event>
<event>
12    3  0.1176505E-007  0.1305289E+04  0.7818608E-02  0.9025381E-01
         -2   -1    0    0    0  501 -0.00000000000E+00  0.00000000000E+00  0.18556590146E+04  0.18556590146E+04  0.00000000000E+00 0.  1.
          1   -1    0    0  501    0  0.00000000000E+00 -0.00000000000E+00 -0.34672396675E+04  0.34672396675E+04  0.00000000000E+00 0. -1.
        -24    2    1    2    0    0  0.77100669781E+03 -0.10337941594E+04 -0.30422915258E+04  0.33053918651E+04  0.83041929811E+02 0.  0.
    5000000    2    1    2    0    0 -0.77100669781E+03  0.10337941594E+04  0.14307108729E+04  0.20175068170E+04  0.60018202485E+03 0.  0.
        -24    2    4    4    0    0 -0.43219380258E+03  0.37947460723E+03  0.10090971528E+04  0.11636898875E+04  0.71446692964E+02 0.  0.
         24    2    4    4    0    0 -0.33881289522E+03  0.65431955213E+03  0.42161372010E+03  0.85381692954E+03  0.91197400872E+02 0.  0.
         13    1    5    5    0    0 -0.32464847560E+03  0.32354198817E+03  0.79605082740E+03  0.91857115708E+03  0.00000000000E+00 0. -1.
        -14    1    5    5    0    0 -0.10754532699E+03  0.55932619061E+02  0.21304632542E+03  0.24511873042E+03  0.00000000000E+00 0.  1.
         15    1    3    3    0    0  0.45783236819E+03 -0.61868687216E+03 -0.19183248994E+04  0.20669681905E+04  0.17770000000E+01 0. -1.
        -16    1    3    3    0    0  0.31317432962E+03 -0.41510728720E+03 -0.11239666263E+04  0.12384236746E+04  0.00000000000E+00 0.  1.
          4    1    6    6  502    0 -0.27659288200E+03  0.59132700484E+03  0.35568333005E+03  0.74342577323E+03  0.00000000000E+00 0. -1.
         -3    1    6    6    0  502 -0.62220013221E+02  0.62992547288E+02  0.65930390059E+02  0.11039115631E+03  0.00000000000E+00 0.  1.
<mgrwt>
<rscale>  0 0.13052894E+04</rscale>
<asrwt>0</asrwt>
<pdfrwt beam="1">  1        1 0.53342149E+00 0.13052894E+04</pdfrwt>
<pdfrwt beam="2">  1       -2 0.28548600E+00 0.13052894E+04</pdfrwt>
<totfact> 0.88633660E-03</totfact>
</mgrwt>
</event>
<event>
12    3  0.1176505E-007  0.1173512E+04  0.7818608E-02  0.9136362E-01
         -2   -1    0    0    0  501 -0.00000000000E+00  0.00000000000E+00  0.55830342301E+03  0.55830342301E+03  0.00000000000E+00 0.  1.
          1   -1    0    0  501    0  0.00000000000E+00 -0.00000000000E+00 -0.30866933747E+04  0.30866933747E+04  0.00000000000E+00 0. -1.
        -24    2    1    2    0    0 -0.48001107702E+03 -0.99026022045E+03 -0.20016343237E+04  0.22855747350E+04  0.79284079455E+02 0.  0.
    5000000    2    1    2    0    0  0.48001107702E+03  0.99026022045E+03 -0.52675562800E+03  0.13594220627E+04  0.59960896812E+03 0.  0.
        -24    2    4    4    0    0  0.55431807893E+03  0.51189172702E+03 -0.26587716540E+03  0.80372540351E+03  0.77344581827E+02 0.  0.
         24    2    4    4    0    0 -0.74307001913E+02  0.47836849342E+03 -0.26087846261E+03  0.55569665919E+03  0.79895298661E+02 0.  0.
         13    1    5    5    0    0  0.76483656825E+02  0.56616188321E+02 -0.93230210862E+01  0.95614126903E+02  0.00000000000E+00 0. -1.
        -14    1    5    5    0    0  0.47783442211E+03  0.45527553870E+03 -0.25655414431E+03  0.70811127661E+03  0.00000000000E+00 0.  1.
         15    1    3    3    0    0 -0.17012915427E+03 -0.30615758461E+03 -0.57313084063E+03  0.67168334351E+03  0.17770000000E+01 0. -1.
        -16    1    3    3    0    0 -0.30988192275E+03 -0.68410263584E+03 -0.14285034830E+04  0.16138913915E+04  0.00000000000E+00 0.  1.
          4    1    6    6  502    0  0.16987630615E+02  0.58619952359E+02 -0.35347574074E+02  0.70528925991E+02  0.00000000000E+00 0. -1.
         -3    1    6    6    0  502 -0.91294632529E+02  0.41974854106E+03 -0.22553088853E+03  0.48516773320E+03  0.00000000000E+00 0.  1.
<mgrwt>
<rscale>  0 0.11735124E+04</rscale>
<asrwt>0</asrwt>
<pdfrwt beam="1">  1        1 0.47487590E+00 0.11735124E+04</pdfrwt>
<pdfrwt beam="2">  1       -2 0.85892834E-01 0.11735124E+04</pdfrwt>
<totfact> 0.53275375E-01</totfact>
</mgrwt>
</event>
<event>
12    3  0.1176505E-007  0.5418603E+03  0.7818608E-02  0.1003396E+00
         -2   -1    0    0    0  501 -0.00000000000E+00  0.00000000000E+00  0.21991159177E+03  0.21991159177E+03  0.00000000000E+00 0.  1.
          1   -1    0    0  501    0  0.00000000000E+00 -0.00000000000E+00 -0.17253368555E+04  0.17253368555E+04  0.00000000000E+00 0. -1.
        -24    2    1    2    0    0  0.32304666800E+03 -0.29697684865E+03 -0.83046061706E+03  0.94120983434E+03  0.60470798177E+02 0.  0.
    5000000    2    1    2    0    0 -0.32304666800E+03  0.29697684865E+03 -0.67496464664E+03  0.10040386129E+04  0.59996821886E+03 0.  0.
        -24    2    4    4    0    0 -0.38176601691E+02  0.35246426787E+03 -0.58657999454E+03  0.69035573704E+03  0.82622276782E+02 0.  0.
         24    2    4    4    0    0 -0.28487006631E+03 -0.55487419221E+02 -0.88384652097E+02  0.31368287586E+03  0.79720082256E+02 0.  0.
         13    1    5    5    0    0 -0.34297590034E+02  0.32208392003E+03 -0.47702097465E+03  0.57659638091E+03  0.00000000000E+00 0. -1.
        -14    1    5    5    0    0 -0.38790116575E+01  0.30380347840E+02 -0.10955901989E+03  0.11375935612E+03  0.00000000000E+00 0.  1.
         15    1    3    3    0    0  0.22830584829E+03 -0.21459162274E+03 -0.53195555154E+03  0.61737589155E+03  0.17770000000E+01 0. -1.
        -16    1    3    3    0    0  0.94740819703E+02 -0.82385225908E+02 -0.29850506551E+03  0.32383394279E+03  0.00000000000E+00 0.  1.
          4    1    6    6  502    0 -0.19402978766E+03 -0.34496673828E+02 -0.20053889011E+02  0.19809022557E+03  0.00000000000E+00 0. -1.
         -3    1    6    6    0  502 -0.90840278649E+02 -0.20990745393E+02 -0.68330763086E+02  0.11559265029E+03  0.00000000000E+00 0.  1.
<mgrwt>
<rscale>  0 0.54186033E+03</rscale>
<asrwt>0</asrwt>
<pdfrwt beam="1">  1        1 0.26543643E+00 0.54186033E+03</pdfrwt>
<pdfrwt beam="2">  1       -2 0.33832554E-01 0.54186033E+03</pdfrwt>
<totfact> 0.34854352E+01</totfact>
</mgrwt>
</event>
<event>
12    3  0.1176505E-007  0.5193682E+03  0.7818608E-02  0.1008844E+00
         -2   -1    0    0    0  501 -0.00000000000E+00  0.00000000000E+00  0.81782467006E+03  0.81782467006E+03  0.00000000000E+00 0.  1.
          1   -1    0    0  501    0  0.00000000000E+00 -0.00000000000E+00 -0.50845280908E+03  0.50845280908E+03  0.00000000000E+00 0. -1.
        -24    2    1    2    0    0 -0.54734010910E+02  0.38423270118E+03 -0.20444599043E+03  0.44591943735E+03  0.80096198365E+02 0.  0.
    5000000    2    1    2    0    0  0.54734010910E+02 -0.38423270118E+03  0.51381785141E+03  0.88035804179E+03  0.60032567554E+03 0.  0.
        -24    2    4    4    0    0 -0.17921107246E+03 -0.35744395721E+03  0.47901485035E+03  0.62923739456E+03  0.81250728111E+02 0.  0.
         24    2    4    4    0    0  0.23394508337E+03 -0.26788743968E+02  0.34803001060E+02  0.25112064723E+03  0.80014947002E+02 0.  0.
         13    1    5    5    0    0 -0.58031629516E+02 -0.47191138882E+02  0.94537064809E+02  0.12054845597E+03  0.00000000000E+00 0. -1.
        -14    1    5    5    0    0 -0.12117944295E+03 -0.31025281833E+03  0.38447778554E+03  0.50868893860E+03  0.00000000000E+00 0.  1.
         15    1    3    3    0    0 -0.74853471482E+01  0.21690751535E+03 -0.76819188585E+02  0.23023736903E+03  0.17770000000E+01 0. -1.
        -16    1    3    3    0    0 -0.47248663762E+02  0.16732518583E+03 -0.12762680185E+03  0.21568206831E+03  0.00000000000E+00 0.  1.
          2    1    6    6  502    0  0.13379264309E+03 -0.38222431244E+02 -0.12626181513E+02  0.13971702135E+03  0.00000000000E+00 0. -1.
         -1    1    6    6    0  502  0.10015244029E+03  0.11433687276E+02  0.47429182573E+02  0.11140362588E+03  0.00000000000E+00 0.  1.
<mgrwt>
<rscale>  0 0.51936823E+03</rscale>
<asrwt>0</asrwt>
<pdfrwt beam="1">  1        1 0.78223509E-01 0.51936823E+03</pdfrwt>
<pdfrwt beam="2">  1       -2 0.12581918E+00 0.51936823E+03</pdfrwt>
<totfact> 0.18648267E+01</totfact>
</mgrwt>
</event>
<event>
12    3  0.1176505E-007  0.8770996E+03  0.7818608E-02  0.9454670E-01
          1   -1    0    0  501    0  0.00000000000E+00  0.00000000000E+00  0.84995414726E+03  0.84995414726E+03  0.00000000000E+00 0. -1.
         -2   -1    0    0    0  501 -0.00000000000E+00 -0.00000000000E+00 -0.15546742645E+04  0.15546742645E+04  0.00000000000E+00 0.  1.
        -24    2    1    2    0    0  0.24173482158E+03 -0.83286154254E+03 -0.98360099221E+03  0.13137140649E+04  0.79244302436E+02 0.  0.
    5000000    2    1    2    0    0 -0.24173482158E+03  0.83286154254E+03  0.27888087492E+03  0.10909143469E+04  0.60018788464E+03 0.  0.
        -24    2    4    4    0    0 -0.43891265513E+02  0.20046361362E+03  0.35660842034E+03  0.41926132397E+03  0.80612584280E+02 0.  0.
         24    2    4    4    0    0 -0.19784355606E+03  0.63239792892E+03 -0.77727545413E+02  0.67165302294E+03  0.77504830353E+02 0.  0.
         11    1    5    5    0    0 -0.48712168312E+02  0.63316976534E+02  0.16783710025E+03  0.18587954993E+03  0.00000000000E+00 0. -1.
        -12    1    5    5    0    0  0.48209027990E+01  0.13714663709E+03  0.18877132008E+03  0.23338177404E+03  0.00000000000E+00 0.  1.
         15    1    3    3    0    0  0.77459919651E+02 -0.39158613123E+03 -0.47954232498E+03  0.62394209387E+03  0.17770000000E+01 0. -1.
        -16    1    3    3    0    0  0.16427490193E+03 -0.44127541131E+03 -0.50405866723E+03  0.68977197104E+03  0.00000000000E+00 0.  1.
          4    1    6    6  502    0 -0.15583227668E+03  0.37267805429E+03 -0.52701877507E+02  0.40736975648E+03  0.00000000000E+00 0. -1.
         -3    1    6    6    0  502 -0.42011279378E+02  0.25971987463E+03 -0.25025667905E+02  0.26428326645E+03  0.00000000000E+00 0.  1.
<mgrwt>
<rscale>  0 0.87709961E+03</rscale>
<asrwt>0</asrwt>
<pdfrwt beam="1">  1        1 0.13076218E+00 0.87709961E+03</pdfrwt>
<pdfrwt beam="2">  1       -2 0.23918066E+00 0.87709961E+03</pdfrwt>
<totfact> 0.13376582E+00</totfact>
</mgrwt>
</event>
<event>
12    3  0.1262344E-007  0.9995831E+03  0.7818608E-02  0.9309002E-01
          1   -1    0    0  501    0  0.00000000000E+00  0.00000000000E+00  0.12848882186E+04  0.12848882186E+04  0.00000000000E+00 0. -1.
         -2   -1    0    0    0  501 -0.00000000000E+00 -0.00000000000E+00 -0.88863075203E+03  0.88863075203E+03  0.00000000000E+00 0.  1.
        -24    2    1    2    0    0 -0.12721343598E+03  0.93561708793E+03 -0.93024580193E+02  0.95248374007E+03  0.83720421979E+02 0.  0.
    5000000    2    1    2    0    0  0.12721343598E+03 -0.93561708793E+03  0.48928204676E+03  0.12210352306E+04  0.59997293227E+03 0.  0.
        -24    2    4    4    0    0  0.15545368460E+03 -0.70282725237E+02  0.25906671127E+03  0.32161628816E+03  0.84946844555E+02 0.  0.
         24    2    4    4    0    0 -0.28240248615E+02 -0.86533436269E+03  0.23021533549E+03  0.89941894240E+03  0.79713627100E+02 0.  0.
         11    1    5    5    0    0  0.10302444394E+03 -0.11463958415E+02  0.99649895588E+02  0.14378998603E+03  0.00000000000E+00 0. -1.
        -12    1    5    5    0    0  0.52429240651E+02 -0.58818766822E+02  0.15941681568E+03  0.17782630213E+03  0.00000000000E+00 0.  1.
         15    1    3    3    0    0 -0.92877669554E+02  0.39104823124E+03 -0.26681902998E+02  0.40281517143E+03  0.17770000000E+01 0. -1.
        -16    1    3    3    0    0 -0.34335766427E+02  0.54456885669E+03 -0.66342677195E+02  0.54966856864E+03  0.00000000000E+00 0.  1.
          2    1    6    6  502    0  0.25937757930E+02 -0.34890524901E+03  0.80618062399E+02  0.35903608740E+03  0.00000000000E+00 0. -1.
         -1    1    6    6    0  502 -0.54178006545E+02 -0.51642911369E+03  0.14959727309E+03  0.54038285500E+03  0.00000000000E+00 0.  1.
<mgrwt>
<rscale>  0 0.99958308E+03</rscale>
<asrwt>0</asrwt>
<pdfrwt beam="1">  1        1 0.19767511E+00 0.99958308E+03</pdfrwt>
<pdfrwt beam="2">  1       -2 0.13671242E+00 0.99958308E+03</pdfrwt>
<totfact> 0.30984995E+00</totfact>
</mgrwt>
</event>
<event>
12    3  0.1176505E-007  0.3882168E+03  0.7818608E-02  0.1047938E+00
          1   -1    0    0  501    0  0.00000000000E+00  0.00000000000E+00  0.16961741789E+04  0.16961741789E+04  0.00000000000E+00 0. -1.
         -2   -1    0    0    0  501 -0.00000000000E+00 -0.00000000000E+00 -0.13009532892E+03  0.13009532892E+03  0.00000000000E+00 0.  1.
        -24    2    1    2    0    0  0.20307289915E+03  0.39430768287E+02  0.13398517985E+03  0.25985500243E+03  0.82335933907E+02 0.  0.
    5000000    2    1    2    0    0 -0.20307289915E+03 -0.39430768287E+02  0.14320936701E+04  0.15664145053E+04  0.59997394508E+03 0.  0.
        -24    2    4    4    0    0  0.13485391106E+03  0.11058981955E+03  0.85646120114E+03  0.87763358543E+03  0.79367724597E+02 0.  0.
         24    2    4    4    0    0 -0.33792681021E+03 -0.15002058784E+03  0.57563246896E+03  0.68878091992E+03  0.79785402716E+02 0.  0.
         13    1    5    5    0    0  0.16563894688E+02  0.60904709466E+02  0.30123797726E+03  0.30777924749E+03  0.00000000000E+00 0. -1.
        -14    1    5    5    0    0  0.11829001637E+03  0.49685110086E+02  0.55522322388E+03  0.56985433794E+03  0.00000000000E+00 0.  1.
         15    1    3    3    0    0  0.19793925572E+03  0.36825315105E+02  0.14452590792E+03  0.24784460570E+03  0.17770000000E+01 0. -1.
        -16    1    3    3    0    0  0.51336434341E+01  0.26054531811E+01 -0.10540728076E+02  0.12010396727E+02  0.00000000000E+00 0.  1.
          2    1    6    6  502    0 -0.18696645147E+03 -0.40211982780E+02  0.27699673647E+03  0.33660161846E+03  0.00000000000E+00 0. -1.
         -1    1    6    6    0  502 -0.15096035874E+03 -0.10980860506E+03  0.29863573249E+03  0.35217930146E+03  0.00000000000E+00 0.  1.
<mgrwt>
<rscale>  0 0.38821683E+03</rscale>
<asrwt>0</asrwt>
<pdfrwt beam="1">  1        1 0.26094986E+00 0.38821683E+03</pdfrwt>
<pdfrwt beam="2">  1       -2 0.20014667E-01 0.38821683E+03</pdfrwt>
<totfact> 0.96369174E+01</totfact>
</mgrwt>
</event>
<event>
12    3  0.1176505E-007  0.7134953E+03  0.7818608E-02  0.9694428E-01
         -2   -1    0    0    0  501 -0.00000000000E+00  0.00000000000E+00  0.46485854519E+03  0.46485854519E+03  0.00000000000E+00 0.  1.
          1   -1    0    0  501    0  0.00000000000E+00 -0.00000000000E+00 -0.14019817227E+04  0.14019817227E+04  0.00000000000E+00 0. -1.
        -24    2    1    2    0    0  0.45607837010E+03  0.51610523501E+03 -0.49583080523E+03  0.85235816617E+03  0.79335759555E+02 0.  0.
    5000000    2    1    2    0    0 -0.45607837010E+03 -0.51610523501E+03 -0.44129237224E+03  0.10144821017E+04  0.60005240067E+03 0.  0.
        -24    2    4    4    0    0 -0.29309745424E+03 -0.15793674524E+03  0.85322240644E+02  0.35291530481E+03  0.80119875445E+02 0.  0.
         24    2    4    4    0    0 -0.16298091586E+03 -0.35816848977E+03 -0.52661461289E+03  0.66156679687E+03  0.74163536966E+02 0.  0.
         11    1    5    5    0    0 -0.19125610556E+03 -0.14396256037E+03  0.53266577194E+02  0.24523752761E+03  0.00000000000E+00 0. -1.
        -12    1    5    5    0    0 -0.10184134867E+03 -0.13974184873E+02  0.32055663450E+02  0.10767777720E+03  0.00000000000E+00 0.  1.
         15    1    3    3    0    0  0.35860122037E+03  0.39452424591E+03 -0.34214680118E+03  0.63349175776E+03  0.17770000000E+01 0. -1.
        -16    1    3    3    0    0  0.97477149724E+02  0.12158098910E+03 -0.15368400405E+03  0.21886640841E+03  0.00000000000E+00 0.  1.
          4    1    6    6  502    0 -0.16573138187E+03 -0.35123350821E+03 -0.49547173873E+03  0.62954278021E+03  0.00000000000E+00 0. -1.
         -3    1    6    6    0  502  0.27504660098E+01 -0.69349815525E+01 -0.31142874157E+02  0.32024016662E+02  0.00000000000E+00 0.  1.
<mgrwt>
<rscale>  0 0.71349531E+03</rscale>
<asrwt>0</asrwt>
<pdfrwt beam="1">  1        1 0.21568950E+00 0.71349531E+03</pdfrwt>
<pdfrwt beam="2">  1       -2 0.71516699E-01 0.71349531E+03</pdfrwt>
<totfact> 0.12335831E+01</totfact>
</mgrwt>
</event>
<event>
12    3  0.2176190E-007  0.8790171E+03  0.7818608E-02  0.9452198E-01
          1   -1    0    0  501    0  0.00000000000E+00  0.00000000000E+00  0.19200219335E+04  0.19200219335E+04  0.00000000000E+00 0. -1.
         -2   -1    0    0    0  501 -0.00000000000E+00 -0.00000000000E+00 -0.58965256424E+03  0.58965256424E+03  0.00000000000E+00 0.  1.
        -24    2    1    2    0    0  0.80946024035E+03  0.31766161734E+03  0.87160033908E+02  0.87826126654E+03  0.87242174211E+02 0.  0.
    5000000    2    1    2    0    0 -0.80946024035E+03 -0.31766161734E+03  0.12432093353E+04  0.16314132312E+04  0.59983739094E+03 0.  0.
        -24    2    4    4    0    0 -0.49166650237E+03 -0.18489818974E+03  0.11481649797E+04  0.12652083857E+04  0.80908271555E+02 0.  0.
         24    2    4    4    0    0 -0.31779373798E+03 -0.13276342760E+03  0.95044355566E+02  0.36620484546E+03  0.80334125434E+02 0.  0.
         11    1    5    5    0    0 -0.16853845258E+03 -0.23656449211E+02  0.38256419890E+03  0.41871255518E+03  0.00000000000E+00 0. -1.
        -12    1    5    5    0    0 -0.32312804979E+03 -0.16124174053E+03  0.76560078084E+03  0.84649583051E+03  0.00000000000E+00 0.  1.
         15    1    3    3    0    0  0.50725222864E+03  0.15456308062E+03  0.62827810188E+02  0.53398975722E+03  0.17770000000E+01 0. -1.
        -16    1    3    3    0    0  0.30220801171E+03  0.16309853672E+03  0.24332223720E+02  0.34427150933E+03  0.00000000000E+00 0.  1.
          2    1    6    6  502    0 -0.16559630975E+03 -0.27225930775E+02  0.56082549438E+02  0.17694248065E+03  0.00000000000E+00 0. -1.
         -1    1    6    6    0  502 -0.15219742823E+03 -0.10553749683E+03  0.38961806128E+02  0.18926236481E+03  0.00000000000E+00 0.  1.
<mgrwt>
<rscale>  0 0.87901709E+03</rscale>
<asrwt>0</asrwt>
<pdfrwt beam="1">  1        1 0.29538799E+00 0.87901709E+03</pdfrwt>
<pdfrwt beam="2">  1       -2 0.90715780E-01 0.87901709E+03</pdfrwt>
<totfact> 0.31425660E+00</totfact>
</mgrwt>
</event>
<event>
12    3  0.1176505E-007  0.4285883E+03  0.7818608E-02  0.1034307E+00
          1   -1    0    0  501    0  0.00000000000E+00  0.00000000000E+00  0.12745869474E+04  0.12745869474E+04  0.00000000000E+00 0. -1.
         -2   -1    0    0    0  501 -0.00000000000E+00 -0.00000000000E+00 -0.15503832542E+03  0.15503832542E+03  0.00000000000E+00 0.  1.
        -24    2    1    2    0    0 -0.20480225578E+03 -0.86247647362E+02  0.41918406740E+03  0.48095917647E+03  0.78891231562E+02 0.  0.
    5000000    2    1    2    0    0  0.20480225578E+03  0.86247647362E+02  0.70036455457E+03  0.94866609635E+03  0.60006185716E+03 0.  0.
        -24    2    4    4    0    0 -0.64025520118E+01 -0.23182474495E+03  0.21374546970E+03  0.32516180586E+03  0.79116174919E+02 0.  0.
         24    2    4    4    0    0  0.21120480779E+03  0.31807239231E+03  0.48661908487E+03  0.62350429049E+03  0.78625370671E+02 0.  0.
         11    1    5    5    0    0  0.47547955422E+01 -0.18598673507E+03  0.12343240767E+03  0.22326941789E+03  0.00000000000E+00 0. -1.
        -12    1    5    5    0    0 -0.11157347554E+02 -0.45838009876E+02  0.90313062023E+02  0.10189238797E+03  0.00000000000E+00 0.  1.
         15    1    3    3    0    0 -0.15764155692E+03 -0.27376186117E+02  0.29717559710E+03  0.33751564301E+03  0.17770000000E+01 0. -1.
        -16    1    3    3    0    0 -0.47160698862E+02 -0.58871461245E+02  0.12200847029E+03  0.14344353345E+03  0.00000000000E+00 0.  1.
          2    1    6    6  502    0  0.99777134323E+02  0.88695762327E+02  0.19198634495E+03  0.23384005525E+03  0.00000000000E+00 0. -1.
         -1    1    6    6    0  502  0.11142767347E+03  0.22937662998E+03  0.29463273992E+03  0.38966423525E+03  0.00000000000E+00 0.  1.
<mgrwt>
<rscale>  0 0.42858832E+03</rscale>
<asrwt>0</asrwt>
<pdfrwt beam="1">  1        1 0.19609029E+00 0.42858832E+03</pdfrwt>
<pdfrwt beam="2">  1       -2 0.23852051E-01 0.42858832E+03</pdfrwt>
<totfact> 0.13574102E+02</totfact>
</mgrwt>
</event>
<event>
12    3  0.1176505E-007  0.5263359E+03  0.7818608E-02  0.1007125E+00
         -2   -1    0    0    0  501 -0.00000000000E+00  0.00000000000E+00  0.26045154709E+03  0.26045154709E+03  0.00000000000E+00 0.  1.
          1   -1    0    0  501    0  0.00000000000E+00 -0.00000000000E+00 -0.13025606163E+04  0.13025606163E+04  0.00000000000E+00 0. -1.
        -24    2    1    2    0    0  0.20330395122E+03 -0.36023542878E+03 -0.26623260045E+03  0.49852728234E+03  0.80917198238E+02 0.  0.
    5000000    2    1    2    0    0 -0.20330395122E+03  0.36023542878E+03 -0.77587646876E+03  0.10644848810E+04  0.60003475437E+03 0.  0.
        -24    2    4    4    0    0 -0.34753690772E+03  0.17670694019E+03 -0.70126151018E+03  0.80629988499E+03  0.79652708282E+02 0.  0.
         24    2    4    4    0    0  0.14423295650E+03  0.18352848859E+03 -0.74614958583E+02  0.25818499605E+03  0.81278830436E+02 0.  0.
         11    1    5    5    0    0 -0.17685888013E+03  0.49112600565E+02 -0.35694672727E+03  0.40137523233E+03  0.00000000000E+00 0. -1.
        -12    1    5    5    0    0 -0.17067802759E+03  0.12759433962E+03 -0.34431478291E+03  0.40492465266E+03  0.00000000000E+00 0.  1.
         15    1    3    3    0    0  0.67602047373E+02 -0.18086065095E+03 -0.91307892534E+02  0.21359049801E+03  0.17770000000E+01 0. -1.
        -16    1    3    3    0    0  0.13570190385E+03 -0.17937477783E+03 -0.17492470791E+03  0.28493678434E+03  0.00000000000E+00 0.  1.
          4    1    6    6  502    0  0.13820366541E+02  0.47894636315E+02  0.11651763431E+02  0.51192404809E+02  0.00000000000E+00 0. -1.
         -3    1    6    6    0  502  0.13041258995E+03  0.13563385228E+03 -0.86266722014E+02  0.20699259124E+03  0.00000000000E+00 0.  1.
<mgrwt>
<rscale>  0 0.52633593E+03</rscale>
<asrwt>0</asrwt>
<pdfrwt beam="1">  1        1 0.20039394E+00 0.52633593E+03</pdfrwt>
<pdfrwt beam="2">  1       -2 0.40069469E-01 0.52633593E+03</pdfrwt>
<totfact> 0.48966272E+01</totfact>
</mgrwt>
</event>
<event>
12    3  0.1176505E-007  0.9757296E+03  0.7818608E-02  0.9335572E-01
         -2   -1    0    0    0  501 -0.00000000000E+00  0.00000000000E+00  0.88552114331E+03  0.88552114331E+03  0.00000000000E+00 0.  1.
          1   -1    0    0  501    0  0.00000000000E+00 -0.00000000000E+00 -0.11990705544E+04  0.11990705544E+04  0.00000000000E+00 0. -1.
        -24    2    1    2    0    0  0.47867544539E+02 -0.90377132097E+03  0.11798672313E+03  0.91613496215E+03  0.79300060559E+02 0.  0.
    5000000    2    1    2    0    0 -0.47867544539E+02  0.90377132097E+03 -0.43153613427E+03  0.11684567356E+04  0.59997817074E+03 0.  0.
        -24    2    4    4    0    0  0.22649310592E+03  0.32403223229E+03 -0.23821252557E+02  0.40419692736E+03  0.80695039589E+02 0.  0.
         24    2    4    4    0    0 -0.27436065046E+03  0.57973908868E+03 -0.40771488171E+03  0.76425980825E+03  0.80563343208E+02 0.  0.
         13    1    5    5    0    0  0.10499017563E+03  0.20729676304E+03 -0.36541903483E+02  0.23522371406E+03  0.00000000000E+00 0. -1.
        -14    1    5    5    0    0  0.12150293029E+03  0.11673546925E+03  0.12720650926E+02  0.16897321330E+03  0.00000000000E+00 0.  1.
         15    1    3    3    0    0  0.43442554521E+02 -0.55215695444E+03  0.35836415163E+02  0.55502429160E+03  0.17770000000E+01 0. -1.
        -16    1    3    3    0    0  0.44249900182E+01 -0.35161436653E+03  0.82150307971E+02  0.36111067055E+03  0.00000000000E+00 0.  1.
          2    1    6    6  502    0 -0.86009314012E+02  0.26158085499E+03 -0.19842343191E+03  0.33940242210E+03  0.00000000000E+00 0. -1.
         -1    1    6    6    0  502 -0.18835133645E+03  0.31815823369E+03 -0.20929144980E+03  0.42485738615E+03  0.00000000000E+00 0.  1.
<mgrwt>
<rscale>  0 0.97572956E+03</rscale>
<asrwt>0</asrwt>
<pdfrwt beam="1">  1        1 0.18447239E+00 0.97572956E+03</pdfrwt>
<pdfrwt beam="2">  1       -2 0.13623402E+00 0.97572956E+03</pdfrwt>
<totfact> 0.36157512E+00</totfact>
</mgrwt>
</event>
<event>
12    3  0.1176505E-007  0.9086651E+03  0.7818608E-02  0.9414814E-01
          1   -1    0    0  501    0  0.00000000000E+00  0.00000000000E+00  0.29752799368E+04  0.29752799368E+04  0.00000000000E+00 0. -1.
         -2   -1    0    0    0  501 -0.00000000000E+00 -0.00000000000E+00 -0.29462782986E+03  0.29462782986E+03  0.00000000000E+00 0.  1.
        -24    2    1    2    0    0 -0.77974995119E+03  0.24061569957E+03  0.15464751656E+04  0.17492742438E+04  0.49689443673E+02 0.  0.
    5000000    2    1    2    0    0  0.77974995119E+03 -0.24061569957E+03  0.11341769413E+04  0.15206335229E+04  0.60005256054E+03 0.  0.
        -24    2    4    4    0    0  0.32810045929E+03 -0.39994770671E+03  0.65229601973E+03  0.83647071476E+03  0.81148504695E+02 0.  0.
         24    2    4    4    0    0  0.45164949190E+03  0.15933200713E+03  0.48188092162E+03  0.68416280813E+03  0.80595120095E+02 0.  0.
         13    1    5    5    0    0  0.15599668930E+03 -0.22631025944E+03  0.29158181133E+03  0.40071343040E+03  0.00000000000E+00 0. -1.
        -14    1    5    5    0    0  0.17210376999E+03 -0.17363744726E+03  0.36071420840E+03  0.43575728436E+03  0.00000000000E+00 0.  1.
         15    1    3    3    0    0 -0.16902946934E+03  0.31291347785E+02  0.33172422219E+03  0.37362310859E+03  0.17770000000E+01 0. -1.
        -16    1    3    3    0    0 -0.61072048185E+03  0.20932435179E+03  0.12147509434E+04  0.13756511352E+04  0.00000000000E+00 0.  1.
          4    1    6    6  502    0  0.19135786999E+03  0.47409630831E+02  0.24770474521E+03  0.31658039785E+03  0.00000000000E+00 0. -1.
         -3    1    6    6    0  502  0.26029162191E+03  0.11192237630E+03  0.23417617641E+03  0.36758241029E+03  0.00000000000E+00 0.  1.
<mgrwt>
<rscale>  0 0.90866511E+03</rscale>
<asrwt>0</asrwt>
<pdfrwt beam="1">  1        1 0.45773535E+00 0.90866511E+03</pdfrwt>
<pdfrwt beam="2">  1       -2 0.45327361E-01 0.90866511E+03</pdfrwt>
<totfact> 0.26245515E+00</totfact>
</mgrwt>
</event>
<event>
12    3  0.1176505E-007  0.5803614E+03  0.7818608E-02  0.9947009E-01
         -2   -1    0    0    0  501 -0.00000000000E+00  0.00000000000E+00  0.86328957020E+03  0.86328957020E+03  0.00000000000E+00 0.  1.
          1   -1    0    0  501    0  0.00000000000E+00 -0.00000000000E+00 -0.67246237863E+03  0.67246237863E+03  0.00000000000E+00 0. -1.
        -24    2    1    2    0    0 -0.44725590348E+03  0.35655132496E+03 -0.21047798902E+03  0.61469085398E+03  0.79857194868E+02 0.  0.
    5000000    2    1    2    0    0  0.44725590348E+03 -0.35655132496E+03  0.40130518059E+03  0.92106109486E+03  0.60011749013E+03 0.  0.
        -24    2    4    4    0    0  0.28285565950E+03 -0.22758706153E+03  0.54173398145E+03  0.65756658476E+03  0.84349938083E+02 0.  0.
         24    2    4    4    0    0  0.16440024398E+03 -0.12896426343E+03 -0.14042880085E+03  0.26349451009E+03  0.77781021318E+02 0.  0.
         13    1    5    5    0    0  0.90852499436E+02 -0.10589291030E+03  0.15157933977E+03  0.20601888591E+03  0.00000000000E+00 0. -1.
        -14    1    5    5    0    0  0.19200316006E+03 -0.12169415123E+03  0.39015464168E+03  0.45154769885E+03  0.00000000000E+00 0.  1.
         15    1    3    3    0    0 -0.33025555815E+03  0.22807349185E+03 -0.12079055232E+03  0.41914170233E+03  0.17770000000E+01 0. -1.
        -16    1    3    3    0    0 -0.11700034533E+03  0.12847783311E+03 -0.89687436693E+02  0.19554915165E+03  0.00000000000E+00 0.  1.
          2    1    6    6  502    0  0.11570551175E+03 -0.50154792249E+02 -0.55369837571E+02  0.13772831062E+03  0.00000000000E+00 0. -1.
         -1    1    6    6    0  502  0.48694732237E+02 -0.78809471177E+02 -0.85058963282E+02  0.12576619947E+03  0.00000000000E+00 0.  1.
<mgrwt>
<rscale>  0 0.58036139E+03</rscale>
<asrwt>0</asrwt>
<pdfrwt beam="1">  1        1 0.10345575E+00 0.58036139E+03</pdfrwt>
<pdfrwt beam="2">  1       -2 0.13281378E+00 0.58036139E+03</pdfrwt>
<totfact> 0.10862062E+01</totfact>
</mgrwt>
</event>
<event>
12    3  0.1176505E-007  0.5137739E+03  0.7818608E-02  0.1010245E+00
         -2   -1    0    0    0  501 -0.00000000000E+00  0.00000000000E+00  0.14537545141E+03  0.14537545141E+03  0.00000000000E+00 0.  1.
          1   -1    0    0  501    0  0.00000000000E+00 -0.00000000000E+00 -0.21150593470E+04  0.21150593470E+04  0.00000000000E+00 0. -1.
        -24    2    1    2    0    0  0.19887649090E+03  0.28711652817E+03 -0.10398157394E+04  0.10999606268E+04  0.81907564878E+02 0.  0.
    5000000    2    1    2    0    0 -0.19887649090E+03 -0.28711652817E+03 -0.92986815612E+03  0.11604741716E+04  0.60004812784E+03 0.  0.
        -24    2    4    4    0    0 -0.10804570481E+03 -0.46110618879E+03 -0.60284924654E+03  0.77082718885E+03  0.80340210054E+02 0.  0.
         24    2    4    4    0    0 -0.90830786090E+02  0.17398966062E+03 -0.32701890958E+03  0.38964698271E+03  0.79754436921E+02 0.  0.
         13    1    5    5    0    0 -0.10719176129E+03 -0.38760639408E+03 -0.46640069460E+03  0.61583958816E+03  0.00000000000E+00 0. -1.
        -14    1    5    5    0    0 -0.85394351357E+00 -0.73499794709E+02 -0.13644855194E+03  0.15498760069E+03  0.00000000000E+00 0.  1.
         15    1    3    3    0    0  0.71513401456E+02  0.15088498398E+03 -0.39831253085E+03  0.43189868596E+03  0.17770000000E+01 0. -1.
        -16    1    3    3    0    0  0.12736308944E+03  0.13623154419E+03 -0.64150320860E+03  0.66806194087E+03  0.00000000000E+00 0.  1.
          4    1    6    6  502    0 -0.14315042575E+01  0.22221105715E+02 -0.53374887558E+01  0.22897937240E+02  0.00000000000E+00 0. -1.
         -3    1    6    6    0  502 -0.89399281833E+02  0.15176855491E+03 -0.32168142083E+03  0.36674904547E+03  0.00000000000E+00 0.  1.
<mgrwt>
<rscale>  0 0.51377387E+03</rscale>
<asrwt>0</asrwt>
<pdfrwt beam="1">  1        1 0.32539375E+00 0.51377387E+03</pdfrwt>
<pdfrwt beam="2">  1       -2 0.22365453E-01 0.51377387E+03</pdfrwt>
<totfact> 0.41050524E+01</totfact>
</mgrwt>
</event>
<event>
12    3  0.1176505E-007  0.2699103E+04  0.7818608E-02  0.8335296E-01
         -2   -1    0    0    0  501 -0.00000000000E+00  0.00000000000E+00  0.29596791361E+04  0.29596791361E+04  0.00000000000E+00 0.  1.
          1   -1    0    0  501    0  0.00000000000E+00 -0.00000000000E+00 -0.27369760870E+04  0.27369760870E+04  0.00000000000E+00 0. -1.
        -24    2    1    2    0    0  0.16320692594E+04  0.21093885875E+04 -0.78793392907E+03  0.27821128271E+04  0.78368525235E+02 0.  0.
    5000000    2    1    2    0    0 -0.16320692594E+04 -0.21093885875E+04  0.10106369782E+04  0.29145423959E+04  0.59999999623E+03 0.  0.
        -24    2    4    4    0    0 -0.13076160623E+04 -0.12477807015E+04  0.71696522050E+03  0.19460125216E+04  0.78161123880E+02 0.  0.
         24    2    4    4    0    0 -0.32445319709E+03 -0.86160788599E+03  0.29367175769E+03  0.96852987435E+03  0.64567715992E+02 0.  0.
         13    1    5    5    0    0 -0.88300065020E+03 -0.79248669096E+03  0.47885242547E+03  0.12794627579E+04  0.00000000000E+00 0. -1.
        -14    1    5    5    0    0 -0.42461541211E+03 -0.45529401056E+03  0.23811279503E+03  0.66654976364E+03  0.00000000000E+00 0.  1.
         15    1    3    3    0    0  0.52644426829E+03  0.68819245582E+03 -0.21817854568E+03  0.89350851109E+03  0.17770000000E+01 0. -1.
        -16    1    3    3    0    0  0.11056249911E+04  0.14211961317E+04 -0.56975538339E+03  0.18886043160E+04  0.00000000000E+00 0.  1.
          2    1    6    6  502    0 -0.82373675829E+02 -0.16121383398E+03  0.41354757145E+02  0.18570282355E+03  0.00000000000E+00 0. -1.
         -1    1    6    6    0  502 -0.24207952126E+03 -0.70039405201E+03  0.25231700054E+03  0.78282705080E+03  0.00000000000E+00 0.  1.
<mgrwt>
<rscale>  0 0.26991035E+04</rscale>
<asrwt>0</asrwt>
<pdfrwt beam="1">  1        1 0.42107324E+00 0.26991035E+04</pdfrwt>
<pdfrwt beam="2">  1       -2 0.45533525E+00 0.26991035E+04</pdfrwt>
<totfact> 0.21157834E-03</totfact>
</mgrwt>
</event>
<event>
12    3  0.1556800E-007  0.1037298E+04  0.7818608E-02  0.9268557E-01
         -2   -1    0    0    0  501 -0.00000000000E+00  0.00000000000E+00  0.48542715381E+03  0.48542715381E+03  0.00000000000E+00 0.  1.
          1   -1    0    0  501    0  0.00000000000E+00 -0.00000000000E+00 -0.25557721152E+04  0.25557721152E+04  0.00000000000E+00 0. -1.
        -24    2    1    2    0    0 -0.70935712277E+03 -0.71526815252E+03 -0.12635154418E+04  0.16179163087E+04  0.79911530156E+02 0.  0.
    5000000    2    1    2    0    0  0.70935712277E+03  0.71526815252E+03 -0.80682951956E+03  0.14232829603E+04  0.59997037741E+03 0.  0.
        -24    2    4    4    0    0  0.44500725596E+03  0.21408385787E+03 -0.93695407913E+02  0.50887182081E+03  0.79425087325E+02 0.  0.
         24    2    4    4    0    0  0.26434986681E+03  0.50118429465E+03 -0.71313411165E+03  0.91441113947E+03  0.80752222906E+02 0.  0.
         13    1    5    5    0    0  0.21880872819E+03  0.69071441979E+02 -0.20359003786E+02  0.23035323455E+03  0.00000000000E+00 0. -1.
        -14    1    5    5    0    0  0.22619852777E+03  0.14501241589E+03 -0.73336404126E+02  0.27851858627E+03  0.00000000000E+00 0.  1.
         15    1    3    3    0    0 -0.36796920174E+03 -0.36443552950E+03 -0.58596356712E+03  0.78203008146E+03  0.17770000000E+01 0. -1.
        -16    1    3    3    0    0 -0.34138792103E+03 -0.35083262302E+03 -0.67755187469E+03  0.83588622725E+03  0.00000000000E+00 0.  1.
          4    1    6    6  502    0  0.51121635388E+02  0.14684840590E+03 -0.24058916682E+03  0.28646295243E+03  0.00000000000E+00 0. -1.
         -3    1    6    6    0  502  0.21322823142E+03  0.35433588875E+03 -0.47254494482E+03  0.62794818704E+03  0.00000000000E+00 0.  1.
<mgrwt>
<rscale>  0 0.10372985E+04</rscale>
<asrwt>0</asrwt>
<pdfrwt beam="1">  1        1 0.39319571E+00 0.10372985E+04</pdfrwt>
<pdfrwt beam="2">  1       -2 0.74681100E-01 0.10372985E+04</pdfrwt>
<totfact> 0.17724950E+00</totfact>
</mgrwt>
</event>
<event>
12    3  0.1674852E-007  0.1397479E+04  0.7818608E-02  0.8955645E-01
          1   -1    0    0  501    0  0.00000000000E+00  0.00000000000E+00  0.10451408634E+04  0.10451408634E+04  0.00000000000E+00 0. -1.
         -2   -1    0    0    0  501 -0.00000000000E+00 -0.00000000000E+00 -0.21119287895E+04  0.21119287895E+04  0.00000000000E+00 0.  1.
        -24    2    1    2    0    0  0.13936745002E+04  0.30849537552E+02 -0.82063512123E+03  0.16196272031E+04  0.80436112737E+02 0.  0.
    5000000    2    1    2    0    0 -0.13936745002E+04 -0.30849537552E+02 -0.24615280487E+03  0.15374424499E+04  0.59988146914E+03 0.  0.
        -24    2    4    4    0    0 -0.67567429984E+03 -0.22535970809E+02  0.17270597528E+03  0.70231510794E+03  0.79846900425E+02 0.  0.
         24    2    4    4    0    0 -0.71800020035E+03 -0.83135667425E+01 -0.41885878015E+03  0.83512734198E+03  0.80009977530E+02 0.  0.
         13    1    5    5    0    0 -0.58138811581E+03 -0.47147831730E+02  0.14688826814E+03  0.60150745844E+03  0.00000000000E+00 0. -1.
        -14    1    5    5    0    0 -0.94286184027E+02  0.24611860921E+02  0.25817707147E+02  0.10080764950E+03  0.00000000000E+00 0.  1.
         15    1    3    3    0    0  0.72033017880E+03 -0.60647844076E+01 -0.38482839960E+03  0.81670582401E+03  0.17770000000E+01 0. -1.
        -16    1    3    3    0    0  0.67334432139E+03  0.36914321959E+02 -0.43580672163E+03  0.80292137905E+03  0.00000000000E+00 0.  1.
          4    1    6    6  502    0 -0.43161861484E+03 -0.27383982552E+02 -0.28859458875E+03  0.51993398411E+03  0.00000000000E+00 0. -1.
         -3    1    6    6    0  502 -0.28638158552E+03  0.19070415810E+02 -0.13026419140E+03  0.31519335787E+03  0.00000000000E+00 0.  1.
<mgrwt>
<rscale>  0 0.13974789E+04</rscale>
<asrwt>0</asrwt>
<pdfrwt beam="1">  1        1 0.16079090E+00 0.13974789E+04</pdfrwt>
<pdfrwt beam="2">  1       -2 0.32491212E+00 0.13974789E+04</pdfrwt>
<totfact> 0.26215242E-01</totfact>
</mgrwt>
</event>
<event>
12    3  0.1176505E-007  0.1266171E+04  0.7818608E-02  0.9056830E-01
         -2   -1    0    0    0  501 -0.00000000000E+00  0.00000000000E+00  0.14156556826E+04  0.14156556826E+04  0.00000000000E+00 0.  1.
          1   -1    0    0  501    0  0.00000000000E+00 -0.00000000000E+00 -0.12358611472E+04  0.12358611472E+04  0.00000000000E+00 0. -1.
        -24    2    1    2    0    0  0.86234761680E+03  0.87268298421E+03  0.34225365101E+03  0.12762316533E+04  0.80066648486E+02 0.  0.
    5000000    2    1    2    0    0 -0.86234761680E+03 -0.87268298421E+03 -0.16245911561E+03  0.13752851765E+04  0.59983110060E+03 0.  0.
        -24    2    4    4    0    0 -0.32415456380E+02  0.33743354171E+02 -0.11374304162E+03  0.14270071469E+03  0.72364623218E+02 0.  0.
         24    2    4    4    0    0 -0.82993216042E+03 -0.90642633838E+03 -0.48716073988E+02  0.12325844618E+04  0.80592194070E+02 0.  0.
         11    1    5    5    0    0 -0.30145964145E+02  0.50038628723E+02 -0.50078929308E+02  0.76945062735E+02  0.00000000000E+00 0. -1.
        -12    1    5    5    0    0 -0.22694922346E+01 -0.16295274552E+02 -0.63664112313E+02  0.65755651957E+02  0.00000000000E+00 0.  1.
         15    1    3    3    0    0  0.78369153781E+03  0.81575205471E+03  0.29980330960E+03  0.11702602375E+04  0.17770000000E+01 0. -1.
        -16    1    3    3    0    0  0.78656078993E+02  0.56930929491E+02  0.42450341405E+02  0.10597141587E+03  0.00000000000E+00 0.  1.
          2    1    6    6  502    0 -0.69730195850E+03 -0.74973777323E+03 -0.11468998659E+02  0.10239474048E+04  0.00000000000E+00 0. -1.
         -1    1    6    6    0  502 -0.13263020193E+03 -0.15668856515E+03 -0.37247075329E+02  0.20863705695E+03  0.00000000000E+00 0.  1.
<mgrwt>
<rscale>  0 0.12661712E+04</rscale>
<asrwt>0</asrwt>
<pdfrwt beam="1">  1        1 0.19013249E+00 0.12661712E+04</pdfrwt>
<pdfrwt beam="2">  1       -2 0.21779318E+00 0.12661712E+04</pdfrwt>
<totfact> 0.87125556E-01</totfact>
</mgrwt>
</event>
<event>
12    3  0.1176505E-007  0.1019497E+04  0.7818608E-02  0.9287415E-01
         -2   -1    0    0    0  501 -0.00000000000E+00  0.00000000000E+00  0.18663074766E+04  0.18663074766E+04  0.00000000000E+00 0.  1.
          1   -1    0    0  501    0  0.00000000000E+00 -0.00000000000E+00 -0.88158727921E+03  0.88158727921E+03  0.00000000000E+00 0. -1.
        -24    2    1    2    0    0  0.91201458685E+03  0.34235356250E+03 -0.30444213874E+03  0.10242955963E+04  0.86717267216E+02 0.  0.
    5000000    2    1    2    0    0 -0.91201458685E+03 -0.34235356250E+03  0.12891623361E+04  0.17235991595E+04  0.59989829581E+03 0.  0.
        -24    2    4    4    0    0 -0.53024978210E+03 -0.40899651595E+03  0.49572109570E+03  0.83698400285E+03  0.79748572593E+02 0.  0.
         24    2    4    4    0    0 -0.38176480474E+03  0.66642953454E+02  0.79344124042E+03  0.88661515663E+03  0.79698083910E+02 0.  0.
         13    1    5    5    0    0 -0.46667046733E+02 -0.48721400011E+02  0.79437342558E+02  0.10422034092E+03  0.00000000000E+00 0. -1.
        -14    1    5    5    0    0 -0.48358273537E+03 -0.36027511594E+03  0.41628375315E+03  0.73276366193E+03  0.00000000000E+00 0.  1.
         15    1    3    3    0    0  0.68932915879E+03  0.25152487546E+03 -0.26725757951E+03  0.78094124213E+03  0.17770000000E+01 0. -1.
        -16    1    3    3    0    0  0.22268542806E+03  0.90828687040E+02 -0.37184559232E+02  0.24335435419E+03  0.00000000000E+00 0.  1.
          4    1    6    6  502    0 -0.27144391664E+03  0.13555472958E+02  0.51098541574E+03  0.57876735035E+03  0.00000000000E+00 0. -1.
         -3    1    6    6    0  502 -0.11032088810E+03  0.53087480496E+02  0.28245582468E+03  0.30784780628E+03  0.00000000000E+00 0.  1.
<mgrwt>
<rscale>  0 0.10194973E+04</rscale>
<asrwt>0</asrwt>
<pdfrwt beam="1">  1        1 0.13562881E+00 0.10194973E+04</pdfrwt>
<pdfrwt beam="2">  1       -2 0.28712423E+00 0.10194973E+04</pdfrwt>
<totfact> 0.63173188E-01</totfact>
</mgrwt>
</event>
<event>
12    3  0.1176505E-007  0.6316671E+03  0.7818608E-02  0.9841801E-01
          1   -1    0    0  501    0  0.00000000000E+00  0.00000000000E+00  0.14277101114E+04  0.14277101114E+04  0.00000000000E+00 0. -1.
         -2   -1    0    0    0  501 -0.00000000000E+00 -0.00000000000E+00 -0.30783775546E+03  0.30783775546E+03  0.00000000000E+00 0.  1.
        -24    2    1    2    0    0  0.14338540006E+03  0.48639231840E+03  0.27639161870E+03  0.58328051631E+03  0.81773916819E+02 0.  0.
    5000000    2    1    2    0    0 -0.14338540006E+03 -0.48639231840E+03  0.84348073723E+03  0.11522673505E+04  0.59926908206E+03 0.  0.
        -24    2    4    4    0    0  0.56638583546E+02  0.10359101259E+03  0.81025586357E+02  0.16442040056E+03  0.80807768444E+02 0.  0.
         24    2    4    4    0    0 -0.20002398361E+03 -0.58998333099E+03  0.76245515087E+03  0.98784694999E+03  0.80086294920E+02 0.  0.
         13    1    5    5    0    0 -0.45135576736E+01  0.29099049101E+00  0.35886785329E+02  0.36170682045E+02  0.00000000000E+00 0. -1.
        -14    1    5    5    0    0  0.61152141219E+02  0.10330002210E+03  0.45138801029E+02  0.12824971852E+03  0.00000000000E+00 0.  1.
         15    1    3    3    0    0  0.14333296575E+03  0.41062147674E+03  0.25656548157E+03  0.50495875108E+03  0.17770000000E+01 0. -1.
        -16    1    3    3    0    0  0.52434306105E-01  0.75770841656E+02  0.19826137129E+02  0.78321765225E+02  0.00000000000E+00 0.  1.
          4    1    6    6  502    0 -0.12609626401E+03 -0.24828647678E+03  0.34206916586E+03  0.44108701701E+03  0.00000000000E+00 0. -1.
         -3    1    6    6    0  502 -0.73927719599E+02 -0.34169685421E+03  0.42038598502E+03  0.54675993297E+03  0.00000000000E+00 0.  1.
<mgrwt>
<rscale>  0 0.63166708E+03</rscale>
<asrwt>0</asrwt>
<pdfrwt beam="1">  1        1 0.21964771E+00 0.63166708E+03</pdfrwt>
<pdfrwt beam="2">  1       -2 0.47359656E-01 0.63166708E+03</pdfrwt>
<totfact> 0.28415934E+01</totfact>
</mgrwt>
</event>
<event>
12    3  0.1176505E-007  0.9373686E+03  0.7818608E-02  0.9380038E-01
         -2   -1    0    0    0  501 -0.00000000000E+00  0.00000000000E+00  0.38512722510E+03  0.38512722510E+03  0.00000000000E+00 0.  1.
          1   -1    0    0  501    0  0.00000000000E+00 -0.00000000000E+00 -0.25758522242E+04  0.25758522242E+04  0.00000000000E+00 0. -1.
        -24    2    1    2    0    0  0.79190602963E+03  0.29002418785E+03 -0.51542178956E+03  0.99173181369E+03  0.81505704361E+02 0.  0.
    5000000    2    1    2    0    0 -0.79190602963E+03 -0.29002418785E+03 -0.16753032095E+04  0.19692476356E+04  0.60005517842E+03 0.  0.
        -24    2    4    4    0    0 -0.24899092347E+03 -0.39494141808E+03 -0.83785654167E+03  0.96249564059E+03  0.80119099172E+02 0.  0.
         24    2    4    4    0    0 -0.54291510616E+03  0.10491723024E+03 -0.83744666785E+03  0.10067519950E+04  0.80425246328E+02 0.  0.
         13    1    5    5    0    0 -0.19030780541E+03 -0.23034627835E+03 -0.54094819570E+03  0.61798173046E+03  0.00000000000E+00 0. -1.
        -14    1    5    5    0    0 -0.58683118060E+02 -0.16459513973E+03 -0.29690834597E+03  0.34451391013E+03  0.00000000000E+00 0.  1.
         15    1    3    3    0    0  0.70770187917E+03  0.28269601140E+03 -0.45176653028E+03  0.88592050447E+03  0.17770000000E+01 0. -1.
        -16    1    3    3    0    0  0.84204150459E+02  0.73281764478E+01 -0.63655259283E+02  0.10581130922E+03  0.00000000000E+00 0.  1.
          4    1    6    6  502    0 -0.14570401756E+03  0.90437676785E+01 -0.16917125172E+03  0.22345103015E+03  0.00000000000E+00 0. -1.
         -3    1    6    6    0  502 -0.39721108859E+03  0.95873462556E+02 -0.66827541613E+03  0.78330096484E+03  0.00000000000E+00 0.  1.
<mgrwt>
<rscale>  0 0.93736856E+03</rscale>
<asrwt>0</asrwt>
<pdfrwt beam="1">  1        1 0.39628497E+00 0.93736856E+03</pdfrwt>
<pdfrwt beam="2">  1       -2 0.59250341E-01 0.93736856E+03</pdfrwt>
<totfact> 0.28754907E+00</totfact>
</mgrwt>
</event>
<event>
12    3  0.1176505E-007  0.5765128E+03  0.7818608E-02  0.9955369E-01
         -2   -1    0    0    0  501 -0.00000000000E+00  0.00000000000E+00  0.28109233845E+03  0.28109233845E+03  0.00000000000E+00 0.  1.
          1   -1    0    0  501    0  0.00000000000E+00 -0.00000000000E+00 -0.14120144341E+04  0.14120144341E+04  0.00000000000E+00 0. -1.
        -24    2    1    2    0    0 -0.31013511790E+03 -0.36067934685E+03 -0.55263940718E+03  0.73358449128E+03  0.80389731187E+02 0.  0.
    5000000    2    1    2    0    0  0.31013511790E+03  0.36067934685E+03 -0.57828268850E+03  0.95952228129E+03  0.59999896490E+03 0.  0.
        -24    2    4    4    0    0 -0.11358290516E+03  0.56723145426E+02 -0.35722780630E+03  0.38763597979E+03  0.80816803115E+02 0.  0.
         24    2    4    4    0    0  0.42371802306E+03  0.30395620143E+03 -0.22105488220E+03  0.57188630150E+03  0.79134982458E+02 0.  0.
         13    1    5    5    0    0 -0.45591668882E+02  0.66718439267E+02 -0.21475177158E+03  0.22945211659E+03  0.00000000000E+00 0. -1.
        -14    1    5    5    0    0 -0.67991236277E+02 -0.99952938414E+01 -0.14247603472E+03  0.15818386321E+03  0.00000000000E+00 0.  1.
         15    1    3    3    0    0 -0.22512026801E+02 -0.60342268266E+02 -0.99632668790E+02  0.11864993514E+03  0.17770000000E+01 0. -1.
        -16    1    3    3    0    0 -0.28762309110E+03 -0.30033707859E+03 -0.45300673839E+03  0.61493455614E+03  0.00000000000E+00 0.  1.
          2    1    6    6  502    0  0.33749643175E+03  0.26241795302E+03 -0.15145068446E+03  0.45354639601E+03  0.00000000000E+00 0. -1.
         -1    1    6    6    0  502  0.86221591307E+02  0.41538248410E+02 -0.69604197737E+02  0.11833990549E+03  0.00000000000E+00 0.  1.
<mgrwt>
<rscale>  0 0.57651280E+03</rscale>
<asrwt>0</asrwt>
<pdfrwt beam="1">  1        1 0.21723299E+00 0.57651280E+03</pdfrwt>
<pdfrwt beam="2">  1       -2 0.43244975E-01 0.57651280E+03</pdfrwt>
<totfact> 0.35170622E+01</totfact>
</mgrwt>
</event>
<event>
12    3  0.1176505E-007  0.8426183E+03  0.7818608E-02  0.9500298E-01
         -2   -1    0    0    0  501 -0.00000000000E+00  0.00000000000E+00  0.35182348651E+03  0.35182348651E+03  0.00000000000E+00 0.  1.
          1   -1    0    0  501    0  0.00000000000E+00 -0.00000000000E+00 -0.23316412957E+04  0.23316412957E+04  0.00000000000E+00 0. -1.
        -24    2    1    2    0    0 -0.69698910990E+03  0.39572996034E+03 -0.78742048307E+03  0.11264550893E+04  0.80461358444E+02 0.  0.
    5000000    2    1    2    0    0  0.69698910990E+03 -0.39572996034E+03 -0.11923973261E+04  0.15570096929E+04  0.60005981343E+03 0.  0.
        -24    2    4    4    0    0  0.29041811375E+03  0.26198322347E+02 -0.10600779204E+03  0.32022502752E+03  0.79229939981E+02 0.  0.
         24    2    4    4    0    0  0.40657099615E+03 -0.42192828268E+03 -0.10863895341E+04  0.12367846654E+04  0.77914300242E+02 0.  0.
         13    1    5    5    0    0  0.22311571814E+03  0.35138436214E+02 -0.11192052906E+03  0.25207446956E+03  0.00000000000E+00 0. -1.
        -14    1    5    5    0    0  0.67302395607E+02 -0.89401138672E+01  0.59127370206E+01  0.68150557954E+02  0.00000000000E+00 0.  1.
         15    1    3    3    0    0 -0.15489867829E+03  0.12514824696E+03 -0.21236003837E+03  0.29112819836E+03  0.17770000000E+01 0. -1.
        -16    1    3    3    0    0 -0.54209043161E+03  0.27058171337E+03 -0.57506044470E+03  0.83532689094E+03  0.00000000000E+00 0.  1.
          2    1    6    6  502    0  0.34458124958E+03 -0.36992124651E+03 -0.87660665986E+03  0.10119373510E+04  0.00000000000E+00 0. -1.
         -1    1    6    6    0  502  0.61989746569E+02 -0.52007036175E+02 -0.20978287423E+03  0.22484731444E+03  0.00000000000E+00 0.  1.
<mgrwt>
<rscale>  0 0.84261828E+03</rscale>
<asrwt>0</asrwt>
<pdfrwt beam="1">  1        1 0.35871405E+00 0.84261828E+03</pdfrwt>
<pdfrwt beam="2">  1       -2 0.54126690E-01 0.84261828E+03</pdfrwt>
<totfact> 0.51732574E+00</totfact>
</mgrwt>
</event>
<event>
12    3  0.1176505E-007  0.9003604E+03  0.7818608E-02  0.9425131E-01
         -2   -1    0    0    0  501 -0.00000000000E+00  0.00000000000E+00  0.18917217778E+04  0.18917217778E+04  0.00000000000E+00 0.  1.
          1   -1    0    0  501    0  0.00000000000E+00 -0.00000000000E+00 -0.95188329932E+03  0.95188329932E+03  0.00000000000E+00 0. -1.
        -24    2    1    2    0    0  0.66778272357E+03 -0.45729204792E+03 -0.59502336205E+03  0.10076385054E+04  0.78947914748E+02 0.  0.
    5000000    2    1    2    0    0 -0.66778272357E+03  0.45729204792E+03  0.15348618406E+04  0.18359665717E+04  0.59993549641E+03 0.  0.
        -24    2    4    4    0    0 -0.12357965016E+03 -0.12797811918E+03  0.20428855330E+03  0.28172186430E+03  0.77350286960E+02 0.  0.
         24    2    4    4    0    0 -0.54420307340E+03  0.58527016710E+03  0.13305732873E+04  0.15542447074E+04  0.80951739653E+02 0.  0.
         13    1    5    5    0    0 -0.84273725230E+02 -0.43792747512E+02  0.68121637458E+02  0.11687781222E+03  0.00000000000E+00 0. -1.
        -14    1    5    5    0    0 -0.39305924934E+02 -0.84185371665E+02  0.13616691584E+03  0.16484405208E+03  0.00000000000E+00 0.  1.
         15    1    3    3    0    0  0.26054032438E+03 -0.22480414116E+03 -0.26099794439E+03  0.43190421070E+03  0.17770000000E+01 0. -1.
        -16    1    3    3    0    0  0.40724239919E+03 -0.23248790676E+03 -0.33402541766E+03  0.57573429473E+03  0.00000000000E+00 0.  1.
          4    1    6    6  502    0 -0.77801686246E+02  0.68449976799E+02  0.12780116396E+03  0.16453461403E+03  0.00000000000E+00 0. -1.
         -3    1    6    6    0  502 -0.46640138716E+03  0.51682019030E+03  0.12027721233E+04  0.13897100934E+04  0.00000000000E+00 0.  1.
<mgrwt>
<rscale>  0 0.90036044E+03</rscale>
<asrwt>0</asrwt>
<pdfrwt beam="1">  1        1 0.14644359E+00 0.90036044E+03</pdfrwt>
<pdfrwt beam="2">  1       -2 0.29103412E+00 0.90036044E+03</pdfrwt>
<totfact> 0.53408882E-01</totfact>
</mgrwt>
</event>
<event>
12    3  0.1176505E-007  0.9003256E+03  0.7818608E-02  0.9425175E-01
         -4   -1    0    0    0  501 -0.00000000000E+00  0.00000000000E+00  0.80307194788E+03  0.80307194788E+03  0.00000000000E+00 0.  1.
          3   -1    0    0  501    0  0.00000000000E+00 -0.00000000000E+00 -0.10594699157E+04  0.10594699157E+04  0.00000000000E+00 0. -1.
        -24    2    1    2    0    0 -0.69015742862E+03  0.42498949800E+03  0.28048980840E+02  0.81477698525E+03  0.78367344446E+02 0.  0.
    5000000    2    1    2    0    0  0.69015742862E+03 -0.42498949800E+03 -0.28444694865E+03  0.10477648783E+04  0.59997318605E+03 0.  0.
        -24    2    4    4    0    0  0.77125509257E+03 -0.42842462271E+03 -0.29235667715E+03  0.93281764364E+03  0.79336337491E+02 0.  0.
         24    2    4    4    0    0 -0.81097663950E+02  0.34351247105E+01  0.79097285042E+01  0.11494723469E+03  0.81004146678E+02 0.  0.
         13    1    5    5    0    0  0.65402958894E+03 -0.39247554055E+03 -0.24145151607E+03  0.80005661534E+03  0.00000000000E+00 0. -1.
        -14    1    5    5    0    0  0.11722550363E+03 -0.35949082163E+02 -0.50905161087E+02  0.13276102830E+03  0.00000000000E+00 0.  1.
         15    1    3    3    0    0 -0.39828704206E+03  0.20351372445E+03  0.31397422535E+02  0.44837412925E+03  0.17770000000E+01 0. -1.
        -16    1    3    3    0    0 -0.29187038656E+03  0.22147577355E+03 -0.33484416952E+01  0.36640285599E+03  0.00000000000E+00 0.  1.
          2    1    6    6  502    0 -0.28299249078E+02 -0.28299931177E+02 -0.22857833391E+02  0.46089197762E+02  0.00000000000E+00 0. -1.
         -1    1    6    6    0  502 -0.52798414872E+02  0.31735055888E+02  0.30767561896E+02  0.68858036933E+02  0.00000000000E+00 0.  1.
<mgrwt>
<rscale>  0 0.90032556E+03</rscale>
<asrwt>0</asrwt>
<pdfrwt beam="1">  1        3 0.16299537E+00 0.90032556E+03</pdfrwt>
<pdfrwt beam="2">  1       -4 0.12354953E+00 0.90032556E+03</pdfrwt>
<totfact> 0.28526894E-01</totfact>
</mgrwt>
</event>
<event>
12    3  0.1176505E-007  0.3871777E+03  0.7818608E-02  0.1048312E+00
         -2   -1    0    0    0  501 -0.00000000000E+00  0.00000000000E+00  0.17100150802E+03  0.17100150802E+03  0.00000000000E+00 0.  1.
          1   -1    0    0  501    0  0.00000000000E+00 -0.00000000000E+00 -0.13691185501E+04  0.13691185501E+04  0.00000000000E+00 0. -1.
        -24    2    1    2    0    0  0.28168272151E+03 -0.46498339993E+02 -0.28890722213E+03  0.41398502037E+03  0.80055998361E+02 0.  0.
    5000000    2    1    2    0    0 -0.28168272151E+03  0.46498339993E+02 -0.90920981993E+03  0.11261350377E+04  0.60000864604E+03 0.  0.
        -24    2    4    4    0    0 -0.20424740814E+03 -0.15782587212E+03 -0.10598296902E+03  0.29036706616E+03  0.80340735299E+02 0.  0.
         24    2    4    4    0    0 -0.77435313365E+02  0.20432421211E+03 -0.80322685091E+03  0.83576797156E+03  0.74767084005E+02 0.  0.
         13    1    5    5    0    0 -0.81832385237E+02 -0.44986030180E+02 -0.70417332908E+00  0.93385106120E+02  0.00000000000E+00 0. -1.
        -14    1    5    5    0    0 -0.12241502290E+03 -0.11283984194E+03 -0.10527879569E+03  0.19698196004E+03  0.00000000000E+00 0.  1.
         15    1    3    3    0    0  0.46867821490E+02  0.21372521401E+02 -0.41185332167E+02  0.65975500582E+02  0.17770000000E+01 0. -1.
        -16    1    3    3    0    0  0.23481490002E+03 -0.67870861393E+02 -0.24772188996E+03  0.34800951979E+03  0.00000000000E+00 0.  1.
          4    1    6    6  502    0 -0.38883037643E+02  0.99508785291E+02 -0.25844089199E+03  0.27965261240E+03  0.00000000000E+00 0. -1.
         -3    1    6    6    0  502 -0.38552275722E+02  0.10481542682E+03 -0.54478595892E+03  0.55611535916E+03  0.00000000000E+00 0.  1.
<mgrwt>
<rscale>  0 0.38717766E+03</rscale>
<asrwt>0</asrwt>
<pdfrwt beam="1">  1        1 0.21063362E+00 0.38717766E+03</pdfrwt>
<pdfrwt beam="2">  1       -2 0.26307924E-01 0.38717766E+03</pdfrwt>
<totfact> 0.98622436E+01</totfact>
</mgrwt>
</event>
<event>
12    3  0.1176505E-007  0.6739070E+03  0.7818608E-02  0.9762926E-01
          1   -1    0    0  501    0  0.00000000000E+00  0.00000000000E+00  0.17082553477E+04  0.17082553477E+04  0.00000000000E+00 0. -1.
         -2   -1    0    0    0  501 -0.00000000000E+00 -0.00000000000E+00 -0.42185224041E+03  0.42185224041E+03  0.00000000000E+00 0.  1.
        -24    2    1    2    0    0  0.41111205072E+02  0.65184113573E+03  0.10016788787E+04  0.11986002091E+04  0.81822293557E+02 0.  0.
    5000000    2    1    2    0    0 -0.41111205072E+02 -0.65184113573E+03  0.28472422856E+03  0.93150737902E+03  0.60004259302E+03 0.  0.
        -24    2    4    4    0    0 -0.11966237328E+03 -0.25331808714E+03 -0.15274891484E+03  0.32920080113E+03  0.80943187683E+02 0.  0.
         24    2    4    4    0    0  0.78551168207E+02 -0.39852304859E+03  0.43747314339E+03  0.60230657789E+03  0.79997226800E+02 0.  0.
         13    1    5    5    0    0 -0.73696597687E+02 -0.10689423930E+03 -0.10925183347E+03  0.16968656406E+03  0.00000000000E+00 0. -1.
        -14    1    5    5    0    0 -0.45965775593E+02 -0.14642384784E+03 -0.43497081370E+02  0.15951423707E+03  0.00000000000E+00 0.  1.
         15    1    3    3    0    0  0.12457955074E+01  0.32268075904E+03  0.42826383833E+03  0.53622522993E+03  0.17770000000E+01 0. -1.
        -16    1    3    3    0    0  0.39865409565E+02  0.32916037668E+03  0.57341504037E+03  0.66237497913E+03  0.00000000000E+00 0.  1.
          4    1    6    6  502    0  0.54114655251E+02 -0.13269098666E+03  0.11545434151E+03  0.18402445171E+03  0.00000000000E+00 0. -1.
         -3    1    6    6    0  502  0.24436512956E+02 -0.26583206193E+03  0.32201880188E+03  0.41828212618E+03  0.00000000000E+00 0.  1.
<mgrwt>
<rscale>  0 0.67390695E+03</rscale>
<asrwt>0</asrwt>
<pdfrwt beam="1">  1        1 0.26280851E+00 0.67390695E+03</pdfrwt>
<pdfrwt beam="2">  1       -2 0.64900345E-01 0.67390695E+03</pdfrwt>
<totfact> 0.94795839E+00</totfact>
</mgrwt>
</event>
<event>
12    3  0.1176505E-007  0.3120480E+03  0.7818608E-02  0.1079368E+00
          1   -1    0    0  501    0  0.00000000000E+00  0.00000000000E+00  0.20455429877E+04  0.20455429877E+04  0.00000000000E+00 0. -1.
         -2   -1    0    0    0  501 -0.00000000000E+00 -0.00000000000E+00 -0.89804696022E+02  0.89804696022E+02  0.00000000000E+00 0.  1.
        -24    2    1    2    0    0  0.17067137512E+03  0.40848563961E+02  0.78358244787E+03  0.80692398454E+03  0.79545840512E+02 0.  0.
    5000000    2    1    2    0    0 -0.17067137512E+03 -0.40848563961E+02  0.11721558438E+04  0.13284236992E+04  0.59996906498E+03 0.  0.
        -24    2    4    4    0    0  0.33743654480E+02 -0.17435908665E+03  0.10004987942E+04  0.10190448077E+04  0.76907460374E+02 0.  0.
         24    2    4    4    0    0 -0.20441502960E+03  0.13351052269E+03  0.17165704957E+03  0.30937889151E+03  0.81477554265E+02 0.  0.
         13    1    5    5    0    0  0.14331892620E+02 -0.11501374790E+03  0.43743252458E+03  0.45252710296E+03  0.00000000000E+00 0. -1.
        -14    1    5    5    0    0  0.19411761860E+02 -0.59345338757E+02  0.56306626967E+03  0.56651770473E+03  0.00000000000E+00 0.  1.
         15    1    3    3    0    0  0.12224778226E+02 -0.17466145384E+02  0.13705872600E+03  0.13871828841E+03  0.17770000000E+01 0. -1.
        -16    1    3    3    0    0  0.15844659690E+03  0.58314709345E+02  0.64652372187E+03  0.66820569612E+03  0.00000000000E+00 0.  1.
          2    1    6    6  502    0 -0.71307911501E+02  0.66034917975E+01  0.65383942307E+02  0.96971564173E+02  0.00000000000E+00 0. -1.
         -1    1    6    6    0  502 -0.13310711810E+03  0.12690703090E+03  0.10627310726E+03  0.21240732734E+03  0.00000000000E+00 0.  1.
<mgrwt>
<rscale>  0 0.31204798E+03</rscale>
<asrwt>0</asrwt>
<pdfrwt beam="1">  1        1 0.31469889E+00 0.31204798E+03</pdfrwt>
<pdfrwt beam="2">  1       -2 0.13816109E-01 0.31204798E+03</pdfrwt>
<totfact> 0.10799837E+02</totfact>
</mgrwt>
</event>
<event>
12    3  0.1176505E-007  0.6675219E+03  0.7818608E-02  0.9774445E-01
          1   -1    0    0  501    0  0.00000000000E+00  0.00000000000E+00  0.11727550974E+04  0.11727550974E+04  0.00000000000E+00 0. -1.
         -2   -1    0    0    0  501 -0.00000000000E+00 -0.00000000000E+00 -0.52072286354E+03  0.52072286354E+03  0.00000000000E+00 0.  1.
        -24    2    1    2    0    0 -0.48197462859E+03  0.42068651998E+03  0.46976241274E+03  0.79768895833E+03  0.79713606919E+02 0.  0.
    5000000    2    1    2    0    0  0.48197462859E+03 -0.42068651998E+03  0.18226982108E+03  0.89578900257E+03  0.59994913013E+03 0.  0.
        -24    2    4    4    0    0  0.13942173801E+03 -0.29959668270E+03  0.35034773045E+03  0.48766142166E+03  0.76639001991E+02 0.  0.
         24    2    4    4    0    0  0.34255289058E+03 -0.12108983727E+03 -0.16807790937E+03  0.40812758091E+03  0.79452546517E+02 0.  0.
         11    1    5    5    0    0  0.88668281175E+02 -0.19228950757E+03  0.27494457824E+03  0.34703290897E+03  0.00000000000E+00 0. -1.
        -12    1    5    5    0    0  0.50753456839E+02 -0.10730717514E+03  0.75403152206E+02  0.14062851268E+03  0.00000000000E+00 0.  1.
         15    1    3    3    0    0 -0.10996228474E+03  0.74312193485E+02  0.13334701302E+03  0.18814512956E+03  0.17770000000E+01 0. -1.
        -16    1    3    3    0    0 -0.37201234385E+03  0.34637432649E+03  0.33641539972E+03  0.60954382878E+03  0.00000000000E+00 0.  1.
          2    1    6    6  502    0  0.15158140144E+03 -0.46682409537E+02 -0.11646222310E+03  0.19677301145E+03  0.00000000000E+00 0. -1.
         -1    1    6    6    0  502  0.19097148913E+03 -0.74407427737E+02 -0.51615686264E+02  0.21135456946E+03  0.00000000000E+00 0.  1.
<mgrwt>
<rscale>  0 0.66752192E+03</rscale>
<asrwt>0</asrwt>
<pdfrwt beam="1">  1        1 0.18042386E+00 0.66752192E+03</pdfrwt>
<pdfrwt beam="2">  1       -2 0.80111210E-01 0.66752192E+03</pdfrwt>
<totfact> 0.14023842E+01</totfact>
</mgrwt>
</event>
<event>
12    3  0.1176505E-007  0.4709252E+03  0.7818608E-02  0.1021659E+00
         -2   -1    0    0    0  501 -0.00000000000E+00  0.00000000000E+00  0.37792714724E+03  0.37792714724E+03  0.00000000000E+00 0.  1.
          1   -1    0    0  501    0  0.00000000000E+00 -0.00000000000E+00 -0.83456711730E+03  0.83456711730E+03  0.00000000000E+00 0. -1.
        -24    2    1    2    0    0  0.17911342984E+02  0.37252064885E+03 -0.30576651019E+03  0.49015064432E+03  0.87533109983E+02 0.  0.
    5000000    2    1    2    0    0 -0.17911342984E+02 -0.37252064885E+03 -0.15087345987E+03  0.72234362022E+03  0.59993754238E+03 0.  0.
        -24    2    4    4    0    0 -0.20523727306E+03 -0.24658715598E+03 -0.29512589646E+03  0.44316553549E+03  0.79804970630E+02 0.  0.
         24    2    4    4    0    0  0.18732593008E+03 -0.12593349287E+03  0.14425243659E+03  0.27917808473E+03  0.78621808838E+02 0.  0.
         11    1    5    5    0    0 -0.17620359765E+03 -0.24465443768E+03 -0.26908307546E+03  0.40411533404E+03  0.00000000000E+00 0. -1.
        -12    1    5    5    0    0 -0.29033675409E+02 -0.19327182906E+01 -0.26042821002E+02  0.39050201453E+02  0.00000000000E+00 0.  1.
         15    1    3    3    0    0  0.17233495334E+02  0.36968883977E+03 -0.31148850407E+03  0.48373037688E+03  0.17770000000E+01 0. -1.
        -16    1    3    3    0    0  0.67784765000E+00  0.28318090729E+01  0.57219938784E+01  0.64202674404E+01  0.00000000000E+00 0.  1.
          4    1    6    6  502    0  0.50520016228E+02 -0.78687984847E+02  0.67713263347E+02  0.11545196851E+03  0.00000000000E+00 0. -1.
         -3    1    6    6    0  502  0.13680591385E+03 -0.47245508025E+02  0.76539173241E+02  0.16372611622E+03  0.00000000000E+00 0.  1.
<mgrwt>
<rscale>  0 0.47092517E+03</rscale>
<asrwt>0</asrwt>
<pdfrwt beam="1">  1        1 0.12839494E+00 0.47092517E+03</pdfrwt>
<pdfrwt beam="2">  1       -2 0.58142639E-01 0.47092517E+03</pdfrwt>
<totfact> 0.52516526E+01</totfact>
</mgrwt>
</event>
<event>
12    3  0.1176505E-007  0.1566623E+04  0.7818608E-02  0.8841319E-01
         -2   -1    0    0    0  501 -0.00000000000E+00  0.00000000000E+00  0.71439470125E+03  0.71439470125E+03  0.00000000000E+00 0.  1.
          1   -1    0    0  501    0  0.00000000000E+00 -0.00000000000E+00 -0.41848448067E+04  0.41848448067E+04  0.00000000000E+00 0. -1.
        -24    2    1    2    0    0 -0.22690711985E+03  0.15155889071E+04 -0.71980014133E+03  0.16938539815E+04  0.50323859158E+02 0.  0.
    5000000    2    1    2    0    0  0.22690711985E+03 -0.15155889071E+04 -0.27506499641E+04  0.32053855264E+04  0.59993713977E+03 0.  0.
        -24    2    4    4    0    0  0.79307410839E+02 -0.44142884575E+02 -0.64895611334E+02  0.13831745440E+03  0.81743612279E+02 0.  0.
         24    2    4    4    0    0  0.14759970901E+03 -0.14714460225E+04 -0.26857543528E+04  0.30670680720E+04  0.81798800497E+02 0.  0.
         11    1    5    5    0    0 -0.15959383088E+02 -0.39153030309E+01 -0.19164837982E+02  0.25245247499E+02  0.00000000000E+00 0. -1.
        -12    1    5    5    0    0  0.95266793927E+02 -0.40227581544E+02 -0.45730773352E+02  0.11307220690E+03  0.00000000000E+00 0.  1.
         15    1    3    3    0    0 -0.19883418738E+03  0.12082296415E+04 -0.58541006152E+03  0.13572258465E+04  0.17770000000E+01 0. -1.
        -16    1    3    3    0    0 -0.28072932473E+02  0.30735926564E+03 -0.13439007980E+03  0.33662813498E+03  0.00000000000E+00 0.  1.
          2    1    6    6  502    0  0.14791679645E+02 -0.44919988516E+03 -0.86267852894E+03  0.97273510007E+03  0.00000000000E+00 0. -1.
         -1    1    6    6    0  502  0.13280802937E+03 -0.10222461374E+04 -0.18230758238E+04  0.20943329720E+04  0.00000000000E+00 0.  1.
<mgrwt>
<rscale>  0 0.15666230E+04</rscale>
<asrwt>0</asrwt>
<pdfrwt beam="1">  1        1 0.64382229E+00 0.15666230E+04</pdfrwt>
<pdfrwt beam="2">  1       -2 0.10990687E+00 0.15666230E+04</pdfrwt>
<totfact> 0.36237913E-02</totfact>
</mgrwt>
</event>
<event>
12    3  0.1176505E-007  0.4250131E+03  0.7818608E-02  0.1035447E+00
         -2   -1    0    0    0  501 -0.00000000000E+00  0.00000000000E+00  0.32349308681E+04  0.32349308681E+04  0.00000000000E+00 0.  1.
          1   -1    0    0  501    0  0.00000000000E+00 -0.00000000000E+00 -0.16306375583E+03  0.16306375583E+03  0.00000000000E+00 0. -1.
        -24    2    1    2    0    0 -0.32347526888E+03  0.26620176990E+02  0.24568833659E+04  0.24795877344E+04  0.82064458812E+02 0.  0.
    5000000    2    1    2    0    0  0.32347526888E+03 -0.26620176990E+02  0.61498374637E+03  0.91840688956E+03  0.59993443233E+03 0.  0.
        -24    2    4    4    0    0  0.68730117520E+02 -0.19471802914E+03 -0.71150954193E+01  0.22049394479E+03  0.76993604795E+02 0.  0.
         24    2    4    4    0    0  0.25474515136E+03  0.16809785215E+03  0.62209884179E+03  0.69791294477E+03  0.83207749012E+02 0.  0.
         11    1    5    5    0    0  0.71960800588E+02 -0.13439422950E+03 -0.30940057611E+02  0.15555530499E+03  0.00000000000E+00 0. -1.
        -12    1    5    5    0    0 -0.32306830682E+01 -0.60323799636E+02  0.23824962192E+02  0.64938639800E+02  0.00000000000E+00 0.  1.
         15    1    3    3    0    0 -0.20353143702E+03 -0.17065581278E+02  0.16650065705E+04  0.16774880975E+04  0.17770000000E+01 0. -1.
        -16    1    3    3    0    0 -0.11994383186E+03  0.43685758268E+02  0.79187679543E+03  0.80209963684E+03  0.00000000000E+00 0.  1.
          2    1    6    6  502    0  0.11895531570E+03  0.75015829972E+02  0.19698513623E+03  0.24203488545E+03  0.00000000000E+00 0. -1.
         -1    1    6    6    0  502  0.13578983565E+03  0.93082022176E+02  0.42511370556E+03  0.45587805932E+03  0.00000000000E+00 0.  1.
<mgrwt>
<rscale>  0 0.42501315E+03</rscale>
<asrwt>0</asrwt>
<pdfrwt beam="1">  1        1 0.25086734E-01 0.42501315E+03</pdfrwt>
<pdfrwt beam="2">  1       -2 0.49768162E+00 0.42501315E+03</pdfrwt>
<totfact> 0.32937030E-01</totfact>
</mgrwt>
</event>
<event>
12    3  0.1176505E-007  0.1299599E+04  0.7818608E-02  0.9029883E-01
         -2   -1    0    0    0  501 -0.00000000000E+00  0.00000000000E+00  0.94599242038E+03  0.94599242038E+03  0.00000000000E+00 0.  1.
          1   -1    0    0  501    0  0.00000000000E+00 -0.00000000000E+00 -0.18946003334E+04  0.18946003334E+04  0.00000000000E+00 0. -1.
        -24    2    1    2    0    0  0.70892773991E+03  0.10533524326E+04 -0.41565395047E+03  0.13384120358E+04  0.80303693678E+02 0.  0.
    5000000    2    1    2    0    0 -0.70892773991E+03 -0.10533524326E+04 -0.53295396252E+03  0.15021807180E+04  0.60031416403E+03 0.  0.
        -24    2    4    4    0    0 -0.50886277623E+03 -0.99480796045E+03 -0.59700929606E+03  0.12694493989E+04  0.80606908014E+02 0.  0.
         24    2    4    4    0    0 -0.20006496368E+03 -0.58544472188E+02  0.64055333536E+02  0.23273131906E+03  0.81285522706E+02 0.  0.
         13    1    5    5    0    0 -0.27058971910E+03 -0.46169848263E+03 -0.31511411482E+03  0.62103235850E+03  0.00000000000E+00 0. -1.
        -14    1    5    5    0    0 -0.23827305712E+03 -0.53310947782E+03 -0.28189518124E+03  0.64841704041E+03  0.00000000000E+00 0.  1.
         15    1    3    3    0    0  0.46021452246E+03  0.69652037274E+03 -0.31240551974E+03  0.89136883658E+03  0.17770000000E+01 0. -1.
        -16    1    3    3    0    0  0.24871321744E+03  0.35683205990E+03 -0.10324843072E+03  0.44704319920E+03  0.00000000000E+00 0.  1.
          4    1    6    6  502    0 -0.11747869549E+03 -0.19921946375E+02 -0.35830711382E+01  0.11920975732E+03  0.00000000000E+00 0. -1.
         -3    1    6    6    0  502 -0.82586268195E+02 -0.38622525812E+02  0.67638404674E+02  0.11352156175E+03  0.00000000000E+00 0.  1.
<mgrwt>
<rscale>  0 0.12995987E+04</rscale>
<asrwt>0</asrwt>
<pdfrwt beam="1">  1        1 0.29147697E+00 0.12995987E+04</pdfrwt>
<pdfrwt beam="2">  1       -2 0.14553730E+00 0.12995987E+04</pdfrwt>
<totfact> 0.96672003E-01</totfact>
</mgrwt>
</event>
<event>
12    3  0.1176505E-007  0.9252713E+03  0.7818608E-02  0.9394531E-01
         -2   -1    0    0    0  501 -0.00000000000E+00  0.00000000000E+00  0.99908157016E+03  0.99908157016E+03  0.00000000000E+00 0.  1.
          1   -1    0    0  501    0  0.00000000000E+00 -0.00000000000E+00 -0.11734601956E+04  0.11734601956E+04  0.00000000000E+00 0. -1.
        -24    2    1    2    0    0 -0.89830893561E+03 -0.53838528759E+02  0.35217232868E+03  0.96962413894E+03  0.79297482564E+02 0.  0.
    5000000    2    1    2    0    0  0.89830893561E+03  0.53838528759E+02 -0.52655095413E+03  0.12029176268E+04  0.59991447611E+03 0.  0.
        -24    2    4    4    0    0  0.14747655481E+03 -0.87957961364E+02 -0.37479779097E+03  0.41987725421E+03  0.79608964964E+02 0.  0.
         24    2    4    4    0    0  0.75083238081E+03  0.14179649012E+03 -0.15175316315E+03  0.78304037261E+03  0.79168768691E+02 0.  0.
         11    1    5    5    0    0  0.40470121844E+01 -0.20318332903E+02 -0.10417649162E+03  0.10621654469E+03  0.00000000000E+00 0. -1.
        -12    1    5    5    0    0  0.14342954262E+03 -0.67639628461E+02 -0.27062129935E+03  0.31366070952E+03  0.00000000000E+00 0.  1.
         15    1    3    3    0    0 -0.28353156141E+03 -0.52836170639E+02  0.12227195409E+03  0.31326569511E+03  0.17770000000E+01 0. -1.
        -16    1    3    3    0    0 -0.61477737420E+03 -0.10023581195E+01  0.22990037459E+03  0.65635844383E+03  0.00000000000E+00 0.  1.
          4    1    6    6  502    0  0.34365564325E+03  0.25546235908E+02 -0.75639550740E+02  0.35280752960E+03  0.00000000000E+00 0. -1.
         -3    1    6    6    0  502  0.40717673756E+03  0.11625025421E+03 -0.76113612414E+02  0.43023284302E+03  0.00000000000E+00 0.  1.
<mgrwt>
<rscale>  0 0.92527133E+03</rscale>
<asrwt>0</asrwt>
<pdfrwt beam="1">  1        1 0.18053234E+00 0.92527133E+03</pdfrwt>
<pdfrwt beam="2">  1       -2 0.15370486E+00 0.92527133E+03</pdfrwt>
<totfact> 0.27655765E+00</totfact>
</mgrwt>
</event>
<event>
12    3  0.1176505E-007  0.6513371E+03  0.7818608E-02  0.9804273E-01
          1   -1    0    0  501    0  0.00000000000E+00  0.00000000000E+00  0.32989623793E+03  0.32989623793E+03  0.00000000000E+00 0. -1.
         -2   -1    0    0    0  501 -0.00000000000E+00 -0.00000000000E+00 -0.13416837055E+04  0.13416837055E+04  0.00000000000E+00 0.  1.
        -24    2    1    2    0    0 -0.49870145432E+03  0.16185669706E+03 -0.46202730526E+03  0.70336092389E+03  0.79665723663E+02 0.  0.
    5000000    2    1    2    0    0  0.49870145432E+03 -0.16185669706E+03 -0.54976016233E+03  0.96821901957E+03  0.60025919638E+03 0.  0.
        -24    2    4    4    0    0  0.13807588819E+01 -0.25982981263E+03 -0.26999536820E+03  0.38317341524E+03  0.80068278826E+02 0.  0.
         24    2    4    4    0    0  0.49732069544E+03  0.97973115576E+02 -0.27976479414E+03  0.58504560432E+03  0.84163018078E+02 0.  0.
         11    1    5    5    0    0 -0.61291211061E+01 -0.27117824520E+01  0.36320438205E+01  0.76230985770E+01  0.00000000000E+00 0. -1.
        -12    1    5    5    0    0  0.75098799880E+01 -0.25711803018E+03 -0.27362741202E+03  0.37555031667E+03  0.00000000000E+00 0.  1.
         15    1    3    3    0    0 -0.16949430908E+03  0.67713823465E+02 -0.20978988191E+03  0.27807990754E+03  0.17770000000E+01 0. -1.
        -16    1    3    3    0    0 -0.32920714524E+03  0.94142873591E+02 -0.25223742335E+03  0.42528101635E+03  0.00000000000E+00 0.  1.
          4    1    6    6  502    0  0.94379684171E+02 -0.14455318866E+02 -0.50815313113E+02  0.10816042287E+03  0.00000000000E+00 0. -1.
         -3    1    6    6    0  502  0.40294101127E+03  0.11242843444E+03 -0.22894948103E+03  0.47688518146E+03  0.00000000000E+00 0.  1.
<mgrwt>
<rscale>  0 0.65133709E+03</rscale>
<asrwt>0</asrwt>
<pdfrwt beam="1">  1        1 0.50753267E-01 0.65133709E+03</pdfrwt>
<pdfrwt beam="2">  1       -2 0.20641288E+00 0.65133709E+03</pdfrwt>
<totfact> 0.84584709E+00</totfact>
</mgrwt>
</event>
<event>
12    3  0.1176505E-007  0.1178675E+04  0.7818608E-02  0.9131730E-01
         -2   -1    0    0    0  501 -0.00000000000E+00  0.00000000000E+00  0.10362943340E+04  0.10362943340E+04  0.00000000000E+00 0.  1.
          1   -1    0    0  501    0  0.00000000000E+00 -0.00000000000E+00 -0.18220173562E+04  0.18220173562E+04  0.00000000000E+00 0. -1.
        -24    2    1    2    0    0 -0.11310522375E+04  0.26949656388E+03 -0.99602251295E+03  0.15330381724E+04  0.78978666322E+02 0.  0.
    5000000    2    1    2    0    0  0.11310522375E+04 -0.26949656388E+03  0.21029949075E+03  0.13252735179E+04  0.60018035578E+03 0.  0.
        -24    2    4    4    0    0  0.81524559932E+03 -0.95506870416E+02  0.39277389470E+03  0.91314194730E+03  0.76222923492E+02 0.  0.
         24    2    4    4    0    0  0.31580663816E+03 -0.17398969347E+03 -0.18247440395E+03  0.41213157055E+03  0.80927604732E+02 0.  0.
         13    1    5    5    0    0  0.82712839609E+02  0.81303407582E+01  0.24051342933E+02  0.86521577504E+02  0.00000000000E+00 0. -1.
        -14    1    5    5    0    0  0.73253275971E+03 -0.10363721117E+03  0.36872255176E+03  0.82662036980E+03  0.00000000000E+00 0.  1.
         15    1    3    3    0    0 -0.64467285509E+03  0.11700071543E+03 -0.53871575108E+03  0.84823939763E+03  0.17770000000E+01 0. -1.
        -16    1    3    3    0    0 -0.48637938239E+03  0.15249584845E+03 -0.45730676188E+03  0.68479877473E+03  0.00000000000E+00 0.  1.
          4    1    6    6  502    0  0.93858278572E+02 -0.11827124535E+02 -0.49863714688E+02  0.10693758635E+03  0.00000000000E+00 0. -1.
         -3    1    6    6    0  502  0.22194835959E+03 -0.16216256893E+03 -0.13261068926E+03  0.30519398420E+03  0.00000000000E+00 0.  1.
<mgrwt>
<rscale>  0 0.11786745E+04</rscale>
<asrwt>0</asrwt>
<pdfrwt beam="1">  1        1 0.28031036E+00 0.11786745E+04</pdfrwt>
<pdfrwt beam="2">  1       -2 0.15942990E+00 0.11786745E+04</pdfrwt>
<totfact> 0.85924082E-01</totfact>
</mgrwt>
</event>
<event>
12    3  0.1176505E-007  0.5988831E+03  0.7818608E-02  0.9907726E-01
         -2   -1    0    0    0  501 -0.00000000000E+00  0.00000000000E+00  0.79838623917E+03  0.79838623917E+03  0.00000000000E+00 0.  1.
          1   -1    0    0  501    0  0.00000000000E+00 -0.00000000000E+00 -0.54727605257E+03  0.54727605257E+03  0.00000000000E+00 0. -1.
        -24    2    1    2    0    0 -0.43494823432E+03  0.23308686976E+03 -0.71114675592E+02  0.50463272475E+03  0.78022012388E+02 0.  0.
    5000000    2    1    2    0    0  0.43494823432E+03 -0.23308686976E+03  0.32222486220E+03  0.84102956699E+03  0.59999367941E+03 0.  0.
        -24    2    4    4    0    0  0.70870652447E+02 -0.30787606346E+03 -0.24643077574E+02  0.32628559003E+03  0.77747573326E+02 0.  0.
         24    2    4    4    0    0  0.36407758187E+03  0.74789193698E+02  0.34686793977E+03  0.51474397696E+03  0.80610700642E+02 0.  0.
         13    1    5    5    0    0  0.22355848619E+02 -0.22220281667E+03 -0.39263716258E+02  0.22674989552E+03  0.00000000000E+00 0. -1.
        -14    1    5    5    0    0  0.48514803828E+02 -0.85673246791E+02  0.14620638683E+02  0.99535694511E+02  0.00000000000E+00 0.  1.
         15    1    3    3    0    0 -0.14420966512E+03  0.11931528743E+03 -0.19547992862E+02  0.18819629933E+03  0.17770000000E+01 0. -1.
        -16    1    3    3    0    0 -0.29073856920E+03  0.11377158233E+03 -0.51566682730E+02  0.31643642542E+03  0.00000000000E+00 0.  1.
          2    1    6    6  502    0  0.16754117595E+03  0.65358362436E+02  0.20166643279E+03  0.27020568331E+03  0.00000000000E+00 0. -1.
         -1    1    6    6    0  502  0.19653640592E+03  0.94308312626E+01  0.14520150699E+03  0.24453829365E+03  0.00000000000E+00 0.  1.
<mgrwt>
<rscale>  0 0.59888307E+03</rscale>
<asrwt>0</asrwt>
<pdfrwt beam="1">  1        1 0.84196315E-01 0.59888307E+03</pdfrwt>
<pdfrwt beam="2">  1       -2 0.12282865E+00 0.59888307E+03</pdfrwt>
<totfact> 0.17718361E+01</totfact>
</mgrwt>
</event>
<event>
12    3  0.1176505E-007  0.1039502E+04  0.7818608E-02  0.9266250E-01
         -2   -1    0    0    0  501 -0.00000000000E+00  0.00000000000E+00  0.11437916634E+04  0.11437916634E+04  0.00000000000E+00 0.  1.
          1   -1    0    0  501    0  0.00000000000E+00 -0.00000000000E+00 -0.11947668084E+04  0.11947668084E+04  0.00000000000E+00 0. -1.
        -24    2    1    2    0    0 -0.35840699384E+03 -0.97124941856E+03  0.31685079433E+03  0.10867140736E+04  0.93659198851E+02 0.  0.
    5000000    2    1    2    0    0  0.35840699384E+03  0.97124941856E+03 -0.36782593934E+03  0.12518443982E+04  0.60003122364E+03 0.  0.
        -24    2    4    4    0    0  0.27319033942E+03  0.69574282356E+03 -0.52231698125E+03  0.91535187453E+03  0.79768334637E+02 0.  0.
         24    2    4    4    0    0  0.85216654416E+02  0.27550659500E+03  0.15449104190E+03  0.33649252367E+03  0.78701806682E+02 0.  0.
         11    1    5    5    0    0  0.21416129558E+03  0.48029885535E+03 -0.33222114361E+03  0.62203130085E+03  0.00000000000E+00 0. -1.
        -12    1    5    5    0    0  0.59029043842E+02  0.21544396821E+03 -0.19009583764E+03  0.29332057368E+03  0.00000000000E+00 0.  1.
         15    1    3    3    0    0 -0.98735776909E+02 -0.38617675753E+03  0.14217816654E+03  0.42320093392E+03  0.17770000000E+01 0. -1.
        -16    1    3    3    0    0 -0.25967121693E+03 -0.58507266103E+03  0.17467262779E+03  0.66351313965E+03  0.00000000000E+00 0.  1.
          2    1    6    6  502    0  0.22144708164E+02  0.13772668812E+03  0.11262321326E+03  0.17928473690E+03  0.00000000000E+00 0. -1.
         -1    1    6    6    0  502  0.63071946252E+02  0.13777990689E+03  0.41867828644E+02  0.15720778677E+03  0.00000000000E+00 0.  1.
<mgrwt>
<rscale>  0 0.10395020E+04</rscale>
<asrwt>0</asrwt>
<pdfrwt beam="1">  1        1 0.18381028E+00 0.10395020E+04</pdfrwt>
<pdfrwt beam="2">  1       -2 0.17596795E+00 0.10395020E+04</pdfrwt>
<totfact> 0.18135007E+00</totfact>
</mgrwt>
</event>
<event>
12    3  0.1176505E-007  0.6695202E+03  0.7818608E-02  0.9770825E-01
          1   -1    0    0  501    0  0.00000000000E+00  0.00000000000E+00  0.38024435001E+03  0.38024435001E+03  0.00000000000E+00 0. -1.
         -2   -1    0    0    0  501 -0.00000000000E+00 -0.00000000000E+00 -0.15781887242E+04  0.15781887242E+04  0.00000000000E+00 0.  1.
        -24    2    1    2    0    0  0.28820428641E+03 -0.50600872465E+03 -0.89193551076E+03  0.10681682735E+04  0.79548507763E+02 0.  0.
    5000000    2    1    2    0    0 -0.28820428641E+03  0.50600872465E+03 -0.30600886342E+03  0.89026480067E+03  0.59985285753E+03 0.  0.
        -24    2    4    4    0    0 -0.27981441368E+02 -0.82971403150E+02 -0.20040358321E+03  0.23290844092E+03  0.80109493112E+02 0.  0.
         24    2    4    4    0    0 -0.26022284505E+03  0.58898012780E+03 -0.10560528021E+03  0.65735635975E+03  0.79695598802E+02 0.  0.
         11    1    5    5    0    0 -0.36598875845E+02 -0.24216532629E+02 -0.31920080639E+02  0.54266100963E+02  0.00000000000E+00 0. -1.
        -12    1    5    5    0    0  0.86174344768E+01 -0.58754870520E+02 -0.16848350257E+03  0.17864233996E+03  0.00000000000E+00 0.  1.
         15    1    3    3    0    0  0.34629324952E+02 -0.23419318326E+02 -0.78378617982E+02  0.88848298258E+02  0.17770000000E+01 0. -1.
        -16    1    3    3    0    0  0.25357496146E+03 -0.48258940633E+03 -0.81355689278E+03  0.97931997527E+03  0.00000000000E+00 0.  1.
          2    1    6    6  502    0 -0.12178935490E+03  0.18282540289E+03 -0.32174857542E+02  0.22202026116E+03  0.00000000000E+00 0. -1.
         -1    1    6    6    0  502 -0.13843349015E+03  0.40615472491E+03 -0.73430422671E+02  0.43533609859E+03  0.00000000000E+00 0.  1.
<mgrwt>
<rscale>  0 0.66952018E+03</rscale>
<asrwt>0</asrwt>
<pdfrwt beam="1">  1        1 0.58499132E-01 0.66952018E+03</pdfrwt>
<pdfrwt beam="2">  1       -2 0.24279826E+00 0.66952018E+03</pdfrwt>
<totfact> 0.41660646E+00</totfact>
</mgrwt>
</event>
<event>
12    3  0.1176505E-007  0.1198256E+04  0.7818608E-02  0.9114385E-01
         -2   -1    0    0    0  501 -0.00000000000E+00  0.00000000000E+00  0.13063650354E+04  0.13063650354E+04  0.00000000000E+00 0.  1.
          1   -1    0    0  501    0  0.00000000000E+00 -0.00000000000E+00 -0.24714779893E+04  0.24714779893E+04  0.00000000000E+00 0. -1.
        -24    2    1    2    0    0  0.97823616508E+03  0.57114394798E+03  0.82993353577E+03  0.14064847614E+04  0.79109458078E+02 0.  0.
    5000000    2    1    2    0    0 -0.97823616508E+03 -0.57114394798E+03 -0.19950464896E+04  0.23713582632E+04  0.59998176037E+03 0.  0.
        -24    2    4    4    0    0 -0.54391309955E+02 -0.27970422801E+03 -0.32932054403E+03  0.44273507003E+03  0.79808845069E+02 0.  0.
         24    2    4    4    0    0 -0.92384485513E+03 -0.29143971997E+03 -0.16657259456E+04  0.19286231932E+04  0.80734557262E+02 0.  0.
         11    1    5    5    0    0  0.14267519293E+02 -0.55594257534E+02 -0.97049878771E+02  0.11275177403E+03  0.00000000000E+00 0. -1.
        -12    1    5    5    0    0 -0.68658829248E+02 -0.22410997048E+03 -0.23227066526E+03  0.32998329600E+03  0.00000000000E+00 0.  1.
         15    1    3    3    0    0  0.54487048645E+03  0.28854437506E+03  0.41403301369E+03  0.74267637470E+03  0.17770000000E+01 0. -1.
        -16    1    3    3    0    0  0.43336567863E+03  0.28259957292E+03  0.41590052207E+03  0.66380838673E+03  0.00000000000E+00 0.  1.
          2    1    6    6  502    0 -0.54274625501E+03 -0.13836036768E+03 -0.91174429342E+03  0.10700442726E+04  0.00000000000E+00 0. -1.
         -1    1    6    6    0  502 -0.38109860012E+03 -0.15307935229E+03 -0.75398165218E+03  0.85857892062E+03  0.00000000000E+00 0.  1.
<mgrwt>
<rscale>  0 0.11982556E+04</rscale>
<asrwt>0</asrwt>
<pdfrwt beam="1">  1        1 0.38022738E+00 0.11982556E+04</pdfrwt>
<pdfrwt beam="2">  1       -2 0.20097924E+00 0.11982556E+04</pdfrwt>
<totfact> 0.15964922E-01</totfact>
</mgrwt>
</event>
<event>
12    3  0.1176505E-007  0.6803339E+03  0.7818608E-02  0.9751468E-01
          3   -1    0    0  501    0  0.00000000000E+00  0.00000000000E+00  0.10418596707E+04  0.10418596707E+04  0.00000000000E+00 0. -1.
         -4   -1    0    0    0  501 -0.00000000000E+00 -0.00000000000E+00 -0.45615747681E+03  0.45615747681E+03  0.00000000000E+00 0.  1.
        -24    2    1    2    0    0 -0.54708610128E+03  0.91648805311E+02  0.20772773691E+03  0.59768298208E+03  0.79821229350E+02 0.  0.
    5000000    2    1    2    0    0  0.54708610128E+03 -0.91648805311E+02  0.37797445699E+03  0.90033416544E+03  0.60002851065E+03 0.  0.
        -24    2    4    4    0    0  0.53013783543E+03  0.14678112134E+03  0.31963813484E+03  0.64123191744E+03  0.80118740414E+02 0.  0.
         24    2    4    4    0    0  0.16948265852E+02 -0.23842992665E+03  0.58336322151E+02  0.25910224800E+03  0.81208218785E+02 0.  0.
         11    1    5    5    0    0  0.51759792291E+03  0.12886894447E+03  0.31265633327E+03  0.61827889935E+03  0.00000000000E+00 0. -1.
        -12    1    5    5    0    0  0.12539912519E+02  0.17912176871E+02  0.69818015713E+01  0.22953018090E+02  0.00000000000E+00 0.  1.
         15    1    3    3    0    0 -0.13868465531E+03  0.41290795990E+02  0.86971880140E+02  0.16883610134E+03  0.17770000000E+01 0. -1.
        -16    1    3    3    0    0 -0.40840144597E+03  0.50358009321E+02  0.12075585677E+03  0.42884688074E+03  0.00000000000E+00 0.  1.
          4    1    6    6  502    0  0.42256946729E+02 -0.10145603802E+03  0.52273375311E+01  0.11002864289E+03  0.00000000000E+00 0. -1.
         -3    1    6    6    0  502 -0.25308680876E+02 -0.13697388863E+03  0.53108984620E+02  0.14907360511E+03  0.00000000000E+00 0.  1.
<mgrwt>
<rscale>  0 0.68033390E+03</rscale>
<asrwt>0</asrwt>
<pdfrwt beam="1">  1        3 0.16028610E+00 0.68033390E+03</pdfrwt>
<pdfrwt beam="2">  1       -4 0.70178074E-01 0.68033390E+03</pdfrwt>
<totfact> 0.11464968E+00</totfact>
</mgrwt>
</event>
<event>
12    3  0.1176505E-007  0.9791168E+03  0.7818608E-02  0.9331750E-01
         -2   -1    0    0    0  501 -0.00000000000E+00  0.00000000000E+00  0.36485705455E+03  0.36485705455E+03  0.00000000000E+00 0.  1.
          1   -1    0    0  501    0  0.00000000000E+00 -0.00000000000E+00 -0.39975065777E+04  0.39975065777E+04  0.00000000000E+00 0. -1.
        -24    2    1    2    0    0 -0.54660189966E+03 -0.74887109185E+03 -0.28782328595E+04  0.30249196038E+04  0.79578054266E+02 0.  0.
    5000000    2    1    2    0    0  0.54660189966E+03  0.74887109185E+03 -0.75441666360E+03  0.13374440284E+04  0.60002539779E+03 0.  0.
        -24    2    4    4    0    0  0.55477342636E+03  0.76904981321E+03 -0.50819611931E+03  0.10788718949E+04  0.80561158031E+02 0.  0.
         24    2    4    4    0    0 -0.81715267014E+01 -0.20178721361E+02 -0.24622054429E+03  0.25857213352E+03  0.75901496419E+02 0.  0.
         13    1    5    5    0    0  0.17747105052E+03  0.30279947082E+03 -0.21061375301E+03  0.40931851443E+03  0.00000000000E+00 0. -1.
        -14    1    5    5    0    0  0.37730237584E+03  0.46625034239E+03 -0.29758236630E+03  0.66955338049E+03  0.00000000000E+00 0.  1.
         15    1    3    3    0    0 -0.26482178227E+03 -0.40709935557E+03 -0.14076759346E+04  0.14890987732E+04  0.17770000000E+01 0. -1.
        -16    1    3    3    0    0 -0.28178011738E+03 -0.34177173628E+03 -0.14705569249E+04  0.15358208306E+04  0.00000000000E+00 0.  1.
          4    1    6    6  502    0 -0.41982942891E+02 -0.69656290785E+01 -0.13945031210E+03  0.14579944111E+03  0.00000000000E+00 0. -1.
         -3    1    6    6    0  502  0.33811416189E+02 -0.13213092283E+02 -0.10677023219E+03  0.11277269242E+03  0.00000000000E+00 0.  1.
<mgrwt>
<rscale>  0 0.97911685E+03</rscale>
<asrwt>0</asrwt>
<pdfrwt beam="1">  1        1 0.61500107E+00 0.97911685E+03</pdfrwt>
<pdfrwt beam="2">  1       -2 0.56131849E-01 0.97911685E+03</pdfrwt>
<totfact> 0.26646341E-01</totfact>
</mgrwt>
</event>
<event>
12    3  0.1176505E-007  0.5843891E+03  0.7818608E-02  0.9938334E-01
         -4   -1    0    0    0  501 -0.00000000000E+00  0.00000000000E+00  0.73929389474E+03  0.73929389474E+03  0.00000000000E+00 0.  1.
          1   -1    0    0  501    0  0.00000000000E+00 -0.00000000000E+00 -0.54247916350E+03  0.54247916350E+03  0.00000000000E+00 0. -1.
        -24    2    1    2    0    0 -0.43361217923E+03 -0.13031189330E+03  0.26145097907E+03  0.52730195084E+03  0.68483730827E+02 0.  0.
    5000000    2    1    2    0    0  0.43361217923E+03  0.13031189330E+03 -0.64636247826E+02  0.75447110740E+03  0.60004007854E+03 0.  0.
        -24    2    4    4    0    0  0.12543988701E+02  0.26771983276E+03  0.62461332696E+02  0.28655238075E+03  0.79872325162E+02 0.  0.
         24    2    4    4    0    0  0.42106819053E+03 -0.13740793946E+03 -0.12709758052E+03  0.46791872666E+03  0.81331278594E+02 0.  0.
         11    1    5    5    0    0  0.25622074396E+02  0.24258257033E+03  0.33824186666E+02  0.24626585173E+03  0.00000000000E+00 0. -1.
        -12    1    5    5    0    0 -0.13078085695E+02  0.25137262428E+02  0.28637146030E+02  0.40286529021E+02  0.00000000000E+00 0.  1.
         15    1    3    3    0    0 -0.80503212467E+02 -0.33268956410E+02  0.81389619913E+02  0.11922675302E+03  0.17770000000E+01 0. -1.
        -16    1    3    3    0    0 -0.35310896676E+03 -0.97042936888E+02  0.18006135916E+03  0.40807519781E+03  0.00000000000E+00 0.  1.
          2    1    6    6  502    0  0.32990614834E+03 -0.10099200884E+03 -0.63119185890E+02  0.35074418625E+03  0.00000000000E+00 0. -1.
         -1    1    6    6    0  502  0.91162042190E+02 -0.36415930614E+02 -0.63978394632E+02  0.11717454040E+03  0.00000000000E+00 0.  1.
<mgrwt>
<rscale>  0 0.58438911E+03</rscale>
<asrwt>0</asrwt>
<pdfrwt beam="1">  1        1 0.83458334E-01 0.58438911E+03</pdfrwt>
<pdfrwt beam="2">  1       -4 0.11373752E+00 0.58438911E+03</pdfrwt>
<totfact> 0.11602757E+01</totfact>
</mgrwt>
</event>
<event>
12    3  0.1176505E-007  0.8048178E+03  0.7818608E-02  0.9553070E-01
          1   -1    0    0  501    0  0.00000000000E+00  0.00000000000E+00  0.17647092539E+04  0.17647092539E+04  0.00000000000E+00 0. -1.
         -2   -1    0    0    0  501 -0.00000000000E+00 -0.00000000000E+00 -0.51953989797E+03  0.51953989797E+03  0.00000000000E+00 0.  1.
        -24    2    1    2    0    0 -0.53888532309E+03  0.44274965528E+03 -0.41157973202E+02  0.70276555009E+03  0.75899874405E+02 0.  0.
    5000000    2    1    2    0    0  0.53888532309E+03 -0.44274965528E+03  0.12863273292E+04  0.15814836018E+04  0.60002311319E+03 0.  0.
        -24    2    4    4    0    0  0.61552523067E+03 -0.21282998860E+03  0.81964985162E+03  0.10498573600E+04  0.78782507187E+02 0.  0.
         24    2    4    4    0    0 -0.76639907579E+02 -0.22991966668E+03  0.46667747754E+03  0.53162624182E+03  0.78114431346E+02 0.  0.
         13    1    5    5    0    0  0.52113124152E+03 -0.15357953985E+03  0.70383882175E+03  0.88913077382E+03  0.00000000000E+00 0. -1.
        -14    1    5    5    0    0  0.94393989148E+02 -0.59250448750E+02  0.11581102987E+03  0.16072658618E+03  0.00000000000E+00 0.  1.
         15    1    3    3    0    0 -0.29830261792E+03  0.19854243824E+03 -0.89871505956E+01  0.35845150055E+03  0.17770000000E+01 0. -1.
        -16    1    3    3    0    0 -0.24058270517E+03  0.24420721704E+03 -0.32170822606E+02  0.34431404954E+03  0.00000000000E+00 0.  1.
          2    1    6    6  502    0  0.15197890131E+02 -0.26253098194E+02  0.71451939474E+02  0.77624613904E+02  0.00000000000E+00 0. -1.
         -1    1    6    6    0  502 -0.91837797710E+02 -0.20366656849E+03  0.39522553807E+03  0.45400162791E+03  0.00000000000E+00 0.  1.
<mgrwt>
<rscale>  0 0.80481782E+03</rscale>
<asrwt>0</asrwt>
<pdfrwt beam="1">  1        1 0.27149373E+00 0.80481782E+03</pdfrwt>
<pdfrwt beam="2">  1       -2 0.79929216E-01 0.80481782E+03</pdfrwt>
<totfact> 0.53909334E+00</totfact>
</mgrwt>
</event>
<event>
12    3  0.1176505E-007  0.9877626E+03  0.7818608E-02  0.9322069E-01
          1   -1    0    0  501    0  0.00000000000E+00  0.00000000000E+00  0.27168400314E+04  0.27168400314E+04  0.00000000000E+00 0. -1.
         -2   -1    0    0    0  501 -0.00000000000E+00 -0.00000000000E+00 -0.37574178244E+03  0.37574178244E+03  0.00000000000E+00 0.  1.
        -24    2    1    2    0    0  0.16683708888E+02  0.91789983220E+03  0.11459274601E+04  0.14704703520E+04  0.79466120909E+02 0.  0.
    5000000    2    1    2    0    0 -0.16683708888E+02 -0.91789983220E+03  0.11951707889E+04  0.16221114618E+04  0.59999494316E+03 0.  0.
        -24    2    4    4    0    0  0.22003769370E+03 -0.22017644664E+03  0.56269400501E+03  0.64803451159E+03  0.80186848289E+02 0.  0.
         24    2    4    4    0    0 -0.23672140259E+03 -0.69772338556E+03  0.63247678390E+03  0.97407695023E+03  0.77097844287E+02 0.  0.
         13    1    5    5    0    0  0.10452706976E+03 -0.14752612846E+03  0.26807390471E+03  0.32334731370E+03  0.00000000000E+00 0. -1.
        -14    1    5    5    0    0  0.11551062394E+03 -0.72650318180E+02  0.29462010030E+03  0.32468719790E+03  0.00000000000E+00 0.  1.
         15    1    3    3    0    0  0.48400204424E+02  0.48803999079E+03  0.61456993133E+03  0.78627283472E+03  0.17770000000E+01 0. -1.
        -16    1    3    3    0    0 -0.31716495536E+02  0.42985984141E+03  0.53135752876E+03  0.68419751733E+03  0.00000000000E+00 0.  1.
          4    1    6    6  502    0 -0.76571539615E+02 -0.23168920909E+03  0.25829479459E+03  0.35532983438E+03  0.00000000000E+00 0. -1.
         -3    1    6    6    0  502 -0.16014986298E+03 -0.46603417646E+03  0.37418198931E+03  0.61874711585E+03  0.00000000000E+00 0.  1.
<mgrwt>
<rscale>  0 0.98776264E+03</rscale>
<asrwt>0</asrwt>
<pdfrwt beam="1">  1        1 0.41797538E+00 0.98776264E+03</pdfrwt>
<pdfrwt beam="2">  1       -2 0.57806430E-01 0.98776264E+03</pdfrwt>
<totfact> 0.24001810E+00</totfact>
</mgrwt>
</event>
<event>
12    3  0.1176505E-007  0.6449396E+03  0.7818608E-02  0.9816321E-01
         -2   -1    0    0    0  501 -0.00000000000E+00  0.00000000000E+00  0.11197020441E+04  0.11197020441E+04  0.00000000000E+00 0.  1.
          1   -1    0    0  501    0  0.00000000000E+00 -0.00000000000E+00 -0.44227508699E+03  0.44227508699E+03  0.00000000000E+00 0. -1.
        -24    2    1    2    0    0 -0.53772519238E+03 -0.67731014109E+02  0.48287223871E+03  0.73036869174E+03  0.80851432610E+02 0.  0.
    5000000    2    1    2    0    0  0.53772519238E+03  0.67731014109E+02  0.19455471839E+03  0.83160843934E+03  0.59998765416E+03 0.  0.
        -24    2    4    4    0    0  0.18502615397E+03 -0.21579100512E+03 -0.57050520628E+02  0.30729547061E+03  0.10185925980E+03 0.  0.
         24    2    4    4    0    0  0.35269903841E+03  0.28352201923E+03  0.25160523901E+03  0.52431296874E+03  0.82568430997E+02 0.  0.
         13    1    5    5    0    0  0.15166301420E+03 -0.18054468803E+03 -0.46017973800E+01  0.23583729729E+03  0.00000000000E+00 0. -1.
        -14    1    5    5    0    0  0.33363139767E+02 -0.35246317093E+02 -0.52448723248E+02  0.71458173319E+02  0.00000000000E+00 0.  1.
         15    1    3    3    0    0 -0.31818430821E+03 -0.89932284679E+01  0.31499338653E+03  0.44782376382E+03  0.17770000000E+01 0. -1.
        -16    1    3    3    0    0 -0.21954088417E+03 -0.58737785642E+02  0.16787885218E+03  0.28254492792E+03  0.00000000000E+00 0.  1.
          4    1    6    6  502    0  0.27981004050E+03  0.17765892516E+03  0.17891274481E+03  0.37665119502E+03  0.00000000000E+00 0. -1.
         -3    1    6    6    0  502  0.72888997914E+02  0.10586309407E+03  0.72692494206E+02  0.14766177372E+03  0.00000000000E+00 0.  1.
<mgrwt>
<rscale>  0 0.64493956E+03</rscale>
<asrwt>0</asrwt>
<pdfrwt beam="1">  1        1 0.68042321E-01 0.64493956E+03</pdfrwt>
<pdfrwt beam="2">  1       -2 0.17226185E+00 0.64493956E+03</pdfrwt>
<totfact> 0.97251576E+00</totfact>
</mgrwt>
</event>
<event>
12    3  0.1176505E-007  0.7104493E+03  0.7818608E-02  0.9699528E-01
         -2   -1    0    0    0  501 -0.00000000000E+00  0.00000000000E+00  0.21980200959E+03  0.21980200959E+03  0.00000000000E+00 0.  1.
          1   -1    0    0  501    0  0.00000000000E+00 -0.00000000000E+00 -0.28323251361E+04  0.28323251361E+04  0.00000000000E+00 0. -1.
        -24    2    1    2    0    0  0.36031648436E+03 -0.46441226432E+03 -0.17517925290E+04  0.18494862718E+04  0.79471282695E+02 0.  0.
    5000000    2    1    2    0    0 -0.36031648436E+03  0.46441226432E+03 -0.86073059754E+03  0.12026408739E+04  0.59998432473E+03 0.  0.
        -24    2    4    4    0    0  0.64661202959E+02  0.38309225290E+03 -0.35421010136E+03  0.53166716693E+03  0.79148184354E+02 0.  0.
         24    2    4    4    0    0 -0.42497768731E+03  0.81320011413E+02 -0.50652049619E+03  0.67097370699E+03  0.80148134351E+02 0.  0.
         11    1    5    5    0    0  0.54939071955E+02  0.31835547236E+03 -0.24954910046E+03  0.40821962466E+03  0.00000000000E+00 0. -1.
        -12    1    5    5    0    0  0.97221310040E+01  0.64736780538E+02 -0.10466100089E+03  0.12344754228E+03  0.00000000000E+00 0.  1.
         15    1    3    3    0    0  0.10017556962E+03 -0.18620189521E+03 -0.67243745310E+03  0.70489827393E+03  0.17770000000E+01 0. -1.
        -16    1    3    3    0    0  0.26014091474E+03 -0.27821036910E+03 -0.10793550759E+04  0.11445879978E+04  0.00000000000E+00 0.  1.
          2    1    6    6  502    0 -0.33624547060E+03  0.96951631035E+02 -0.40424175553E+03  0.53467002177E+03  0.00000000000E+00 0. -1.
         -1    1    6    6    0  502 -0.88732216715E+02 -0.15631619623E+02 -0.10227874065E+03  0.13630368522E+03  0.00000000000E+00 0.  1.
<mgrwt>
<rscale>  0 0.71044927E+03</rscale>
<asrwt>0</asrwt>
<pdfrwt beam="1">  1        1 0.43574232E+00 0.71044927E+03</pdfrwt>
<pdfrwt beam="2">  1       -2 0.33815694E-01 0.71044927E+03</pdfrwt>
<totfact> 0.60613802E+00</totfact>
</mgrwt>
</event>
<event>
12    3  0.1176505E-007  0.1177621E+04  0.7818608E-02  0.9132673E-01
         -2   -1    0    0    0  501 -0.00000000000E+00  0.00000000000E+00  0.37756103136E+03  0.37756103136E+03  0.00000000000E+00 0.  1.
          1   -1    0    0  501    0  0.00000000000E+00 -0.00000000000E+00 -0.40968881582E+04  0.40968881582E+04  0.00000000000E+00 0. -1.
        -24    2    1    2    0    0 -0.10177018197E+04 -0.43173070495E+03 -0.10664465635E+04  0.15383977740E+04  0.85153055026E+02 0.  0.
    5000000    2    1    2    0    0  0.10177018197E+04  0.43173070495E+03 -0.26528805633E+04  0.29360514155E+04  0.60042837702E+03 0.  0.
        -24    2    4    4    0    0  0.23932333356E+02 -0.97889176408E+02 -0.32932941163E+03  0.35275233981E+03  0.76297473353E+02 0.  0.
         24    2    4    4    0    0  0.99376948638E+03  0.52961988136E+03 -0.23235511517E+04  0.25832990757E+04  0.80431022172E+02 0.  0.
         11    1    5    5    0    0  0.40190075645E+02 -0.32316180012E+02 -0.20350856186E+03  0.20994121182E+03  0.00000000000E+00 0. -1.
        -12    1    5    5    0    0 -0.16257742290E+02 -0.65572996395E+02 -0.12582084977E+03  0.14281112799E+03  0.00000000000E+00 0.  1.
         15    1    3    3    0    0 -0.48684588707E+03 -0.17363467320E+03 -0.45668136551E+03  0.68973106703E+03  0.17770000000E+01 0. -1.
        -16    1    3    3    0    0 -0.53085593266E+03 -0.25809603175E+03 -0.60976519798E+03  0.84866670697E+03  0.00000000000E+00 0.  1.
          2    1    6    6  502    0  0.41900561904E+03  0.17861454381E+03 -0.93491474551E+03  0.10399684829E+04  0.00000000000E+00 0. -1.
         -1    1    6    6    0  502  0.57476386734E+03  0.35100533755E+03 -0.13886364062E+04  0.15433305928E+04  0.00000000000E+00 0.  1.
<mgrwt>
<rscale>  0 0.11776213E+04</rscale>
<asrwt>0</asrwt>
<pdfrwt beam="1">  1        1 0.63029047E+00 0.11776213E+04</pdfrwt>
<pdfrwt beam="2">  1       -2 0.58086314E-01 0.11776213E+04</pdfrwt>
<totfact> 0.19595535E-01</totfact>
</mgrwt>
</event>
<event>
12    3  0.1176505E-007  0.1541603E+04  0.7818608E-02  0.8857249E-01
         -2   -1    0    0    0  501 -0.00000000000E+00  0.00000000000E+00  0.13317933000E+04  0.13317933000E+04  0.00000000000E+00 0.  1.
          1   -1    0    0  501    0  0.00000000000E+00 -0.00000000000E+00 -0.33087556146E+04  0.33087556146E+04  0.00000000000E+00 0. -1.
        -24    2    1    2    0    0 -0.14950758797E+04  0.30503925543E+03 -0.24909852103E+04  0.29223101092E+04  0.81167869681E+02 0.  0.
    5000000    2    1    2    0    0  0.14950758797E+04 -0.30503925543E+03  0.51402289569E+03  0.17182388055E+04  0.59985350047E+03 0.  0.
        -24    2    4    4    0    0  0.10876198867E+04 -0.91468481698E+02  0.10814496148E+03  0.10997036131E+04  0.79807284994E+02 0.  0.
         24    2    4    4    0    0  0.40745599294E+03 -0.21357077373E+03  0.40587793420E+03  0.61853519241E+03  0.78841773188E+02 0.  0.
         11    1    5    5    0    0  0.50397828919E+03 -0.18194439253E+02  0.81739755845E+02  0.51088799289E+03  0.00000000000E+00 0. -1.
        -12    1    5    5    0    0  0.58364159756E+03 -0.73274042445E+02  0.26405205636E+02  0.58881562019E+03  0.00000000000E+00 0.  1.
         15    1    3    3    0    0 -0.11801801036E+04  0.27082822763E+03 -0.20021164111E+04  0.23397962063E+04  0.17770000000E+01 0. -1.
        -16    1    3    3    0    0 -0.31489577604E+03  0.34211027800E+02 -0.48886879919E+03  0.58251390285E+03  0.00000000000E+00 0.  1.
          2    1    6    6  502    0  0.28814000945E+03 -0.12311186398E+03  0.30978594590E+03  0.44062288680E+03  0.00000000000E+00 0. -1.
         -1    1    6    6    0  502  0.11931598349E+03 -0.90458909747E+02  0.96091988305E+02  0.17791230561E+03  0.00000000000E+00 0.  1.
<mgrwt>
<rscale>  0 0.15416026E+04</rscale>
<asrwt>0</asrwt>
<pdfrwt beam="1">  1        1 0.50903933E+00 0.15416026E+04</pdfrwt>
<pdfrwt beam="2">  1       -2 0.20489128E+00 0.15416026E+04</pdfrwt>
<totfact> 0.35841839E-02</totfact>
</mgrwt>
</event>
<event>
12    3  0.1176505E-007  0.1192222E+04  0.7818608E-02  0.9119692E-01
         -2   -1    0    0    0  501 -0.00000000000E+00  0.00000000000E+00  0.29617312361E+04  0.29617312361E+04  0.00000000000E+00 0.  1.
          1   -1    0    0  501    0  0.00000000000E+00 -0.00000000000E+00 -0.51625251822E+03  0.51625251822E+03  0.00000000000E+00 0. -1.
        -24    2    1    2    0    0  0.10920829631E+04  0.25078301537E+03  0.71783442598E+03  0.13331564158E+04  0.80513642834E+02 0.  0.
    5000000    2    1    2    0    0 -0.10920829631E+04 -0.25078301537E+03  0.17276442919E+04  0.21448273385E+04  0.59999349459E+03 0.  0.
        -24    2    4    4    0    0 -0.78000203347E+03 -0.43083794383E+03  0.11071615207E+04  0.14232952703E+04  0.77060284910E+02 0.  0.
         24    2    4    4    0    0 -0.31208092967E+03  0.18005492845E+03  0.62048277121E+03  0.72153206822E+03  0.76127341830E+02 0.  0.
         11    1    5    5    0    0 -0.55003664942E+03 -0.34219117825E+03  0.81375080341E+03  0.10401084022E+04  0.00000000000E+00 0. -1.
        -12    1    5    5    0    0 -0.22996538404E+03 -0.88646765580E+02  0.29341071727E+03  0.38318686814E+03  0.00000000000E+00 0.  1.
         15    1    3    3    0    0  0.21977990565E+03  0.76247181197E+02  0.12460606928E+03  0.26390655505E+03  0.17770000000E+01 0. -1.
        -16    1    3    3    0    0  0.87230305749E+03  0.17453583418E+03  0.59322835670E+03  0.10692498607E+04  0.00000000000E+00 0.  1.
          4    1    6    6  502    0 -0.15018087380E+03  0.12963490890E+03  0.32022424084E+03  0.37670023743E+03  0.00000000000E+00 0. -1.
         -3    1    6    6    0  502 -0.16190005587E+03  0.50420019555E+02  0.30025853037E+03  0.34483183078E+03  0.00000000000E+00 0.  1.
<mgrwt>
<rscale>  0 0.11922219E+04</rscale>
<asrwt>0</asrwt>
<pdfrwt beam="1">  1        1 0.79423466E-01 0.11922219E+04</pdfrwt>
<pdfrwt beam="2">  1       -2 0.45565095E+00 0.11922219E+04</pdfrwt>
<totfact> 0.11767321E-01</totfact>
</mgrwt>
</event>
<event>
12    3  0.1176505E-007  0.5827826E+03  0.7818608E-02  0.9941785E-01
          1   -1    0    0  501    0  0.00000000000E+00  0.00000000000E+00  0.77200555144E+03  0.77200555144E+03  0.00000000000E+00 0. -1.
         -2   -1    0    0    0  501 -0.00000000000E+00 -0.00000000000E+00 -0.47823848396E+03  0.47823848396E+03  0.00000000000E+00 0.  1.
        -24    2    1    2    0    0 -0.32787401610E+03  0.29974795140E+03  0.32465466667E+01  0.44903537596E+03  0.65360722088E+02 0.  0.
    5000000    2    1    2    0    0  0.32787401610E+03 -0.29974795140E+03  0.29052052081E+03  0.80120865944E+03  0.60015242909E+03 0.  0.
        -24    2    4    4    0    0  0.20451446582E+03  0.14203494819E+03  0.19471255103E+03  0.32620074500E+03  0.80584460505E+02 0.  0.
         24    2    4    4    0    0  0.12335955028E+03 -0.44178289959E+03  0.95807969786E+02  0.47500791444E+03  0.77869395071E+02 0.  0.
         13    1    5    5    0    0  0.86730348068E+01  0.31786776092E+02  0.77223659290E+01  0.33841625296E+02  0.00000000000E+00 0. -1.
        -14    1    5    5    0    0  0.19584143101E+03  0.11024817210E+03  0.18699018510E+03  0.29235911971E+03  0.00000000000E+00 0.  1.
         15    1    3    3    0    0 -0.29212201004E+03  0.27985106809E+03  0.19492604453E+02  0.40501235588E+03  0.17770000000E+01 0. -1.
        -16    1    3    3    0    0 -0.35752006061E+02  0.19896883317E+02 -0.16246057786E+02  0.44023020077E+02  0.00000000000E+00 0.  1.
          2    1    6    6  502    0  0.10732141928E+03 -0.42806089243E+03  0.10213237516E+03  0.45297354969E+03  0.00000000000E+00 0. -1.
         -1    1    6    6    0  502  0.16038131002E+02 -0.13722007160E+02 -0.63244053708E+01  0.22034364747E+02  0.00000000000E+00 0.  1.
<mgrwt>
<rscale>  0 0.58278256E+03</rscale>
<asrwt>0</asrwt>
<pdfrwt beam="1">  1        1 0.11877008E+00 0.58278256E+03</pdfrwt>
<pdfrwt beam="2">  1       -2 0.73575152E-01 0.58278256E+03</pdfrwt>
<totfact> 0.35417920E+01</totfact>
</mgrwt>
</event>
<event>
12    3  0.1176505E-007  0.8129167E+03  0.7818608E-02  0.9541507E-01
         -2   -1    0    0    0  501 -0.00000000000E+00  0.00000000000E+00  0.71294551905E+03  0.71294551905E+03  0.00000000000E+00 0.  1.
          1   -1    0    0  501    0  0.00000000000E+00 -0.00000000000E+00 -0.15871157499E+04  0.15871157499E+04  0.00000000000E+00 0. -1.
        -24    2    1    2    0    0  0.71800088639E+03 -0.18986245742E+03  0.28285027187E+03  0.79992302714E+03  0.91101852100E+02 0.  0.
    5000000    2    1    2    0    0 -0.71800088639E+03  0.18986245742E+03 -0.11570205028E+04  0.15001382418E+04  0.60012105049E+03 0.  0.
        -24    2    4    4    0    0 -0.70325594546E+03  0.15910846767E+02 -0.10832231380E+04  0.12940839809E+04  0.80367300782E+02 0.  0.
         24    2    4    4    0    0 -0.14744940923E+02  0.17395161066E+03 -0.73797364771E+02  0.20605426096E+03  0.80843869764E+02 0.  0.
         13    1    5    5    0    0 -0.32543383057E+03  0.46551436510E+01 -0.57476840754E+03  0.66052068154E+03  0.00000000000E+00 0. -1.
        -14    1    5    5    0    0 -0.37782211490E+03  0.11255703117E+02 -0.50845473044E+03  0.63356329934E+03  0.00000000000E+00 0.  1.
         15    1    3    3    0    0  0.52926989060E+03 -0.10229420361E+03  0.18425897426E+03  0.56968872949E+03  0.17770000000E+01 0. -1.
        -16    1    3    3    0    0  0.18873099579E+03 -0.87568253816E+02  0.98591297613E+02  0.23023429765E+03  0.00000000000E+00 0.  1.
          2    1    6    6  502    0 -0.16547381746E+02  0.10661812865E+03 -0.85529273542E+02  0.13768259814E+03  0.00000000000E+00 0. -1.
         -1    1    6    6    0  502  0.18024408226E+01  0.67333482010E+02  0.11731908771E+02  0.68371662814E+02  0.00000000000E+00 0.  1.
<mgrwt>
<rscale>  0 0.81291667E+03</rscale>
<asrwt>0</asrwt>
<pdfrwt beam="1">  1        1 0.24417165E+00 0.81291667E+03</pdfrwt>
<pdfrwt beam="2">  1       -2 0.10968393E+00 0.81291667E+03</pdfrwt>
<totfact> 0.33903658E+00</totfact>
</mgrwt>
</event>
<event>
12    3  0.1176505E-007  0.9243726E+03  0.7818608E-02  0.9395617E-01
          1   -1    0    0  501    0  0.00000000000E+00  0.00000000000E+00  0.95857441192E+03  0.95857441192E+03  0.00000000000E+00 0. -1.
         -2   -1    0    0    0  501 -0.00000000000E+00 -0.00000000000E+00 -0.10711662104E+04  0.10711662104E+04  0.00000000000E+00 0.  1.
        -24    2    1    2    0    0  0.80528520876E+03 -0.43940474324E+03 -0.14681570815E+03  0.93328491831E+03  0.88910577185E+02 0.  0.
    5000000    2    1    2    0    0 -0.80528520876E+03  0.43940474324E+03  0.34223909696E+02  0.10964557040E+04  0.59956904440E+03 0.  0.
        -24    2    4    4    0    0 -0.65894280350E+03  0.33250351081E+03  0.26866753851E+03  0.78952515311E+03  0.80021985480E+02 0.  0.
         24    2    4    4    0    0 -0.14634240527E+03  0.10690123243E+03 -0.23444362882E+03  0.30693055089E+03  0.79991092633E+02 0.  0.
         11    1    5    5    0    0 -0.13811861122E+03  0.88990905370E+02  0.30029339357E+02  0.16702662431E+03  0.00000000000E+00 0. -1.
        -12    1    5    5    0    0 -0.52082419227E+03  0.24351260544E+03  0.23863819916E+03  0.62249852880E+03  0.00000000000E+00 0.  1.
         15    1    3    3    0    0  0.12819639572E+03 -0.61438554994E+02 -0.54960428332E+02  0.15242315548E+03  0.17770000000E+01 0. -1.
        -16    1    3    3    0    0  0.67708881305E+03 -0.37796618825E+03 -0.91855279822E+02  0.78086176283E+03  0.00000000000E+00 0.  1.
          2    1    6    6  502    0 -0.73829961487E+02  0.91828911606E+02 -0.10513450703E+03  0.15791351047E+03  0.00000000000E+00 0. -1.
         -1    1    6    6    0  502 -0.72512443781E+02  0.15072320828E+02 -0.12930912179E+03  0.14901704042E+03  0.00000000000E+00 0.  1.
<mgrwt>
<rscale>  0 0.92437263E+03</rscale>
<asrwt>0</asrwt>
<pdfrwt beam="1">  1        1 0.14747299E+00 0.92437263E+03</pdfrwt>
<pdfrwt beam="2">  1       -2 0.16479480E+00 0.92437263E+03</pdfrwt>
<totfact> 0.33361663E+00</totfact>
</mgrwt>
</event>
<event>
12    3  0.1176505E-007  0.7337425E+03  0.7818608E-02  0.9661207E-01
          1   -1    0    0  501    0  0.00000000000E+00  0.00000000000E+00  0.46969147799E+03  0.46969147799E+03  0.00000000000E+00 0. -1.
         -2   -1    0    0    0  501 -0.00000000000E+00 -0.00000000000E+00 -0.12966030305E+04  0.12966030305E+04  0.00000000000E+00 0.  1.
        -24    2    1    2    0    0 -0.18068667606E+02  0.66149914042E+03 -0.32566050516E+03  0.74177049777E+03  0.79127221708E+02 0.  0.
    5000000    2    1    2    0    0  0.18068667606E+02 -0.66149914042E+03 -0.50125104731E+03  0.10245240107E+04  0.60040756700E+03 0.  0.
        -24    2    4    4    0    0 -0.29584900727E+02 -0.70421379752E+03 -0.24859304939E+03  0.75152159172E+03  0.78701077827E+02 0.  0.
         24    2    4    4    0    0  0.47653568333E+02  0.42714657105E+02 -0.25265799792E+03  0.27300241896E+03  0.81233320354E+02 0.  0.
         11    1    5    5    0    0 -0.23643124624E+02 -0.50131485164E+03 -0.21407218725E+03  0.54562118652E+03  0.00000000000E+00 0. -1.
        -12    1    5    5    0    0 -0.59417761028E+01 -0.20289894588E+03 -0.34520862135E+02  0.20590040521E+03  0.00000000000E+00 0.  1.
         15    1    3    3    0    0 -0.11427905621E+02  0.32879618270E+03 -0.20584273061E+03  0.38808750851E+03  0.17770000000E+01 0. -1.
        -16    1    3    3    0    0 -0.66407619848E+01  0.33270295772E+03 -0.11981777455E+03  0.35368298926E+03  0.00000000000E+00 0.  1.
          2    1    6    6  502    0  0.50470513411E+02 -0.70969498465E+01 -0.15776304983E+03  0.16579149348E+03  0.00000000000E+00 0. -1.
         -1    1    6    6    0  502 -0.28169450786E+01  0.49811606951E+02 -0.94894948098E+02  0.10721092547E+03  0.00000000000E+00 0.  1.
<mgrwt>
<rscale>  0 0.73374249E+03</rscale>
<asrwt>0</asrwt>
<pdfrwt beam="1">  1        1 0.72260229E-01 0.73374249E+03</pdfrwt>
<pdfrwt beam="2">  1       -2 0.19947739E+00 0.73374249E+03</pdfrwt>
<totfact> 0.58161616E+00</totfact>
</mgrwt>
</event>
<event>
12    3  0.1176505E-007  0.7745981E+03  0.7818608E-02  0.9597531E-01
         -2   -1    0    0    0  501 -0.00000000000E+00  0.00000000000E+00  0.53681795179E+03  0.53681795179E+03  0.00000000000E+00 0.  1.
          1   -1    0    0  501    0  0.00000000000E+00 -0.00000000000E+00 -0.19229264106E+04  0.19229264106E+04  0.00000000000E+00 0. -1.
        -24    2    1    2    0    0  0.18370014370E+03  0.74408849808E+03 -0.12616471400E+04  0.14783650928E+04  0.79977535181E+02 0.  0.
    5000000    2    1    2    0    0 -0.18370014370E+03 -0.74408849808E+03 -0.12446131881E+03  0.98137926953E+03  0.60016765575E+03 0.  0.
        -24    2    4    4    0    0 -0.17606864736E+02 -0.37929492245E+03 -0.34298014710E+03  0.51788959527E+03  0.79997573054E+02 0.  0.
         24    2    4    4    0    0 -0.16609327897E+03 -0.36479357563E+03  0.21851882829E+03  0.46348967427E+03  0.80067906764E+02 0.  0.
         13    1    5    5    0    0  0.45817490308E+00 -0.28029919675E+03 -0.20570712718E+03  0.34768271714E+03  0.00000000000E+00 0. -1.
        -14    1    5    5    0    0 -0.18065039639E+02 -0.98995725705E+02 -0.13727301992E+03  0.17020687813E+03  0.00000000000E+00 0.  1.
         15    1    3    3    0    0  0.52527030373E+02  0.19734768227E+03 -0.27179530017E+03  0.33997211583E+03  0.17770000000E+01 0. -1.
        -16    1    3    3    0    0  0.13117311333E+03  0.54674081581E+03 -0.98985183980E+03  0.11383929770E+04  0.00000000000E+00 0.  1.
          2    1    6    6  502    0 -0.68540750353E+02 -0.18398730298E+03  0.14944311655E+03  0.24674360620E+03  0.00000000000E+00 0. -1.
         -1    1    6    6    0  502 -0.97552528616E+02 -0.18080627265E+03  0.69075711741E+02  0.21674606807E+03  0.00000000000E+00 0.  1.
<mgrwt>
<rscale>  0 0.77459811E+03</rscale>
<asrwt>0</asrwt>
<pdfrwt beam="1">  1        1 0.29583483E+00 0.77459811E+03</pdfrwt>
<pdfrwt beam="2">  1       -2 0.82587378E-01 0.77459811E+03</pdfrwt>
<totfact> 0.39400037E+00</totfact>
</mgrwt>
</event>
<event>
12    3  0.1724854E-007  0.8940391E+03  0.7818608E-02  0.9433064E-01
         -2   -1    0    0    0  501 -0.00000000000E+00  0.00000000000E+00  0.38814249657E+03  0.38814249657E+03  0.00000000000E+00 0.  1.
          1   -1    0    0  501    0  0.00000000000E+00 -0.00000000000E+00 -0.21617766576E+04  0.21617766576E+04  0.00000000000E+00 0. -1.
        -24    2    1    2    0    0 -0.62782778941E+02 -0.80163848387E+03 -0.98310803278E+03  0.12726389182E+04  0.80885572353E+02 0.  0.
    5000000    2    1    2    0    0  0.62782778941E+02  0.80163848387E+03 -0.79052612830E+03  0.12772802360E+04  0.59995608646E+03 0.  0.
        -24    2    4    4    0    0 -0.22847842476E+03  0.51223282912E+03 -0.33196256150E+03  0.65643960901E+03  0.78287650523E+02 0.  0.
         24    2    4    4    0    0  0.29126120370E+03  0.28940565476E+03 -0.45856356679E+03  0.62084062702E+03  0.81079082285E+02 0.  0.
         11    1    5    5    0    0 -0.84590439632E+02  0.12355922014E+03 -0.11378419952E+03  0.18806718858E+03  0.00000000000E+00 0. -1.
        -12    1    5    5    0    0 -0.14388798513E+03  0.38867360898E+03 -0.21817836198E+03  0.46837242043E+03  0.00000000000E+00 0.  1.
         15    1    3    3    0    0 -0.71440174757E+02 -0.44816187062E+03 -0.57957337969E+03  0.73611223398E+03  0.17770000000E+01 0. -1.
        -16    1    3    3    0    0  0.86573958159E+01 -0.35347661326E+03 -0.40353465309E+03  0.53652668421E+03  0.00000000000E+00 0.  1.
          2    1    6    6  502    0  0.69270164933E+02  0.31225212167E+02 -0.10883930216E+03  0.13273794981E+03  0.00000000000E+00 0. -1.
         -1    1    6    6    0  502  0.22199103877E+03  0.25818044259E+03 -0.34972426463E+03  0.48810267721E+03  0.00000000000E+00 0.  1.
<mgrwt>
<rscale>  0 0.89403910E+03</rscale>
<asrwt>0</asrwt>
<pdfrwt beam="1">  1        1 0.33258102E+00 0.89403910E+03</pdfrwt>
<pdfrwt beam="2">  1       -2 0.59714232E-01 0.89403910E+03</pdfrwt>
<totfact> 0.54447784E+00</totfact>
</mgrwt>
</event>
<event>
12    3  0.1176505E-007  0.6724884E+03  0.7818608E-02  0.9765473E-01
          1   -1    0    0  501    0  0.00000000000E+00  0.00000000000E+00  0.22334799827E+04  0.22334799827E+04  0.00000000000E+00 0. -1.
         -2   -1    0    0    0  501 -0.00000000000E+00 -0.00000000000E+00 -0.26049591007E+03  0.26049591007E+03  0.00000000000E+00 0.  1.
        -24    2    1    2    0    0  0.57101488710E+03  0.29113005064E+03  0.77170885400E+03  0.10060647912E+04  0.76269922506E+02 0.  0.
    5000000    2    1    2    0    0 -0.57101488710E+03 -0.29113005064E+03  0.12012752186E+04  0.14879111016E+04  0.60000215633E+03 0.  0.
        -24    2    4    4    0    0 -0.55743647039E+03 -0.29704673873E+03  0.12430566208E+04  0.13961863731E+04  0.71933597886E+02 0.  0.
         24    2    4    4    0    0 -0.13578416711E+02  0.59166880867E+01 -0.41781402113E+02  0.91724728485E+02  0.80301679029E+02 0.  0.
         13    1    5    5    0    0 -0.11350016841E+03 -0.43378388240E+02  0.18940598305E+03  0.22503021843E+03  0.00000000000E+00 0. -1.
        -14    1    5    5    0    0 -0.44393630198E+03 -0.25366835049E+03  0.10536506377E+04  0.11711561547E+04  0.00000000000E+00 0.  1.
         15    1    3    3    0    0  0.20915625622E+03  0.10227811746E+03  0.33860039425E+03  0.41092643811E+03  0.17770000000E+01 0. -1.
        -16    1    3    3    0    0  0.36185863088E+03  0.18885193318E+03  0.43310845975E+03  0.59513835309E+03  0.00000000000E+00 0.  1.
          2    1    6    6  502    0  0.19990087731E+02 -0.20361022033E+02 -0.39899765793E+02  0.49052687348E+02  0.00000000000E+00 0. -1.
         -1    1    6    6    0  502 -0.33568504442E+02  0.26277710119E+02 -0.18816363202E+01  0.42672041137E+02  0.00000000000E+00 0.  1.
<mgrwt>
<rscale>  0 0.67248836E+03</rscale>
<asrwt>0</asrwt>
<pdfrwt beam="1">  1        1 0.34361229E+00 0.67248836E+03</pdfrwt>
<pdfrwt beam="2">  1       -2 0.40076295E-01 0.67248836E+03</pdfrwt>
<totfact> 0.11314899E+01</totfact>
</mgrwt>
</event>
<event>
12    3  0.1176505E-007  0.1011012E+04  0.7818608E-02  0.9296549E-01
          1   -1    0    0  501    0  0.00000000000E+00  0.00000000000E+00  0.11216900702E+04  0.11216900702E+04  0.00000000000E+00 0. -1.
         -2   -1    0    0    0  501 -0.00000000000E+00 -0.00000000000E+00 -0.21263802808E+04  0.21263802808E+04  0.00000000000E+00 0.  1.
        -24    2    1    2    0    0 -0.45432675581E+03 -0.88386356929E+03  0.67674788695E+03  0.12048102650E+04  0.77152199918E+02 0.  0.
    5000000    2    1    2    0    0  0.45432675581E+03  0.88386356929E+03 -0.16814380976E+04  0.20432600860E+04  0.60004174266E+03 0.  0.
        -24    2    4    4    0    0  0.89847683542E+02  0.40043862821E+03 -0.25140910112E+03  0.48803969039E+03  0.80947526641E+02 0.  0.
         24    2    4    4    0    0  0.36447907226E+03  0.48342494108E+03 -0.14300289965E+04  0.15552203956E+04  0.84751875881E+02 0.  0.
         13    1    5    5    0    0 -0.11552089645E+02  0.84522631514E+02 -0.66787437333E+02  0.10834245612E+03  0.00000000000E+00 0. -1.
        -14    1    5    5    0    0  0.10139977319E+03  0.31591599670E+03 -0.18462166379E+03  0.37969723427E+03  0.00000000000E+00 0.  1.
         15    1    3    3    0    0 -0.42692568517E+03 -0.77865868738E+03  0.60670662263E+03  0.10754863903E+04  0.17770000000E+01 0. -1.
        -16    1    3    3    0    0 -0.27401070632E+02 -0.10520488191E+03  0.70041264319E+02  0.12932387466E+03  0.00000000000E+00 0.  1.
          2    1    6    6  502    0  0.31501216377E+03  0.38034663690E+03 -0.10949118808E+04  0.12011362347E+04  0.00000000000E+00 0. -1.
         -3    1    6    6    0  502  0.49466908494E+02  0.10307830417E+03 -0.33511711562E+03  0.35408416091E+03  0.00000000000E+00 0.  1.
<mgrwt>
<rscale>  0 0.10110122E+04</rscale>
<asrwt>0</asrwt>
<pdfrwt beam="1">  1        1 0.17256770E+00 0.10110122E+04</pdfrwt>
<pdfrwt beam="2">  1       -2 0.32713542E+00 0.10110122E+04</pdfrwt>
<totfact> 0.23415629E-01</totfact>
</mgrwt>
</event>
<event>
12    3  0.1176505E-007  0.5961586E+03  0.7818608E-02  0.9913408E-01
         -2   -1    0    0    0  501 -0.00000000000E+00  0.00000000000E+00  0.29557846401E+03  0.29557846401E+03  0.00000000000E+00 0.  1.
          1   -1    0    0  501    0  0.00000000000E+00 -0.00000000000E+00 -0.14002065193E+04  0.14002065193E+04  0.00000000000E+00 0. -1.
        -24    2    1    2    0    0 -0.40983449593E+03  0.22946844856E+03 -0.21027467065E+03  0.52075823553E+03  0.79709596757E+02 0.  0.
    5000000    2    1    2    0    0  0.40983449593E+03 -0.22946844856E+03 -0.89435338461E+03  0.11750267477E+04  0.60016647559E+03 0.  0.
        -24    2    4    4    0    0  0.83847214069E+02 -0.34409768156E+03 -0.64773934746E+03  0.74302101982E+03  0.84145135845E+02 0.  0.
         24    2    4    4    0    0  0.32598728186E+03  0.11462923300E+03 -0.24661403715E+03  0.43200572792E+03  0.80018102017E+02 0.  0.
         13    1    5    5    0    0  0.54575191335E+02 -0.71950058352E+02 -0.15999320581E+03  0.18372013584E+03  0.00000000000E+00 0. -1.
        -14    1    5    5    0    0  0.29272022734E+02 -0.27214762321E+03 -0.48774614165E+03  0.55930088398E+03  0.00000000000E+00 0.  1.
         15    1    3    3    0    0 -0.14075294012E+03  0.45120677433E+02 -0.41645752429E+02  0.15357340951E+03  0.17770000000E+01 0. -1.
        -16    1    3    3    0    0 -0.26908155580E+03  0.18434777113E+03 -0.16862891822E+03  0.36718482601E+03  0.00000000000E+00 0.  1.
          2    1    6    6  502    0  0.12891696689E+03  0.55034328500E+01 -0.99717516744E+02  0.16307499891E+03  0.00000000000E+00 0. -1.
         -1    1    6    6    0  502  0.19707031497E+03  0.10912580015E+03 -0.14689652040E+03  0.26893072901E+03  0.00000000000E+00 0.  1.
<mgrwt>
<rscale>  0 0.59615859E+03</rscale>
<asrwt>0</asrwt>
<pdfrwt beam="1">  1        1 0.21541639E+00 0.59615859E+03</pdfrwt>
<pdfrwt beam="2">  1       -2 0.45473610E-01 0.59615859E+03</pdfrwt>
<totfact> 0.32350803E+01</totfact>
</mgrwt>
</event>
<event>
12    3  0.1176505E-007  0.4895847E+03  0.7818608E-02  0.1016534E+00
          1   -1    0    0  501    0  0.00000000000E+00  0.00000000000E+00  0.21269008878E+04  0.21269008878E+04  0.00000000000E+00 0. -1.
         -2   -1    0    0    0  501 -0.00000000000E+00 -0.00000000000E+00 -0.31297411013E+03  0.31297411013E+03  0.00000000000E+00 0.  1.
        -24    2    1    2    0    0 -0.22164038649E+03  0.42385253117E+03  0.15565712957E+04  0.16303004677E+04  0.78676470927E+02 0.  0.
    5000000    2    1    2    0    0  0.22164038649E+03 -0.42385253117E+03  0.25735548189E+03  0.80957453022E+03  0.60033627812E+03 0.  0.
        -24    2    4    4    0    0 -0.92864823088E+00 -0.10351904295E+03  0.37392170666E+03  0.39582816241E+03  0.78392836412E+02 0.  0.
         24    2    4    4    0    0  0.22256903472E+03 -0.32033348822E+03 -0.11656622477E+03  0.41374636782E+03  0.73809574128E+02 0.  0.
         13    1    5    5    0    0 -0.13488458490E+01 -0.10316505933E+03  0.23202055936E+03  0.25392595145E+03  0.00000000000E+00 0. -1.
        -14    1    5    5    0    0  0.42019761812E+00 -0.35398362346E+00  0.14190114730E+03  0.14190221096E+03  0.00000000000E+00 0.  1.
         15    1    3    3    0    0 -0.32582772438E+02  0.11866106572E+03  0.32702847946E+03  0.34941790121E+03  0.17770000000E+01 0. -1.
        -16    1    3    3    0    0 -0.18905761405E+03  0.30519146545E+03  0.12295428163E+04  0.12808825665E+04  0.00000000000E+00 0.  1.
          4    1    6    6  502    0  0.20324673593E+03 -0.25994537860E+03 -0.76431582525E+02  0.33870728118E+03  0.00000000000E+00 0. -1.
         -3    1    6    6    0  502  0.19322298790E+02 -0.60388109623E+02 -0.40134642247E+02  0.75039086633E+02  0.00000000000E+00 0.  1.
<mgrwt>
<rscale>  0 0.48958468E+03</rscale>
<asrwt>0</asrwt>
<pdfrwt beam="1">  1        1 0.32721551E+00 0.48958468E+03</pdfrwt>
<pdfrwt beam="2">  1       -2 0.48149864E-01 0.48958468E+03</pdfrwt>
<totfact> 0.96132404E+00</totfact>
</mgrwt>
</event>
<event>
12    3  0.1176505E-007  0.7028442E+03  0.7818608E-02  0.9712381E-01
          1   -1    0    0  501    0  0.00000000000E+00  0.00000000000E+00  0.81811850316E+03  0.81811850316E+03  0.00000000000E+00 0. -1.
         -2   -1    0    0    0  501 -0.00000000000E+00 -0.00000000000E+00 -0.67783535833E+03  0.67783535833E+03  0.00000000000E+00 0.  1.
        -24    2    1    2    0    0 -0.58330049685E+03  0.22823070168E+02 -0.15345060800E+03  0.60877452250E+03  0.79366038006E+02 0.  0.
    5000000    2    1    2    0    0  0.58330049685E+03 -0.22823070168E+02  0.29373375283E+03  0.88717933899E+03  0.60003941523E+03 0.  0.
        -24    2    4    4    0    0  0.57719914822E+03 -0.21382102804E+03  0.16287947667E+03  0.64222977292E+03  0.83970641075E+02 0.  0.
         24    2    4    4    0    0  0.61013486272E+01  0.19099795788E+03  0.13085427615E+03  0.24494956607E+03  0.79749620469E+02 0.  0.
         13    1    5    5    0    0  0.34284330775E+03 -0.11217800832E+03  0.13541711197E+03  0.38530926986E+03  0.00000000000E+00 0. -1.
        -14    1    5    5    0    0  0.23435584047E+03 -0.10164301972E+03  0.27462364701E+02  0.25692050306E+03  0.00000000000E+00 0.  1.
         15    1    3    3    0    0 -0.31961627434E+03  0.15620661141E+02 -0.12465532012E+03  0.34342491820E+03  0.17770000000E+01 0. -1.
        -16    1    3    3    0    0 -0.26368422251E+03  0.72024090267E+01 -0.28795287880E+02  0.26534960430E+03  0.00000000000E+00 0.  1.
          2    1    6    6  502    0  0.21856356959E+02  0.99867454658E+01  0.24961712443E+02  0.34648557150E+02  0.00000000000E+00 0. -1.
         -1    1    6    6    0  502 -0.15755008331E+02  0.18101121241E+03  0.10589256371E+03  0.21030100892E+03  0.00000000000E+00 0.  1.
<mgrwt>
<rscale>  0 0.70284416E+03</rscale>
<asrwt>0</asrwt>
<pdfrwt beam="1">  1        1 0.12586439E+00 0.70284416E+03</pdfrwt>
<pdfrwt beam="2">  1       -2 0.10428236E+00 0.70284416E+03</pdfrwt>
<totfact> 0.14336109E+01</totfact>
</mgrwt>
</event>
<event>
12    3  0.1176505E-007  0.5038779E+03  0.7818608E-02  0.1012772E+00
         -2   -1    0    0    0  501 -0.00000000000E+00  0.00000000000E+00  0.63913179924E+03  0.63913179924E+03  0.00000000000E+00 0.  1.
          1   -1    0    0  501    0  0.00000000000E+00 -0.00000000000E+00 -0.19843133203E+04  0.19843133203E+04  0.00000000000E+00 0. -1.
        -24    2    1    2    0    0 -0.28921327260E+03  0.23855871539E+03  0.51018810608E+03  0.63774509207E+03  0.76631071652E+02 0.  0.
    5000000    2    1    2    0    0  0.28921327260E+03 -0.23855871539E+03 -0.18553696271E+04  0.19857000274E+04  0.60004463842E+03 0.  0.
        -24    2    4    4    0    0 -0.36763649448E+02  0.12877975946E+03 -0.19283295925E+03  0.25024532200E+03  0.86616272390E+02 0.  0.
         24    2    4    4    0    0  0.32597692204E+03 -0.36733847484E+03 -0.16625366678E+04  0.17354547054E+04  0.81094721759E+02 0.  0.
         11    1    5    5    0    0 -0.13145481361E+02  0.88132137808E+02 -0.55234371543E+02  0.10483755622E+03  0.00000000000E+00 0. -1.
        -12    1    5    5    0    0 -0.23618168088E+02  0.40647621649E+02 -0.13759858770E+03  0.14540776578E+03  0.00000000000E+00 0.  1.
         15    1    3    3    0    0 -0.52982999860E+02  0.73694739876E+02  0.16331741968E+03  0.18685248262E+03  0.17770000000E+01 0. -1.
        -16    1    3    3    0    0 -0.23623027274E+03  0.16486397551E+03  0.34687068640E+03  0.45089260945E+03  0.00000000000E+00 0.  1.
          2    1    6    6  502    0  0.26560742842E+03 -0.32126094783E+03 -0.13055983341E+04  0.13705265093E+04  0.00000000000E+00 0. -1.
         -3    1    6    6    0  502  0.60369493620E+02 -0.46077527008E+02 -0.35693833372E+03  0.36492819613E+03  0.00000000000E+00 0.  1.
<mgrwt>
<rscale>  0 0.50387792E+03</rscale>
<asrwt>0</asrwt>
<pdfrwt beam="1">  1        1 0.30527896E+00 0.50387792E+03</pdfrwt>
<pdfrwt beam="2">  1       -2 0.98327972E-01 0.50387792E+03</pdfrwt>
<totfact> 0.25357597E+00</totfact>
</mgrwt>
</event>
<event>
12    3  0.1176505E-007  0.6246621E+03  0.7818608E-02  0.9855521E-01
         -4   -1    0    0    0  501 -0.00000000000E+00  0.00000000000E+00  0.61685903223E+03  0.61685903223E+03  0.00000000000E+00 0.  1.
          3   -1    0    0  501    0  0.00000000000E+00 -0.00000000000E+00 -0.83643043099E+03  0.83643043099E+03  0.00000000000E+00 0. -1.
        -24    2    1    2    0    0 -0.26403859373E+03  0.52258209550E+03 -0.16294779575E+03  0.61303113241E+03  0.80291715962E+02 0.  0.
    5000000    2    1    2    0    0  0.26403859373E+03 -0.52258209550E+03 -0.56623603011E+02  0.84025833081E+03  0.60001617025E+03 0.  0.
        -24    2    4    4    0    0  0.13691085679E+03 -0.50059389731E+03 -0.26080299278E+03  0.58603487163E+03  0.77973309430E+02 0.  0.
         24    2    4    4    0    0  0.12712773694E+03 -0.21988198190E+02  0.20417938977E+03  0.25422345919E+03  0.79343567056E+02 0.  0.
         11    1    5    5    0    0  0.14049146159E+03 -0.39948628296E+03 -0.20471333942E+03  0.47035592097E+03  0.00000000000E+00 0. -1.
        -12    1    5    5    0    0 -0.35806048020E+01 -0.10110761435E+03 -0.56089653365E+02  0.11567895066E+03  0.00000000000E+00 0.  1.
         15    1    3    3    0    0 -0.59851804352E+02  0.17211415253E+03 -0.21650839632E+02  0.18351413180E+03  0.17770000000E+01 0. -1.
        -16    1    3    3    0    0 -0.20418678938E+03  0.35046794297E+03 -0.14129695611E+03  0.42951700061E+03  0.00000000000E+00 0.  1.
          4    1    6    6  502    0  0.12357097553E+03 -0.95913216804E+01  0.20676718113E+03  0.24106938138E+03  0.00000000000E+00 0. -1.
         -3    1    6    6    0  502  0.35567614153E+01 -0.12396876509E+02 -0.25877913575E+01  0.13154077811E+02  0.00000000000E+00 0.  1.
<mgrwt>
<rscale>  0 0.62466209E+03</rscale>
<asrwt>0</asrwt>
<pdfrwt beam="1">  1        3 0.12868160E+00 0.62466209E+03</pdfrwt>
<pdfrwt beam="2">  1       -4 0.94901390E-01 0.62466209E+03</pdfrwt>
<totfact> 0.10075856E+00</totfact>
</mgrwt>
</event>
<event>
12    3  0.1176505E-007  0.8180485E+03  0.7818608E-02  0.9534254E-01
         -2   -1    0    0    0  501 -0.00000000000E+00  0.00000000000E+00  0.21367390637E+04  0.21367390637E+04  0.00000000000E+00 0.  1.
          1   -1    0    0  501    0  0.00000000000E+00 -0.00000000000E+00 -0.77387698282E+03  0.77387698282E+03  0.00000000000E+00 0. -1.
        -24    2    1    2    0    0  0.66665159639E+03  0.34881509317E+03  0.17240592763E+04  0.18827746267E+04  0.79772090423E+02 0.  0.
    5000000    2    1    2    0    0 -0.66665159639E+03 -0.34881509317E+03 -0.36119719542E+03  0.10278414199E+04  0.59991520252E+03 0.  0.
        -24    2    4    4    0    0 -0.95710274213E+02 -0.27310148887E+03  0.63676081242E+02  0.30719457451E+03  0.81049265699E+02 0.  0.
         24    2    4    4    0    0 -0.57094132218E+03 -0.75713604297E+02 -0.42487327667E+03  0.72064684536E+03  0.84309140948E+02 0.  0.
         13    1    5    5    0    0  0.14407749152E+02 -0.42541793993E+02  0.67018893747E+01  0.45412584081E+02  0.00000000000E+00 0. -1.
        -14    1    5    5    0    0 -0.11011802336E+03 -0.23055969488E+03  0.56974191867E+02  0.26178199043E+03  0.00000000000E+00 0.  1.
         15    1    3    3    0    0  0.55686298402E+02  0.42949787740E+02  0.21571191064E+03  0.22689300170E+03  0.17770000000E+01 0. -1.
        -16    1    3    3    0    0  0.61096529799E+03  0.30586530543E+03  0.15083473657E+04  0.16558816250E+04  0.00000000000E+00 0.  1.
          2    1    6    6  502    0 -0.32873289629E+03 -0.14429161135E+01 -0.24087584900E+03  0.40753965910E+03  0.00000000000E+00 0. -1.
         -1    1    6    6    0  502 -0.24220842589E+03 -0.74270688184E+02 -0.18399742767E+03  0.31310718626E+03  0.00000000000E+00 0.  1.
<mgrwt>
<rscale>  0 0.81804850E+03</rscale>
<asrwt>0</asrwt>
<pdfrwt beam="1">  1        1 0.11905800E+00 0.81804850E+03</pdfrwt>
<pdfrwt beam="2">  1       -2 0.32872908E+00 0.81804850E+03</pdfrwt>
<totfact> 0.45099172E-01</totfact>
</mgrwt>
</event>
<event>
12    3  0.1176505E-007  0.1135654E+04  0.7818608E-02  0.9171122E-01
          1   -1    0    0  501    0  0.00000000000E+00  0.00000000000E+00  0.21656604620E+04  0.21656604620E+04  0.00000000000E+00 0. -1.
         -2   -1    0    0    0  501 -0.00000000000E+00 -0.00000000000E+00 -0.70247255488E+03  0.70247255488E+03  0.00000000000E+00 0.  1.
        -24    2    1    2    0    0 -0.96119198988E+03 -0.45193249021E+03  0.15046283762E+03  0.10760430589E+04  0.84241213385E+02 0.  0.
    5000000    2    1    2    0    0  0.96119198988E+03  0.45193249021E+03  0.13127250695E+04  0.17920899580E+04  0.60017188554E+03 0.  0.
        -24    2    4    4    0    0  0.71188814557E+03  0.33204142291E+02  0.88125850590E+03  0.11361445591E+04  0.79502566209E+02 0.  0.
         24    2    4    4    0    0  0.24930384431E+03  0.41872834792E+03  0.43146656361E+03  0.65594539888E+03  0.81333478137E+02 0.  0.
         13    1    5    5    0    0  0.64234476362E+03  0.24620196211E+02  0.82742817871E+03  0.10477835370E+04  0.00000000000E+00 0. -1.
        -14    1    5    5    0    0  0.69543381952E+02  0.85839460805E+01  0.53830327186E+02  0.88361022112E+02  0.00000000000E+00 0.  1.
         15    1    3    3    0    0 -0.32501692515E+03 -0.19266304681E+03  0.71530081125E+02  0.38454487577E+03  0.17770000000E+01 0. -1.
        -16    1    3    3    0    0 -0.63617506472E+03 -0.25926944340E+03  0.78932756492E+02  0.69149818315E+03  0.00000000000E+00 0.  1.
          4    1    6    6  502    0  0.23085172159E+03  0.32844533375E+03  0.33965816892E+03  0.52586740376E+03  0.00000000000E+00 0. -1.
         -3    1    6    6    0  502  0.18452122721E+02  0.90283014171E+02  0.91808394683E+02  0.13007799512E+03  0.00000000000E+00 0.  1.
<mgrwt>
<rscale>  0 0.11356537E+04</rscale>
<asrwt>0</asrwt>
<pdfrwt beam="1">  1        1 0.33317853E+00 0.11356537E+04</pdfrwt>
<pdfrwt beam="2">  1       -2 0.10807270E+00 0.11356537E+04</pdfrwt>
<totfact> 0.13700956E+00</totfact>
</mgrwt>
</event>
<event>
12    3  0.1176505E-007  0.2023835E+04  0.7818608E-02  0.8595557E-01
         -2   -1    0    0    0  501 -0.00000000000E+00  0.00000000000E+00  0.24897232127E+04  0.24897232127E+04  0.00000000000E+00 0.  1.
          1   -1    0    0  501    0  0.00000000000E+00 -0.00000000000E+00 -0.26231438420E+04  0.26231438420E+04  0.00000000000E+00 0. -1.
        -24    2    1    2    0    0  0.15420793433E+04 -0.12408059219E+04 -0.16255479996E+04  0.25625497315E+04  0.81527849457E+02 0.  0.
    5000000    2    1    2    0    0 -0.15420793433E+04  0.12408059219E+04  0.14921273703E+04  0.25503173233E+04  0.60005526691E+03 0.  0.
        -24    2    4    4    0    0 -0.41630919460E+03  0.69623116114E+03  0.60854624360E+03  0.10170628828E+04  0.77699431276E+02 0.  0.
         24    2    4    4    0    0 -0.11257701487E+04  0.54457476078E+03  0.88358112667E+03  0.15332544405E+04  0.78952353760E+02 0.  0.
         13    1    5    5    0    0 -0.26500756326E+02  0.92877605092E+02  0.70497953757E+02  0.11957634004E+03  0.00000000000E+00 0. -1.
        -14    1    5    5    0    0 -0.38980843827E+03  0.60335355605E+03  0.53804828985E+03  0.89748654271E+03  0.00000000000E+00 0.  1.
         15    1    3    3    0    0  0.10581188726E+04 -0.81058751987E+03 -0.10664443472E+04  0.17070367247E+04  0.17770000000E+01 0. -1.
        -16    1    3    3    0    0  0.48396047068E+03 -0.43021840205E+03 -0.55910365236E+03  0.85551300675E+03  0.00000000000E+00 0.  1.
          2    1    6    6  502    0 -0.68506615105E+03  0.36696548837E+03  0.57393300456E+03  0.96611510427E+03  0.00000000000E+00 0. -1.
         -1    1    6    6    0  502 -0.44070399768E+03  0.17760927241E+03  0.30964812211E+03  0.56713933627E+03  0.00000000000E+00 0.  1.
<mgrwt>
<rscale>  0 0.20238354E+04</rscale>
<asrwt>0</asrwt>
<pdfrwt beam="1">  1        1 0.40356059E+00 0.20238354E+04</pdfrwt>
<pdfrwt beam="2">  1       -2 0.38303434E+00 0.20238354E+04</pdfrwt>
<totfact> 0.82065580E-03</totfact>
</mgrwt>
</event>
<event>
12    3  0.1176505E-007  0.7210868E+03  0.7818608E-02  0.9681835E-01
         -2   -1    0    0    0  501 -0.00000000000E+00  0.00000000000E+00  0.34340306539E+03  0.34340306539E+03  0.00000000000E+00 0.  1.
          1   -1    0    0  501    0  0.00000000000E+00 -0.00000000000E+00 -0.16307840133E+04  0.16307840133E+04  0.00000000000E+00 0. -1.
        -24    2    1    2    0    0  0.50330483706E+03 -0.33447594162E+03 -0.32825628950E+03  0.69140008302E+03  0.71358031586E+02 0.  0.
    5000000    2    1    2    0    0 -0.50330483706E+03  0.33447594162E+03 -0.95912465846E+03  0.12827869957E+04  0.60036026801E+03 0.  0.
        -24    2    4    4    0    0  0.11695844793E+03  0.10603356801E+03 -0.28191043471E+03  0.33305364359E+03  0.80801238989E+02 0.  0.
         24    2    4    4    0    0 -0.62026328499E+03  0.22844237361E+03 -0.67721422375E+03  0.94973335213E+03  0.80385785693E+02 0.  0.
         11    1    5    5    0    0  0.39649752520E+02 -0.11639566752E+01 -0.34573888904E+02  0.52619496995E+02  0.00000000000E+00 0. -1.
        -12    1    5    5    0    0  0.77308695410E+02  0.10719752469E+03 -0.24733654581E+03  0.28043414660E+03  0.00000000000E+00 0.  1.
         15    1    3    3    0    0  0.21498402297E+03 -0.12589137531E+03 -0.99009227501E+02  0.26809094235E+03  0.17770000000E+01 0. -1.
        -16    1    3    3    0    0  0.28832081409E+03 -0.20858456631E+03 -0.22924706200E+03  0.42330914067E+03  0.00000000000E+00 0.  1.
          2    1    6    6  502    0 -0.12029175610E+03  0.13224669493E+02 -0.13801974235E+03  0.18356047436E+03  0.00000000000E+00 0. -1.
         -1    1    6    6    0  502 -0.49997152889E+03  0.21521770412E+03 -0.53919448139E+03  0.76617287777E+03  0.00000000000E+00 0.  1.
<mgrwt>
<rscale>  0 0.72108681E+03</rscale>
<asrwt>0</asrwt>
<pdfrwt beam="1">  1        1 0.25088985E+00 0.72108681E+03</pdfrwt>
<pdfrwt beam="2">  1       -2 0.52831241E-01 0.72108681E+03</pdfrwt>
<totfact> 0.16351028E+01</totfact>
</mgrwt>
</event>
<event>
12    3  0.1176505E-007  0.4246643E+03  0.7818608E-02  0.1035559E+00
         -2   -1    0    0    0  501 -0.00000000000E+00  0.00000000000E+00  0.32652900818E+03  0.32652900818E+03  0.00000000000E+00 0.  1.
          1   -1    0    0  501    0  0.00000000000E+00 -0.00000000000E+00 -0.76819379467E+03  0.76819379467E+03  0.00000000000E+00 0. -1.
        -24    2    1    2    0    0  0.21612549070E+03  0.21467338292E+03 -0.22584336531E+03  0.38807738887E+03  0.82486029348E+02 0.  0.
    5000000    2    1    2    0    0 -0.21612549070E+03 -0.21467338292E+03 -0.21582142118E+03  0.70664541398E+03  0.59997830477E+03 0.  0.
        -24    2    4    4    0    0  0.68140452217E+02 -0.23110938694E+03 -0.30503841439E+03  0.39659425021E+03  0.78637745934E+02 0.  0.
         24    2    4    4    0    0 -0.28426594292E+03  0.16436004020E+02  0.89216993214E+02  0.31005116377E+03  0.84230539264E+02 0.  0.
         13    1    5    5    0    0  0.78743436326E+02 -0.19194494768E+03 -0.22013708037E+03  0.30249582784E+03  0.00000000000E+00 0. -1.
        -14    1    5    5    0    0 -0.10602984110E+02 -0.39164439253E+02 -0.84901334019E+02  0.94098422368E+02  0.00000000000E+00 0.  1.
         15    1    3    3    0    0  0.14607294718E+03  0.12376811536E+03 -0.18505608972E+03  0.26627948916E+03  0.17770000000E+01 0. -1.
        -16    1    3    3    0    0  0.70052543524E+02  0.90905267561E+02 -0.40787275585E+02  0.12179789971E+03  0.00000000000E+00 0.  1.
          4    1    6    6  502    0 -0.26865920784E+03  0.34856892522E+02  0.91141374876E+02  0.28583128437E+03  0.00000000000E+00 0. -1.
         -3    1    6    6    0  502 -0.15606735079E+02 -0.18420888502E+02 -0.19243816626E+01  0.24219879393E+02  0.00000000000E+00 0.  1.
<mgrwt>
<rscale>  0 0.42466431E+03</rscale>
<asrwt>0</asrwt>
<pdfrwt beam="1">  1        1 0.11818366E+00 0.42466431E+03</pdfrwt>
<pdfrwt beam="2">  1       -2 0.50235233E-01 0.42466431E+03</pdfrwt>
<totfact> 0.81214057E+01</totfact>
</mgrwt>
</event>
<event>
12    3  0.1176505E-007  0.1635431E+04  0.7818608E-02  0.8799072E-01
         -2   -1    0    0    0  501 -0.00000000000E+00  0.00000000000E+00  0.11303173303E+04  0.11303173303E+04  0.00000000000E+00 0.  1.
          1   -1    0    0  501    0  0.00000000000E+00 -0.00000000000E+00 -0.24110773778E+04  0.24110773778E+04  0.00000000000E+00 0. -1.
        -24    2    1    2    0    0 -0.92217265265E+03  0.13006105973E+04 -0.55550139251E+03  0.16897985866E+04  0.69621397643E+02 0.  0.
    5000000    2    1    2    0    0  0.92217265265E+03 -0.13006105973E+04 -0.72525865503E+03  0.18515961215E+04  0.60034802683E+03 0.  0.
        -24    2    4    4    0    0  0.62586838762E+03 -0.11994369772E+04 -0.70594414758E+03  0.15280056478E+04  0.77998842544E+02 0.  0.
         24    2    4    4    0    0  0.29630426503E+03 -0.10117362019E+03 -0.19314507452E+02  0.32359047372E+03  0.79406709943E+02 0.  0.
         13    1    5    5    0    0  0.30270345202E+03 -0.56133995711E+03 -0.37561128667E+03  0.74014577348E+03  0.00000000000E+00 0. -1.
        -14    1    5    5    0    0  0.32316493560E+03 -0.63809702004E+03 -0.33033286091E+03  0.78785987433E+03  0.00000000000E+00 0.  1.
         15    1    3    3    0    0 -0.29171621733E+03  0.46463090540E+03 -0.20373681530E+03  0.58522822672E+03  0.17770000000E+01 0. -1.
        -16    1    3    3    0    0 -0.63045643532E+03  0.83597969195E+03 -0.35176457721E+03  0.11045703599E+04  0.00000000000E+00 0.  1.
          2    1    6    6  502    0  0.28850039247E+03 -0.11143201094E+03 -0.23163083150E+02  0.31013883656E+03  0.00000000000E+00 0. -1.
         -1    1    6    6    0  502  0.78038725603E+01  0.10258390741E+02  0.38485756979E+01  0.13451637166E+02  0.00000000000E+00 0.  1.
<mgrwt>
<rscale>  0 0.16354314E+04</rscale>
<asrwt>0</asrwt>
<pdfrwt beam="1">  1        1 0.37093498E+00 0.16354314E+04</pdfrwt>
<pdfrwt beam="2">  1       -2 0.17389498E+00 0.16354314E+04</pdfrwt>
<totfact> 0.25486218E-01</totfact>
</mgrwt>
</event>
<event>
12    3  0.1176505E-007  0.8337875E+03  0.7818608E-02  0.9512359E-01
         -2   -1    0    0    0  501 -0.00000000000E+00  0.00000000000E+00  0.84277733552E+03  0.84277733552E+03  0.00000000000E+00 0.  1.
          1   -1    0    0  501    0  0.00000000000E+00 -0.00000000000E+00 -0.10786325520E+04  0.10786325520E+04  0.00000000000E+00 0. -1.
        -24    2    1    2    0    0  0.71868766951E+03 -0.20941580434E+03 -0.52657453124E+03  0.91870988475E+03  0.79875966235E+02 0.  0.
    5000000    2    1    2    0    0 -0.71868766951E+03  0.20941580434E+03  0.29071931475E+03  0.10027000028E+04  0.60043536720E+03 0.  0.
        -24    2    4    4    0    0 -0.68351458649E+03 -0.91587478927E+01  0.89700391461E+02  0.69317527177E+03  0.71900796614E+02 0.  0.
         24    2    4    4    0    0 -0.35173083019E+02  0.21857455224E+03  0.20101892329E+03  0.30952473101E+03  0.79906013110E+02 0.  0.
         11    1    5    5    0    0 -0.44058375088E+03  0.24822045412E+02  0.41918708838E+02  0.44326894052E+03  0.00000000000E+00 0. -1.
        -12    1    5    5    0    0 -0.24293083561E+03 -0.33980793304E+02  0.47781682624E+02  0.24990633124E+03  0.00000000000E+00 0.  1.
         15    1    3    3    0    0  0.38282681335E+03 -0.88341265258E+02 -0.31613750264E+03  0.50428823749E+03  0.17770000000E+01 0. -1.
        -16    1    3    3    0    0  0.33586085615E+03 -0.12107453909E+03 -0.21043702859E+03  0.41442164726E+03  0.00000000000E+00 0.  1.
          2    1    6    6  502    0 -0.96394014211E+01  0.19816530657E+03  0.14912926842E+03  0.24819739218E+03  0.00000000000E+00 0. -1.
         -1    1    6    6    0  502 -0.25533681598E+02  0.20409245665E+02  0.51889654872E+02  0.61327338825E+02  0.00000000000E+00 0.  1.
<mgrwt>
<rscale>  0 0.83378751E+03</rscale>
<asrwt>0</asrwt>
<pdfrwt beam="1">  1        1 0.16594347E+00 0.83378751E+03</pdfrwt>
<pdfrwt beam="2">  1       -2 0.12965805E+00 0.83378751E+03</pdfrwt>
<totfact> 0.51215679E+00</totfact>
</mgrwt>
</event>
<event>
12    3  0.1176505E-007  0.8523207E+03  0.7818608E-02  0.9487227E-01
          1   -1    0    0  501    0  0.00000000000E+00  0.00000000000E+00  0.16489026109E+04  0.16489026109E+04  0.00000000000E+00 0. -1.
         -2   -1    0    0    0  501 -0.00000000000E+00 -0.00000000000E+00 -0.45677052391E+03  0.45677052391E+03  0.00000000000E+00 0.  1.
        -24    2    1    2    0    0  0.65633345736E+03  0.38132376855E+03  0.60231179304E+03  0.97240549277E+03  0.81311269936E+02 0.  0.
    5000000    2    1    2    0    0 -0.65633345736E+03 -0.38132376855E+03  0.58982029392E+03  0.11332676420E+04  0.60018842506E+03 0.  0.
        -24    2    4    4    0    0 -0.26011895754E+02 -0.29514797106E+03  0.30180512591E+03  0.43043313632E+03  0.79983793838E+02 0.  0.
         24    2    4    4    0    0 -0.63032156161E+03 -0.86175797489E+02  0.28801516801E+03  0.70283450568E+03  0.79322545795E+02 0.  0.
         13    1    5    5    0    0 -0.48290784310E+02 -0.24172546386E+03  0.22120154773E+03  0.33119982555E+03  0.00000000000E+00 0. -1.
        -14    1    5    5    0    0  0.22278888556E+02 -0.53422507200E+02  0.80603578181E+02  0.99233310770E+02  0.00000000000E+00 0.  1.
         15    1    3    3    0    0  0.71658485875E+02  0.52404642901E+02  0.10390584801E+03  0.13667760671E+03  0.17770000000E+01 0. -1.
        -16    1    3    3    0    0  0.58467497149E+03  0.32891912565E+03  0.49840594503E+03  0.83572788606E+03  0.00000000000E+00 0.  1.
          4    1    6    6  502    0 -0.29778550174E+03 -0.78654810760E+02  0.12472488240E+03  0.33229366619E+03  0.00000000000E+00 0. -1.
         -3    1    6    6    0  502 -0.33253605987E+03 -0.75209867289E+01  0.16329028561E+03  0.37054083949E+03  0.00000000000E+00 0.  1.
<mgrwt>
<rscale>  0 0.85232073E+03</rscale>
<asrwt>0</asrwt>
<pdfrwt beam="1">  1        1 0.25367732E+00 0.85232073E+03</pdfrwt>
<pdfrwt beam="2">  1       -2 0.70272389E-01 0.85232073E+03</pdfrwt>
<totfact> 0.85341125E+00</totfact>
</mgrwt>
</event>
<event>
12    3  0.1176505E-007  0.1439810E+04  0.7818608E-02  0.8925496E-01
         -2   -1    0    0    0  501 -0.00000000000E+00  0.00000000000E+00  0.13568138887E+04  0.13568138887E+04  0.00000000000E+00 0.  1.
          1   -1    0    0  501    0  0.00000000000E+00 -0.00000000000E+00 -0.16781973816E+04  0.16781973816E+04  0.00000000000E+00 0. -1.
        -24    2    1    2    0    0  0.77696365907E+03 -0.11706801051E+04  0.19900796656E+03  0.14212733782E+04  0.79053202614E+02 0.  0.
    5000000    2    1    2    0    0 -0.77696365907E+03  0.11706801051E+04 -0.52039145941E+03  0.16137378921E+04  0.59931484013E+03 0.  0.
        -24    2    4    4    0    0 -0.77366491976E+03  0.88246792564E+03 -0.23197887021E+03  0.11988762649E+04  0.78632401474E+02 0.  0.
         24    2    4    4    0    0 -0.32987393081E+01  0.28821217941E+03 -0.28841258920E+03  0.41486162719E+03  0.76493176578E+02 0.  0.
         11    1    5    5    0    0 -0.24504807417E+03  0.33405680130E+03 -0.92777390428E+02  0.42455877017E+03  0.00000000000E+00 0. -1.
        -12    1    5    5    0    0 -0.52861684559E+03  0.54841112434E+03 -0.13920147978E+03  0.77431749478E+03  0.00000000000E+00 0.  1.
         15    1    3    3    0    0  0.70085326896E+03 -0.10085706153E+04  0.17544027660E+03  0.12406419464E+04  0.17770000000E+01 0. -1.
        -16    1    3    3    0    0  0.76110390104E+02 -0.16210948971E+03  0.23567689964E+02  0.18063143178E+03  0.00000000000E+00 0.  1.
          2    1    6    6  502    0 -0.35681916430E+02  0.17520549176E+03 -0.15105289824E+03  0.23406653235E+03  0.00000000000E+00 0. -1.
         -1    1    6    6    0  502  0.32383177122E+02  0.11300668765E+03 -0.13735969097E+03  0.18079509484E+03  0.00000000000E+00 0.  1.
<mgrwt>
<rscale>  0 0.14398096E+04</rscale>
<asrwt>0</asrwt>
<pdfrwt beam="1">  1        1 0.25818421E+00 0.14398096E+04</pdfrwt>
<pdfrwt beam="2">  1       -2 0.20874060E+00 0.14398096E+04</pdfrwt>
<totfact> 0.47849991E-01</totfact>
</mgrwt>
</event>
<event>
12    3  0.1176505E-007  0.1186642E+04  0.7818608E-02  0.9124630E-01
         -2   -1    0    0    0  501 -0.00000000000E+00  0.00000000000E+00  0.14721018302E+04  0.14721018302E+04  0.00000000000E+00 0.  1.
          1   -1    0    0  501    0  0.00000000000E+00 -0.00000000000E+00 -0.10347596621E+04  0.10347596621E+04  0.00000000000E+00 0. -1.
        -24    2    1    2    0    0  0.77831877618E+03 -0.85946983598E+03  0.23393187585E+03  0.11854232544E+04  0.77689465870E+02 0.  0.
    5000000    2    1    2    0    0 -0.77831877618E+03  0.85946983598E+03  0.20341029220E+03  0.13214382379E+04  0.60029555497E+03 0.  0.
        -24    2    4    4    0    0 -0.38406234506E+03  0.18833945844E+03 -0.15266686477E+03  0.46119813415E+03  0.80130586202E+02 0.  0.
         24    2    4    4    0    0 -0.39425643112E+03  0.67113037754E+03  0.35607715697E+03  0.86024010376E+03  0.85836922474E+02 0.  0.
         11    1    5    5    0    0 -0.16584637384E+03  0.49343587598E+02 -0.33043502470E+02  0.17615811764E+03  0.00000000000E+00 0. -1.
        -12    1    5    5    0    0 -0.21821597122E+03  0.13899587084E+03 -0.11962336230E+03  0.28504001652E+03  0.00000000000E+00 0.  1.
         15    1    3    3    0    0  0.13728304626E+03 -0.14795792237E+03  0.11110089438E+02  0.20215037323E+03  0.17770000000E+01 0. -1.
        -16    1    3    3    0    0  0.64103572993E+03 -0.71151191361E+03  0.22282178641E+03  0.98327288113E+03  0.00000000000E+00 0.  1.
          2    1    6    6  502    0 -0.81433730160E+02  0.85673311400E+02  0.70471138640E+02  0.13761377139E+03  0.00000000000E+00 0. -1.
         -1    1    6    6    0  502 -0.31282270096E+03  0.58545706614E+03  0.28560601833E+03  0.72262633237E+03  0.00000000000E+00 0.  1.
<mgrwt>
<rscale>  0 0.11866421E+04</rscale>
<asrwt>0</asrwt>
<pdfrwt beam="1">  1        1 0.15919379E+00 0.11866421E+04</pdfrwt>
<pdfrwt beam="2">  1       -2 0.22647721E+00 0.11866421E+04</pdfrwt>
<totfact> 0.10957718E+00</totfact>
</mgrwt>
</event>
<event>
12    3  0.1176505E-007  0.1085075E+04  0.7818608E-02  0.9219862E-01
          1   -1    0    0  501    0  0.00000000000E+00  0.00000000000E+00  0.17807819473E+04  0.17807819473E+04  0.00000000000E+00 0. -1.
         -2   -1    0    0    0  501 -0.00000000000E+00 -0.00000000000E+00 -0.82283590018E+03  0.82283590018E+03  0.00000000000E+00 0.  1.
        -24    2    1    2    0    0  0.76638044154E+03 -0.66330167153E+03 -0.98564751614E+02  0.10215152532E+04  0.80438259864E+02 0.  0.
    5000000    2    1    2    0    0 -0.76638044154E+03  0.66330167153E+03  0.10565107987E+04  0.15821025943E+04  0.59960442153E+03 0.  0.
        -24    2    4    4    0    0  0.82292404540E+02  0.80784311424E+02  0.11212911516E+03  0.18245463840E+03  0.86131363564E+02 0.  0.
         24    2    4    4    0    0 -0.84867284608E+03  0.58251736011E+03  0.94438168355E+03  0.13996479559E+04  0.87095129571E+02 0.  0.
         11    1    5    5    0    0  0.44585542385E+02  0.66704484271E+02  0.21156453800E+02  0.82975625030E+02  0.00000000000E+00 0. -1.
        -12    1    5    5    0    0  0.37706862155E+02  0.14079827153E+02  0.90972661356E+02  0.99479013367E+02  0.00000000000E+00 0.  1.
         15    1    3    3    0    0  0.12863688061E+03 -0.74247090723E+02 -0.18043882761E+02  0.14962893092E+03  0.17770000000E+01 0. -1.
        -16    1    3    3    0    0  0.63774356093E+03 -0.58905458081E+03 -0.80520868854E+02  0.87188632229E+03  0.00000000000E+00 0.  1.
          4    1    6    6  502    0 -0.46242694636E+03  0.36920528153E+03  0.53333981816E+03  0.79661947143E+03  0.00000000000E+00 0. -1.
         -3    1    6    6    0  502 -0.38624589972E+03  0.21331207857E+03  0.41104186539E+03  0.60302848442E+03  0.00000000000E+00 0.  1.
<mgrwt>
<rscale>  0 0.10850753E+04</rscale>
<asrwt>0</asrwt>
<pdfrwt beam="1">  1        1 0.27396645E+00 0.10850753E+04</pdfrwt>
<pdfrwt beam="2">  1       -2 0.12659014E+00 0.10850753E+04</pdfrwt>
<totfact> 0.16959907E+00</totfact>
</mgrwt>
</event>
<event>
12    3  0.1176505E-007  0.6177932E+03  0.7818608E-02  0.9869163E-01
         -2   -1    0    0    0  501 -0.00000000000E+00  0.00000000000E+00  0.27623914385E+03  0.27623914385E+03  0.00000000000E+00 0.  1.
          1   -1    0    0  501    0  0.00000000000E+00 -0.00000000000E+00 -0.21322139844E+04  0.21322139844E+04  0.00000000000E+00 0. -1.
        -24    2    1    2    0    0  0.37468255228E+03 -0.47758374648E+03 -0.43600054953E+03  0.75165207940E+03  0.80069466023E+02 0.  0.
    5000000    2    1    2    0    0 -0.37468255228E+03  0.47758374648E+03 -0.14199742910E+04  0.16568010489E+04  0.60015787792E+03 0.  0.
        -24    2    4    4    0    0 -0.28966245157E+03  0.44208367526E+03 -0.14366179365E+04  0.15327478234E+04  0.78118391222E+02 0.  0.
         24    2    4    4    0    0 -0.85020100713E+02  0.35500071216E+02  0.16643645458E+02  0.12405322541E+03  0.81385006113E+02 0.  0.
         11    1    5    5    0    0 -0.14463569816E+03  0.25213021890E+03 -0.68717918820E+03  0.74612624210E+03  0.00000000000E+00 0. -1.
        -12    1    5    5    0    0 -0.14502675341E+03  0.18995345636E+03 -0.74943874830E+03  0.78662158134E+03  0.00000000000E+00 0.  1.
         15    1    3    3    0    0  0.27273151318E+01 -0.24982928101E+02 -0.28453607631E+02  0.38004611043E+02  0.17770000000E+01 0. -1.
        -16    1    3    3    0    0  0.37195523715E+03 -0.45260081838E+03 -0.40754694190E+03  0.71364746836E+03  0.00000000000E+00 0.  1.
          2    1    6    6  502    0 -0.68183998027E+02  0.17787744069E+02 -0.25830237078E+02  0.75051066439E+02  0.00000000000E+00 0. -1.
         -1    1    6    6    0  502 -0.16836102686E+02  0.17712327147E+02  0.42473882536E+02  0.49002158976E+02  0.00000000000E+00 0.  1.
<mgrwt>
<rscale>  0 0.61779318E+03</rscale>
<asrwt>0</asrwt>
<pdfrwt beam="1">  1        1 0.32803292E+00 0.61779318E+03</pdfrwt>
<pdfrwt beam="2">  1       -2 0.42498330E-01 0.61779318E+03</pdfrwt>
<totfact> 0.11901068E+01</totfact>
</mgrwt>
</event>
<event>
12    3  0.1176505E-007  0.8722797E+03  0.7818608E-02  0.9460912E-01
         -2   -1    0    0    0  501 -0.00000000000E+00  0.00000000000E+00  0.33251110446E+04  0.33251110446E+04  0.00000000000E+00 0.  1.
          1   -1    0    0  501    0  0.00000000000E+00 -0.00000000000E+00 -0.32724482504E+03  0.32724482504E+03  0.00000000000E+00 0. -1.
        -24    2    1    2    0    0 -0.74309630042E+03  0.37607547037E+03  0.55914616333E+03  0.10064144647E+04  0.81245132959E+02 0.  0.
    5000000    2    1    2    0    0  0.74309630042E+03 -0.37607547037E+03  0.24387200562E+04  0.26459414050E+04  0.60002127863E+03 0.  0.
        -24    2    4    4    0    0  0.18355358409E+03  0.52598785397E+02  0.17304637656E+03  0.27177871940E+03  0.86371716556E+02 0.  0.
         24    2    4    4    0    0  0.55954271633E+03 -0.42867425576E+03  0.22656736797E+04  0.23741626856E+04  0.80756212646E+02 0.  0.
         13    1    5    5    0    0  0.12958519194E+03  0.63867858629E+01  0.72387158977E+02  0.14856989530E+03  0.00000000000E+00 0. -1.
        -14    1    5    5    0    0  0.53968392144E+02  0.46211999534E+02  0.10065921758E+03  0.12320882410E+03  0.00000000000E+00 0.  1.
         15    1    3    3    0    0 -0.52824459996E+03  0.29191260256E+03  0.43860662187E+03  0.74607925276E+03  0.17770000000E+01 0. -1.
        -16    1    3    3    0    0 -0.21485170045E+03  0.84162867803E+02  0.12053954146E+03  0.26033521191E+03  0.00000000000E+00 0.  1.
          4    1    6    6  502    0  0.20504558914E+03 -0.20709285820E+03  0.92576191135E+03  0.97054946399E+03  0.00000000000E+00 0. -1.
         -3    1    6    6    0  502  0.35449712719E+03 -0.22158139756E+03  0.13399117683E+04  0.14036132216E+04  0.00000000000E+00 0.  1.
<mgrwt>
<rscale>  0 0.87227969E+03</rscale>
<asrwt>0</asrwt>
<pdfrwt beam="1">  1        1 0.50345360E-01 0.87227969E+03</pdfrwt>
<pdfrwt beam="2">  1       -2 0.51155552E+00 0.87227969E+03</pdfrwt>
<totfact> 0.99174748E-02</totfact>
</mgrwt>
</event>
<event>
12    3  0.1176505E-007  0.4742055E+03  0.7818608E-02  0.1020740E+00
          1   -1    0    0  501    0  0.00000000000E+00  0.00000000000E+00  0.10194343698E+04  0.10194343698E+04  0.00000000000E+00 0. -1.
         -2   -1    0    0    0  501 -0.00000000000E+00 -0.00000000000E+00 -0.31552078543E+03  0.31552078543E+03  0.00000000000E+00 0.  1.
        -24    2    1    2    0    0  0.16470225652E+03 -0.36507114990E+03  0.19861652668E+03  0.45431090723E+03  0.80907959835E+02 0.  0.
    5000000    2    1    2    0    0 -0.16470225652E+03  0.36507114990E+03  0.50529705771E+03  0.88064424803E+03  0.59983780913E+03 0.  0.
        -24    2    4    4    0    0 -0.23628396072E+03  0.38071453056E+03  0.10695677536E+03  0.46727828419E+03  0.78329938144E+02 0.  0.
         24    2    4    4    0    0  0.71581704198E+02 -0.15643380658E+02  0.39834028235E+03  0.41336596384E+03  0.82630404728E+02 0.  0.
         13    1    5    5    0    0 -0.77121288848E+02  0.10087691226E+03  0.64913596469E+02  0.14261002639E+03  0.00000000000E+00 0. -1.
        -14    1    5    5    0    0 -0.15916267187E+03  0.27983761829E+03  0.42043178893E+02  0.32466825780E+03  0.00000000000E+00 0.  1.
         15    1    3    3    0    0  0.18818079759E+02 -0.94843797433E+02  0.19030549859E+02  0.98563611918E+02  0.17770000000E+01 0. -1.
        -16    1    3    3    0    0  0.14588417676E+03 -0.27022735246E+03  0.17958597682E+03  0.35574729531E+03  0.00000000000E+00 0.  1.
          2    1    6    6  502    0  0.72788020913E+02  0.69060014570E+01  0.18641057487E+03  0.20023658823E+03  0.00000000000E+00 0. -1.
         -1    1    6    6    0  502 -0.12063167153E+01 -0.22549382115E+02  0.21192970748E+03  0.21312937561E+03  0.00000000000E+00 0.  1.
<mgrwt>
<rscale>  0 0.47420548E+03</rscale>
<asrwt>0</asrwt>
<pdfrwt beam="1">  1        1 0.15683606E+00 0.47420548E+03</pdfrwt>
<pdfrwt beam="2">  1       -2 0.48541660E-01 0.47420548E+03</pdfrwt>
<totfact> 0.54187654E+01</totfact>
</mgrwt>
</event>
<event>
12    3  0.1176505E-007  0.4624366E+03  0.7818608E-02  0.1024077E+00
         -2   -1    0    0    0  501 -0.00000000000E+00  0.00000000000E+00  0.18544096766E+04  0.18544096766E+04  0.00000000000E+00 0.  1.
          1   -1    0    0  501    0  0.00000000000E+00 -0.00000000000E+00 -0.14227866511E+03  0.14227866511E+03  0.00000000000E+00 0. -1.
        -24    2    1    2    0    0 -0.44356606949E+02  0.26080525221E+03  0.17959650009E+03  0.32970728627E+03  0.80405868032E+02 0.  0.
    5000000    2    1    2    0    0  0.44356606949E+02 -0.26080525221E+03  0.15325345114E+04  0.16669810554E+04  0.60014741721E+03 0.  0.
        -24    2    4    4    0    0  0.30033031796E+03 -0.57754064072E+02  0.82694943321E+03  0.88534628161E+03  0.80366917716E+02 0.  0.
         24    2    4    4    0    0 -0.25597371101E+03 -0.20305118814E+03  0.70558507816E+03  0.78163477380E+03  0.79688715368E+02 0.  0.
         11    1    5    5    0    0  0.11203367920E+03  0.13039653871E+02  0.34948261876E+03  0.36723245862E+03  0.00000000000E+00 0. -1.
        -12    1    5    5    0    0  0.18829663876E+03 -0.70793717943E+02  0.47746681445E+03  0.51811382299E+03  0.00000000000E+00 0.  1.
         15    1    3    3    0    0  0.58695025976E+01  0.17572991714E+03  0.13302027492E+03  0.22048357333E+03  0.17770000000E+01 0. -1.
        -16    1    3    3    0    0 -0.50226109546E+02  0.85075335076E+02  0.46576225167E+02  0.10922371294E+03  0.00000000000E+00 0.  1.
          2    1    6    6  502    0 -0.56824464899E+02 -0.92363751464E+02  0.22345917079E+03  0.24838293703E+03  0.00000000000E+00 0. -1.
         -1    1    6    6    0  502 -0.19914924612E+03 -0.11068743668E+03  0.48212590737E+03  0.53325183677E+03  0.00000000000E+00 0.  1.
<mgrwt>
<rscale>  0 0.46243664E+03</rscale>
<asrwt>0</asrwt>
<pdfrwt beam="1">  1        1 0.21889027E-01 0.46243664E+03</pdfrwt>
<pdfrwt beam="2">  1       -2 0.28529378E+00 0.46243664E+03</pdfrwt>
<totfact> 0.85549199E+00</totfact>
</mgrwt>
</event>
<event>
12    3  0.1176505E-007  0.1555661E+04  0.7818608E-02  0.8848260E-01
          1   -1    0    0  501    0  0.00000000000E+00  0.00000000000E+00  0.15824451102E+04  0.15824451102E+04  0.00000000000E+00 0. -1.
         -2   -1    0    0    0  501 -0.00000000000E+00 -0.00000000000E+00 -0.16713944297E+04  0.16713944297E+04  0.00000000000E+00 0.  1.
        -24    2    1    2    0    0 -0.89758879910E+03 -0.12054392105E+04  0.41120161000E+03  0.15601042253E+04  0.78032602828E+02 0.  0.
    5000000    2    1    2    0    0  0.89758879910E+03  0.12054392105E+04 -0.50015092957E+03  0.16937353146E+04  0.59986583593E+03 0.  0.
        -24    2    4    4    0    0  0.31461600428E+03  0.61764591249E+02 -0.13251738380E+03  0.35608333568E+03  0.80227115463E+02 0.  0.
         24    2    4    4    0    0  0.58297279482E+03  0.11436746193E+04 -0.36763354577E+03  0.13376519790E+04  0.79432225946E+02 0.  0.
         11    1    5    5    0    0  0.72760783844E+02  0.91467234738E+01 -0.68675788911E+02  0.10046968796E+03  0.00000000000E+00 0. -1.
        -12    1    5    5    0    0  0.24185522044E+03  0.52617867776E+02 -0.63841594890E+02  0.25561364772E+03  0.00000000000E+00 0.  1.
         15    1    3    3    0    0 -0.75158800530E+03 -0.10509109597E+04  0.36445013261E+03  0.13424326545E+04  0.17770000000E+01 0. -1.
        -16    1    3    3    0    0 -0.14600079380E+03 -0.15452825085E+03  0.46751477393E+02  0.21767157081E+03  0.00000000000E+00 0.  1.
          4    1    6    6  502    0  0.27921119776E+03  0.63000249922E+03 -0.21073306418E+03  0.72060423695E+03  0.00000000000E+00 0. -1.
         -3    1    6    6    0  502  0.30376159706E+03  0.51367212008E+03 -0.15690048159E+03  0.61704774201E+03  0.00000000000E+00 0.  1.
<mgrwt>
<rscale>  0 0.15556606E+04</rscale>
<asrwt>0</asrwt>
<pdfrwt beam="1">  1        1 0.24345309E+00 0.15556606E+04</pdfrwt>
<pdfrwt beam="2">  1       -2 0.25713760E+00 0.15556606E+04</pdfrwt>
<totfact> 0.27362260E-01</totfact>
</mgrwt>
</event>
<event>
12    3  0.1176505E-007  0.4322652E+03  0.7818608E-02  0.1033147E+00
         -2   -1    0    0    0  501 -0.00000000000E+00  0.00000000000E+00  0.85670683269E+03  0.85670683269E+03  0.00000000000E+00 0.  1.
          1   -1    0    0  501    0  0.00000000000E+00 -0.00000000000E+00 -0.42261355070E+03  0.42261355070E+03  0.00000000000E+00 0. -1.
        -24    2    1    2    0    0  0.26398957402E+03  0.26594926756E+03  0.42440186292E+03  0.57186149258E+03  0.80555057850E+02 0.  0.
    5000000    2    1    2    0    0 -0.26398957402E+03 -0.26594926756E+03  0.96914190785E+01  0.70745889081E+03  0.59998720859E+03 0.  0.
        -24    2    4    4    0    0 -0.30219024948E+03 -0.17028086495E+03  0.24867323217E+03  0.43497138010E+03  0.83947634027E+02 0.  0.
         24    2    4    4    0    0  0.38200675455E+02 -0.95668402604E+02 -0.23898181309E+03  0.27248751071E+03  0.80779958163E+02 0.  0.
         11    1    5    5    0    0 -0.10836374442E+03 -0.92802084716E+02  0.13894371689E+03  0.19914890032E+03  0.00000000000E+00 0. -1.
        -12    1    5    5    0    0 -0.19382650505E+03 -0.77478780238E+02  0.10972951528E+03  0.23582247978E+03  0.00000000000E+00 0.  1.
         15    1    3    3    0    0  0.12477380263E+03  0.71849588879E+02  0.17285666529E+03  0.22497433122E+03  0.17770000000E+01 0. -1.
        -16    1    3    3    0    0  0.13921577139E+03  0.19409967868E+03  0.25154519763E+03  0.34688716136E+03  0.00000000000E+00 0.  1.
          2    1    6    6  502    0  0.60628265831E+02 -0.47118220673E+02 -0.15394007328E+03  0.17202749634E+03  0.00000000000E+00 0. -1.
         -1    1    6    6    0  502 -0.22427590376E+02 -0.48550181931E+02 -0.85041739814E+02  0.10046001436E+03  0.00000000000E+00 0.  1.
<mgrwt>
<rscale>  0 0.43226521E+03</rscale>
<asrwt>0</asrwt>
<pdfrwt beam="1">  1        1 0.65017469E-01 0.43226521E+03</pdfrwt>
<pdfrwt beam="2">  1       -2 0.13180105E+00 0.43226521E+03</pdfrwt>
<totfact> 0.21514003E+01</totfact>
</mgrwt>
</event>
<event>
12    3  0.1176505E-007  0.5682860E+03  0.7818608E-02  0.9973479E-01
         -2   -1    0    0    0  501 -0.00000000000E+00  0.00000000000E+00  0.28209414863E+03  0.28209414863E+03  0.00000000000E+00 0.  1.
          1   -1    0    0  501    0  0.00000000000E+00 -0.00000000000E+00 -0.11701837086E+04  0.11701837086E+04  0.00000000000E+00 0. -1.
        -24    2    1    2    0    0  0.36793601774E+03  0.18704321887E+03 -0.35580319746E+03  0.55035691372E+03  0.77037252547E+02 0.  0.
    5000000    2    1    2    0    0 -0.36793601774E+03 -0.18704321887E+03 -0.53228636251E+03  0.90192094351E+03  0.59980875099E+03 0.  0.
        -24    2    4    4    0    0 -0.20931376885E+03 -0.39069794725E+03 -0.28398835267E+03  0.53401636196E+03  0.89816204391E+02 0.  0.
         24    2    4    4    0    0 -0.15862224888E+03  0.20365472838E+03 -0.24829800984E+03  0.36790458156E+03  0.84057201997E+02 0.  0.
         11    1    5    5    0    0 -0.17302066107E+03 -0.23195830367E+03 -0.18455926306E+03  0.34322430768E+03  0.00000000000E+00 0. -1.
        -12    1    5    5    0    0 -0.36293107781E+02 -0.15873964358E+03 -0.99429089611E+02  0.19079205428E+03  0.00000000000E+00 0.  1.
         15    1    3    3    0    0  0.25787758822E+03  0.92429434718E+02 -0.24846597028E+03  0.36984124571E+03  0.17770000000E+01 0. -1.
        -16    1    3    3    0    0  0.11005842951E+03  0.94613784149E+02 -0.10733722718E+03  0.18051566801E+03  0.00000000000E+00 0.  1.
          4    1    6    6  502    0 -0.74907615242E+02  0.49292924756E+02 -0.48647278136E+02  0.10201715994E+03  0.00000000000E+00 0. -1.
         -3    1    6    6    0  502 -0.83714633641E+02  0.15436180362E+03 -0.19965073170E+03  0.26588742162E+03  0.00000000000E+00 0.  1.
<mgrwt>
<rscale>  0 0.56828603E+03</rscale>
<asrwt>0</asrwt>
<pdfrwt beam="1">  1        1 0.18002826E+00 0.56828603E+03</pdfrwt>
<pdfrwt beam="2">  1       -2 0.43399101E-01 0.56828603E+03</pdfrwt>
<totfact> 0.51740730E+01</totfact>
</mgrwt>
</event>
<event>
12    3  0.1176505E-007  0.9646195E+03  0.7818608E-02  0.9348224E-01
         -2   -1    0    0    0  501 -0.00000000000E+00  0.00000000000E+00  0.53473966814E+03  0.53473966814E+03  0.00000000000E+00 0.  1.
          1   -1    0    0  501    0  0.00000000000E+00 -0.00000000000E+00 -0.21086277706E+04  0.21086277706E+04  0.00000000000E+00 0. -1.
        -24    2    1    2    0    0  0.31309149658E+03 -0.90450787294E+03 -0.95986018478E+03  0.13577642162E+04  0.77661540801E+02 0.  0.
    5000000    2    1    2    0    0 -0.31309149658E+03  0.90450787294E+03 -0.61402791771E+03  0.12856032226E+04  0.59965372075E+03 0.  0.
        -24    2    4    4    0    0 -0.90016338305E+02  0.29384304551E+03 -0.53915968729E+03  0.62645332126E+03  0.85462967168E+02 0.  0.
         24    2    4    4    0    0 -0.22307515828E+03  0.61066482743E+03 -0.74868230418E+02  0.65914990135E+03  0.78735524537E+02 0.  0.
         11    1    5    5    0    0 -0.10516175891E+03  0.27553285703E+03 -0.49134436079E+03  0.57305901243E+03  0.00000000000E+00 0. -1.
        -12    1    5    5    0    0  0.15145420602E+02  0.18310188481E+02 -0.47815326499E+02  0.53394308832E+02  0.00000000000E+00 0.  1.
         15    1    3    3    0    0  0.18542297413E+03 -0.64445655716E+03 -0.66826786286E+03  0.94672647985E+03  0.17770000000E+01 0. -1.
        -16    1    3    3    0    0  0.12766852245E+03 -0.26005131579E+03 -0.29159232193E+03  0.41103773631E+03  0.00000000000E+00 0.  1.
          2    1    6    6  502    0 -0.45152769631E+02  0.13881874364E+03 -0.49844175387E+02  0.15425257862E+03  0.00000000000E+00 0. -1.
         -1    1    6    6    0  502 -0.17792238865E+03  0.47184608379E+03 -0.25024055030E+02  0.50489732273E+03  0.00000000000E+00 0.  1.
<mgrwt>
<rscale>  0 0.96461953E+03</rscale>
<asrwt>0</asrwt>
<pdfrwt beam="1">  1        1 0.32440428E+00 0.96461953E+03</pdfrwt>
<pdfrwt beam="2">  1       -2 0.82267640E-01 0.96461953E+03</pdfrwt>
<totfact> 0.29026724E+00</totfact>
</mgrwt>
</event>
<event>
12    3  0.1176505E-007  0.1092640E+04  0.7818608E-02  0.9212395E-01
         -2   -1    0    0    0  501 -0.00000000000E+00  0.00000000000E+00  0.50450181603E+03  0.50450181603E+03  0.00000000000E+00 0.  1.
          1   -1    0    0  501    0  0.00000000000E+00 -0.00000000000E+00 -0.28514203063E+04  0.28514203063E+04  0.00000000000E+00 0. -1.
        -24    2    1    2    0    0  0.87993940848E+03 -0.58798239144E+03 -0.16261956147E+04  0.19418804046E+04  0.79816496117E+02 0.  0.
    5000000    2    1    2    0    0 -0.87993940848E+03  0.58798239144E+03 -0.72072287549E+03  0.14140417177E+04  0.60004654898E+03 0.  0.
        -24    2    4    4    0    0 -0.59780312592E+03  0.17796725385E+03 -0.65325106923E+03  0.90559674128E+03  0.65784326162E+02 0.  0.
         24    2    4    4    0    0 -0.28213628256E+03  0.41001513759E+03 -0.67471806257E+02  0.50844497643E+03  0.79060447941E+02 0.  0.
         13    1    5    5    0    0 -0.53796593357E+03  0.16944330512E+03 -0.56257976622E+03  0.79662687169E+03  0.00000000000E+00 0. -1.
        -14    1    5    5    0    0 -0.59837192348E+02  0.85239487269E+01 -0.90671303008E+02  0.10896986959E+03  0.00000000000E+00 0.  1.
         15    1    3    3    0    0  0.71454154855E+03 -0.47807609356E+03 -0.13752768664E+04  0.16218865536E+04  0.17770000000E+01 0. -1.
        -16    1    3    3    0    0  0.16539785993E+03 -0.10990629787E+03 -0.25091874837E+03  0.31999385098E+03  0.00000000000E+00 0.  1.
          2    1    6    6  502    0 -0.26324344681E+03  0.34004806001E+03 -0.71140066953E+02  0.43587923159E+03  0.00000000000E+00 0. -1.
         -1    1    6    6    0  502 -0.18892835746E+02  0.69967077576E+02  0.36682606961E+01  0.72565744836E+02  0.00000000000E+00 0.  1.
<mgrwt>
<rscale>  0 0.10926399E+04</rscale>
<asrwt>0</asrwt>
<pdfrwt beam="1">  1        1 0.43868004E+00 0.10926399E+04</pdfrwt>
<pdfrwt beam="2">  1       -2 0.77615666E-01 0.10926399E+04</pdfrwt>
<totfact> 0.10021560E+00</totfact>
</mgrwt>
</event>
<event>
12    3  0.1176505E-007  0.6714546E+03  0.7818608E-02  0.9767334E-01
         -2   -1    0    0    0  501 -0.00000000000E+00  0.00000000000E+00  0.57480519995E+03  0.57480519995E+03  0.00000000000E+00 0.  1.
          1   -1    0    0  501    0  0.00000000000E+00 -0.00000000000E+00 -0.10426373976E+04  0.10426373976E+04  0.00000000000E+00 0. -1.
        -24    2    1    2    0    0 -0.23363237198E+03  0.56716069062E+03  0.41572411471E+02  0.61957444584E+03  0.76739131649E+02 0.  0.
    5000000    2    1    2    0    0  0.23363237198E+03 -0.56716069062E+03 -0.50940460910E+03  0.99786815168E+03  0.59999371509E+03 0.  0.
        -24    2    4    4    0    0  0.21032882006E+03 -0.77464800741E+02 -0.43476638875E+03  0.49547718364E+03  0.78973532367E+02 0.  0.
         24    2    4    4    0    0  0.23303551921E+02 -0.48969588988E+03 -0.74638220353E+02  0.50239096805E+03  0.80502799605E+02 0.  0.
         13    1    5    5    0    0  0.96987731942E+02 -0.70505790324E+02 -0.17682048498E+03  0.21364262338E+03  0.00000000000E+00 0. -1.
        -14    1    5    5    0    0  0.11334108812E+03 -0.69590104171E+01 -0.25794590378E+03  0.28183456026E+03  0.00000000000E+00 0.  1.
         15    1    3    3    0    0 -0.60976533939E+02  0.75989838444E+02  0.25198256247E+01  0.97478718129E+02  0.17770000000E+01 0. -1.
        -16    1    3    3    0    0 -0.17265583804E+03  0.49117085217E+03  0.39052585846E+02  0.52209572771E+03  0.00000000000E+00 0.  1.
          4    1    6    6  502    0 -0.80497096991E+01 -0.15446711190E+03 -0.58312976782E+02  0.16530362895E+03  0.00000000000E+00 0. -1.
         -3    1    6    6    0  502  0.31353261620E+02 -0.33522877798E+03 -0.16325243571E+02  0.33708733909E+03  0.00000000000E+00 0.  1.
<mgrwt>
<rscale>  0 0.67145464E+03</rscale>
<asrwt>0</asrwt>
<pdfrwt beam="1">  1        1 0.16040575E+00 0.67145464E+03</pdfrwt>
<pdfrwt beam="2">  1       -2 0.88431570E-01 0.67145464E+03</pdfrwt>
<totfact> 0.13990909E+01</totfact>
</mgrwt>
</event>
<event>
12    3  0.1176505E-007  0.5459656E+03  0.7818608E-02  0.1002432E+00
         -2   -1    0    0    0  501 -0.00000000000E+00  0.00000000000E+00  0.22843143099E+03  0.22843143099E+03  0.00000000000E+00 0.  1.
          1   -1    0    0  501    0  0.00000000000E+00 -0.00000000000E+00 -0.14778915883E+04  0.14778915883E+04  0.00000000000E+00 0. -1.
        -24    2    1    2    0    0 -0.36653031547E+03 -0.20840178362E+03 -0.45519319067E+03  0.62554303960E+03  0.79545445999E+02 0.  0.
    5000000    2    1    2    0    0  0.36653031547E+03  0.20840178362E+03 -0.79426696663E+03  0.10807799797E+04  0.59954113673E+03 0.  0.
        -24    2    4    4    0    0  0.25473300149E+03 -0.14231419624E+03 -0.56373241781E+03  0.63982105336E+03  0.80215390866E+02 0.  0.
         24    2    4    4    0    0  0.11179731398E+03  0.35071597986E+03 -0.23053454882E+03  0.44095892633E+03  0.76146297128E+02 0.  0.
         13    1    5    5    0    0  0.90822620775E+02 -0.83101696607E+02 -0.29341777120E+03  0.31819589702E+03  0.00000000000E+00 0. -1.
        -14    1    5    5    0    0  0.16391038071E+03 -0.59212499632E+02 -0.27031464661E+03  0.32162515634E+03  0.00000000000E+00 0.  1.
         15    1    3    3    0    0 -0.28199915537E+03 -0.14478652060E+03 -0.29159104605E+03  0.43071470377E+03  0.17770000000E+01 0. -1.
        -16    1    3    3    0    0 -0.84531160102E+02 -0.63615263025E+02 -0.16360214462E+03  0.19482833583E+03  0.00000000000E+00 0.  1.
          2    1    6    6  502    0  0.10685775023E+03  0.35090111776E+03 -0.23384482002E+03  0.43500985401E+03  0.00000000000E+00 0. -1.
         -1    1    6    6    0  502  0.49395637556E+01 -0.18513790203E+00  0.33102711976E+01  0.59490723260E+01  0.00000000000E+00 0.  1.
<mgrwt>
<rscale>  0 0.54596565E+03</rscale>
<asrwt>0</asrwt>
<pdfrwt beam="1">  1        1 0.22736794E+00 0.54596565E+03</pdfrwt>
<pdfrwt beam="2">  1       -2 0.35143297E-01 0.54596565E+03</pdfrwt>
<totfact> 0.47546842E+01</totfact>
</mgrwt>
</event>
<event>
12    3  0.1176505E-007  0.1424442E+04  0.7818608E-02  0.8936314E-01
          1   -1    0    0  501    0  0.00000000000E+00  0.00000000000E+00  0.13678364320E+04  0.13678364320E+04  0.00000000000E+00 0. -1.
         -2   -1    0    0    0  501 -0.00000000000E+00 -0.00000000000E+00 -0.15715930890E+04  0.15715930890E+04  0.00000000000E+00 0.  1.
        -24    2    1    2    0    0 -0.13420590462E+04  0.39912942166E+03 -0.19652454367E+03  0.14161161185E+04  0.79600163861E+02 0.  0.
    5000000    2    1    2    0    0  0.13420590462E+04 -0.39912942166E+03 -0.72321133345E+01  0.15233134024E+04  0.60000386661E+03 0.  0.
        -24    2    4    4    0    0  0.24456806898E+03 -0.22571180823E+03  0.19062459974E+03  0.39182558045E+03  0.80188445107E+02 0.  0.
         24    2    4    4    0    0  0.10974909772E+04 -0.17341761343E+03 -0.19785671307E+03  0.11314878220E+04  0.80977149541E+02 0.  0.
         11    1    5    5    0    0  0.19376169131E+02 -0.54612172736E+01  0.35253577794E+02  0.40596497036E+02  0.00000000000E+00 0. -1.
        -12    1    5    5    0    0  0.22519189985E+03 -0.22025059096E+03  0.15537102194E+03  0.35122908341E+03  0.00000000000E+00 0.  1.
         15    1    3    3    0    0 -0.11032479082E+04  0.29597397798E+03 -0.16256594011E+03  0.11537709414E+04  0.17770000000E+01 0. -1.
        -16    1    3    3    0    0 -0.23881113795E+03  0.10315544369E+03 -0.33958603554E+02  0.26234517706E+03  0.00000000000E+00 0.  1.
          2    1    6    6  502    0  0.53458907797E+03 -0.72506246875E+02 -0.56745976944E+02  0.54245990084E+03  0.00000000000E+00 0. -1.
         -1    1    6    6    0  502  0.56290189922E+03 -0.10091136656E+03 -0.14111073613E+03  0.58902792115E+03  0.00000000000E+00 0.  1.
<mgrwt>
<rscale>  0 0.14244420E+04</rscale>
<asrwt>0</asrwt>
<pdfrwt beam="1">  1        1 0.21043637E+00 0.14244420E+04</pdfrwt>
<pdfrwt beam="2">  1       -2 0.24178355E+00 0.14244420E+04</pdfrwt>
<totfact> 0.48739041E-01</totfact>
</mgrwt>
</event>
<event>
12    3  0.1176505E-007  0.9168686E+03  0.7818608E-02  0.9404737E-01
         -2   -1    0    0    0  501 -0.00000000000E+00  0.00000000000E+00  0.74311000605E+03  0.74311000605E+03  0.00000000000E+00 0.  1.
          1   -1    0    0  501    0  0.00000000000E+00 -0.00000000000E+00 -0.13610003074E+04  0.13610003074E+04  0.00000000000E+00 0. -1.
        -24    2    1    2    0    0  0.23397134505E+03  0.88209182521E+03 -0.34139141231E+03  0.97766533267E+03  0.80329495831E+02 0.  0.
    5000000    2    1    2    0    0 -0.23397134505E+03 -0.88209182521E+03 -0.27649888903E+03  0.11264449808E+04  0.59966497366E+03 0.  0.
        -24    2    4    4    0    0 -0.21156347034E+03 -0.68691732005E+03 -0.45032278703E+03  0.85198746877E+03  0.80483090514E+02 0.  0.
         24    2    4    4    0    0 -0.22407874708E+02 -0.19517450516E+03  0.17382389801E+03  0.27445751199E+03  0.80727802237E+02 0.  0.
         13    1    5    5    0    0 -0.16594286196E+03 -0.57310612082E+03 -0.40567076997E+03  0.72149596864E+03  0.00000000000E+00 0. -1.
        -14    1    5    5    0    0 -0.45620608377E+02 -0.11381119923E+03 -0.44652017062E+02  0.13049150013E+03  0.00000000000E+00 0.  1.
         15    1    3    3    0    0  0.83313058172E+02  0.45680648944E+03 -0.15552544172E+03  0.48969843293E+03  0.17770000000E+01 0. -1.
        -16    1    3    3    0    0  0.15065828688E+03  0.42528533577E+03 -0.18586597058E+03  0.48796689974E+03  0.00000000000E+00 0.  1.
          2    1    6    6  502    0  0.26472544263E+01 -0.11319003008E+03  0.14509918667E+03  0.18404555098E+03  0.00000000000E+00 0. -1.
         -1    1    6    6    0  502 -0.25055129134E+02 -0.81984475088E+02  0.28724711335E+02  0.90411961005E+02  0.00000000000E+00 0.  1.
<mgrwt>
<rscale>  0 0.91686860E+03</rscale>
<asrwt>0</asrwt>
<pdfrwt beam="1">  1        1 0.20938466E+00 0.91686860E+03</pdfrwt>
<pdfrwt beam="2">  1       -2 0.11432462E+00 0.91686860E+03</pdfrwt>
<totfact> 0.43309147E+00</totfact>
</mgrwt>
</event>
<event>
12    3  0.1176505E-007  0.6195831E+03  0.7818608E-02  0.9865590E-01
          1   -1    0    0  501    0  0.00000000000E+00  0.00000000000E+00  0.17747432637E+04  0.17747432637E+04  0.00000000000E+00 0. -1.
         -2   -1    0    0    0  501 -0.00000000000E+00 -0.00000000000E+00 -0.24480100796E+03  0.24480100796E+03  0.00000000000E+00 0.  1.
        -24    2    1    2    0    0  0.11641340439E+03 -0.46974446340E+03  0.89655461386E+03  0.10219177624E+04  0.79333447400E+02 0.  0.
    5000000    2    1    2    0    0 -0.11641340439E+03  0.46974446340E+03  0.63338764189E+03  0.99762650926E+03  0.59988899428E+03 0.  0.
        -24    2    4    4    0    0  0.71687878510E+02  0.53655577878E+03  0.52101938966E+03  0.75548754981E+03  0.79176876936E+02 0.  0.
         24    2    4    4    0    0 -0.18810128290E+03 -0.66811315386E+02  0.11236825223E+03  0.24213895945E+03  0.78478067523E+02 0.  0.
         11    1    5    5    0    0  0.92846864079E+01  0.11954134734E+03  0.73606479836E+02  0.14069205024E+03  0.00000000000E+00 0. -1.
        -12    1    5    5    0    0  0.62403192102E+02  0.41701443144E+03  0.44741290982E+03  0.61479549957E+03  0.00000000000E+00 0.  1.
         15    1    3    3    0    0  0.91330852922E+02 -0.25052698683E+03  0.54722231538E+03  0.60873681999E+03  0.17770000000E+01 0. -1.
        -16    1    3    3    0    0  0.25082551468E+02 -0.21921747656E+03  0.34933229848E+03  0.41318094242E+03  0.00000000000E+00 0.  1.
          4    1    6    6  502    0 -0.76755945413E+02 -0.62306800309E+02  0.29184842005E+02  0.10307942338E+03  0.00000000000E+00 0. -1.
         -3    1    6    6    0  502 -0.11134533749E+03 -0.45045150769E+01  0.83183410222E+02  0.13905953607E+03  0.00000000000E+00 0.  1.
<mgrwt>
<rscale>  0 0.61958306E+03</rscale>
<asrwt>0</asrwt>
<pdfrwt beam="1">  1        1 0.27303742E+00 0.61958306E+03</pdfrwt>
<pdfrwt beam="2">  1       -2 0.37661695E-01 0.61958306E+03</pdfrwt>
<totfact> 0.26027732E+01</totfact>
</mgrwt>
</event>
<event>
12    3  0.1176505E-007  0.4202521E+03  0.7818608E-02  0.1036984E+00
          1   -1    0    0  501    0  0.00000000000E+00  0.00000000000E+00  0.77070275635E+03  0.77070275635E+03  0.00000000000E+00 0. -1.
         -2   -1    0    0    0  501 -0.00000000000E+00 -0.00000000000E+00 -0.37233966339E+03  0.37233966339E+03  0.00000000000E+00 0.  1.
        -24    2    1    2    0    0  0.18322518972E+03  0.13355175702E+03  0.43923830716E+03  0.50067199282E+03  0.79590275528E+02 0.  0.
    5000000    2    1    2    0    0 -0.18322518972E+03 -0.13355175702E+03 -0.40875214204E+02  0.64237042692E+03  0.59963442221E+03 0.  0.
        -24    2    4    4    0    0  0.37428609366E+02 -0.31515036674E+03 -0.93859352429E+02  0.34068487680E+03  0.80845239708E+02 0.  0.
         24    2    4    4    0    0 -0.22065379909E+03  0.18159860972E+03  0.52984138225E+02  0.30168555012E+03  0.80874582810E+02 0.  0.
         11    1    5    5    0    0  0.75669703710E+01 -0.10085236489E+03  0.81727423932E+01  0.10146552253E+03  0.00000000000E+00 0. -1.
        -12    1    5    5    0    0  0.29861638995E+02 -0.21429800185E+03 -0.10203209482E+03  0.23921935427E+03  0.00000000000E+00 0.  1.
         15    1    3    3    0    0  0.32854051999E+02 -0.17511602752E+01  0.10439125248E+03  0.10946755966E+03  0.17770000000E+01 0. -1.
        -16    1    3    3    0    0  0.15037113772E+03  0.13530291729E+03  0.33484705468E+03  0.39120443315E+03  0.00000000000E+00 0.  1.
          4    1    6    6  502    0 -0.12710857635E+03  0.12585060567E+03  0.68798992557E+02  0.19164620139E+03  0.00000000000E+00 0. -1.
         -3    1    6    6    0  502 -0.93545222736E+02  0.55748004056E+02 -0.15814854332E+02  0.11003934874E+03  0.00000000000E+00 0.  1.
<mgrwt>
<rscale>  0 0.42025212E+03</rscale>
<asrwt>0</asrwt>
<pdfrwt beam="1">  1        1 0.11856965E+00 0.42025212E+03</pdfrwt>
<pdfrwt beam="2">  1       -2 0.57283025E-01 0.42025212E+03</pdfrwt>
<totfact> 0.61800928E+01</totfact>
</mgrwt>
</event>
<event>
12    3  0.1176505E-007  0.4819608E+03  0.7818608E-02  0.1018598E+00
          1   -1    0    0  501    0  0.00000000000E+00  0.00000000000E+00  0.28061795532E+03  0.28061795532E+03  0.00000000000E+00 0. -1.
         -2   -1    0    0    0  501 -0.00000000000E+00 -0.00000000000E+00 -0.10428757187E+04  0.10428757187E+04  0.00000000000E+00 0.  1.
        -24    2    1    2    0    0 -0.25086244870E+02 -0.31098466081E+03 -0.32729551115E+02  0.32880303331E+03  0.98485695682E+02 0.  0.
    5000000    2    1    2    0    0  0.25086244870E+02  0.31098466081E+03 -0.72952821222E+03  0.99469064067E+03  0.59988105427E+03 0.  0.
        -24    2    4    4    0    0 -0.24478236567E+03  0.32823571056E+02 -0.41273248412E+03  0.48792403788E+03  0.82012010911E+02 0.  0.
         24    2    4    4    0    0  0.26986861054E+03  0.27816108976E+03 -0.31679572811E+03  0.50676660279E+03  0.79058190924E+02 0.  0.
         13    1    5    5    0    0 -0.21436646864E+03  0.33482783951E+01 -0.31110102454E+03  0.37782011767E+03  0.00000000000E+00 0. -1.
        -14    1    5    5    0    0 -0.30415897028E+02  0.29475292661E+02 -0.10163145958E+03  0.11010392021E+03  0.00000000000E+00 0.  1.
         15    1    3    3    0    0 -0.40614310806E+02 -0.11287442949E+03 -0.48622567708E+02  0.12945065042E+03  0.17770000000E+01 0. -1.
        -16    1    3    3    0    0  0.15528065936E+02 -0.19811023132E+03  0.15893016593E+02  0.19935238288E+03  0.00000000000E+00 0.  1.
          4    1    6    6  502    0  0.13413707654E+03  0.11908397418E+03 -0.19421432742E+03  0.26437275424E+03  0.00000000000E+00 0. -1.
         -3    1    6    6    0  502  0.13573153400E+03  0.15907711558E+03 -0.12258140068E+03  0.24239384856E+03  0.00000000000E+00 0.  1.
<mgrwt>
<rscale>  0 0.48196076E+03</rscale>
<asrwt>0</asrwt>
<pdfrwt beam="1">  1        1 0.43171993E-01 0.48196076E+03</pdfrwt>
<pdfrwt beam="2">  1       -2 0.16044242E+00 0.48196076E+03</pdfrwt>
<totfact> 0.21787084E+01</totfact>
</mgrwt>
</event>
<event>
12    3  0.1176505E-007  0.3960734E+03  0.7818608E-02  0.1045148E+00
         -2   -1    0    0    0  501 -0.00000000000E+00  0.00000000000E+00  0.23824421561E+03  0.23824421561E+03  0.00000000000E+00 0.  1.
          1   -1    0    0  501    0  0.00000000000E+00 -0.00000000000E+00 -0.95715291067E+03  0.95715291067E+03  0.00000000000E+00 0. -1.
        -24    2    1    2    0    0 -0.14002449315E+03 -0.24200918624E+03 -0.25855392772E+03  0.38906280865E+03  0.79651934240E+02 0.  0.
    5000000    2    1    2    0    0  0.14002449315E+03  0.24200918624E+03 -0.46035476734E+03  0.80633431764E+03  0.60006100947E+03 0.  0.
        -24    2    4    4    0    0 -0.11044688319E+03 -0.43481573103E+02  0.61231258437E+02  0.15597820424E+03  0.80565327412E+02 0.  0.
         24    2    4    4    0    0  0.25047137635E+03  0.28549075934E+03 -0.52158602578E+03  0.65035611340E+03  0.81671340824E+02 0.  0.
         11    1    5    5    0    0 -0.10856218285E+02  0.95698375578E+01 -0.14178606651E+02  0.20260112362E+02  0.00000000000E+00 0. -1.
        -12    1    5    5    0    0 -0.99590664910E+02 -0.53051410661E+02  0.75409865089E+02  0.13571809188E+03  0.00000000000E+00 0.  1.
         15    1    3    3    0    0 -0.73348117882E+02 -0.14376777463E+03 -0.96113891357E+02  0.18785674664E+03  0.17770000000E+01 0. -1.
        -16    1    3    3    0    0 -0.66676375268E+02 -0.98241411607E+02 -0.16244003636E+03  0.20120606200E+03  0.00000000000E+00 0.  1.
          4    1    6    6  502    0  0.17010411055E+03  0.14817191574E+03 -0.34955063181E+03  0.41602400080E+03  0.00000000000E+00 0. -1.
         -3    1    6    6    0  502  0.80367265798E+02  0.13731884360E+03 -0.17203539396E+03  0.23433211260E+03  0.00000000000E+00 0.  1.
<mgrwt>
<rscale>  0 0.39607341E+03</rscale>
<asrwt>0</asrwt>
<pdfrwt beam="1">  1        1 0.14725429E+00 0.39607341E+03</pdfrwt>
<pdfrwt beam="2">  1       -2 0.36652956E-01 0.39607341E+03</pdfrwt>
<totfact> 0.10581246E+02</totfact>
</mgrwt>
</event>
<event>
12    3  0.1216659E-007  0.1351595E+04  0.7818608E-02  0.8989621E-01
         -2   -1    0    0    0  501 -0.00000000000E+00  0.00000000000E+00  0.12460109206E+04  0.12460109206E+04  0.00000000000E+00 0.  1.
          1   -1    0    0  501    0  0.00000000000E+00 -0.00000000000E+00 -0.22387432546E+04  0.22387432546E+04  0.00000000000E+00 0. -1.
        -24    2    1    2    0    0  0.11398206409E+04  0.69832079788E+03 -0.14266600314E+04  0.19566533421E+04  0.79312204961E+02 0.  0.
    5000000    2    1    2    0    0 -0.11398206409E+04 -0.69832079788E+03  0.43392769729E+03  0.15281008331E+04  0.59996323191E+03 0.  0.
        -24    2    4    4    0    0 -0.66542219015E+03 -0.26790763842E+03  0.50226260380E+03  0.87906550975E+03  0.76988657564E+02 0.  0.
         24    2    4    4    0    0 -0.47439845071E+03 -0.43041315946E+03 -0.68334906511E+02  0.64903532338E+03  0.79169524843E+02 0.  0.
         11    1    5    5    0    0 -0.32378235308E+03 -0.97930424725E+02  0.26521402612E+03  0.42984166841E+03  0.00000000000E+00 0. -1.
        -12    1    5    5    0    0 -0.34163983707E+03 -0.16997721370E+03  0.23704857768E+03  0.44922384134E+03  0.00000000000E+00 0.  1.
         15    1    3    3    0    0  0.42223593270E+03  0.21542131642E+03 -0.51776545579E+03  0.70197845506E+03  0.17770000000E+01 0. -1.
        -16    1    3    3    0    0  0.71758470815E+03  0.48289948147E+03 -0.90889457557E+03  0.12546748870E+04  0.00000000000E+00 0.  1.
          4    1    6    6  502    0 -0.13581841967E+03 -0.82519115088E+02 -0.32879698456E+02  0.16228715922E+03  0.00000000000E+00 0. -1.
         -3    1    6    6    0  502 -0.33858003104E+03 -0.34789404437E+03 -0.35455208055E+02  0.48674816416E+03  0.00000000000E+00 0.  1.
<mgrwt>
<rscale>  0 0.13515952E+04</rscale>
<asrwt>0</asrwt>
<pdfrwt beam="1">  1        1 0.34442204E+00 0.13515952E+04</pdfrwt>
<pdfrwt beam="2">  1       -2 0.19169399E+00 0.13515952E+04</pdfrwt>
<totfact> 0.26016955E-01</totfact>
</mgrwt>
</event>
<event>
12    3  0.1176505E-007  0.1059240E+04  0.7818608E-02  0.9245856E-01
         -2   -1    0    0    0  501 -0.00000000000E+00  0.00000000000E+00  0.74529455306E+03  0.74529455306E+03  0.00000000000E+00 0.  1.
          1   -1    0    0  501    0  0.00000000000E+00 -0.00000000000E+00 -0.25786087194E+04  0.25786087194E+04  0.00000000000E+00 0. -1.
        -24    2    1    2    0    0  0.75939302594E+03  0.62999382848E+03 -0.19258319506E+04  0.21653987462E+04  0.80950825879E+02 0.  0.
    5000000    2    1    2    0    0 -0.75939302594E+03 -0.62999382848E+03  0.92517784258E+02  0.11585045263E+04  0.60000267104E+03 0.  0.
        -24    2    4    4    0    0 -0.81053211827E+03 -0.42259826912E+03  0.13377474760E+03  0.92718991164E+03  0.78954653691E+02 0.  0.
         24    2    4    4    0    0  0.51139092330E+02 -0.20739555936E+03 -0.41256963346E+02  0.23131461465E+03  0.78588734032E+02 0.  0.
         13    1    5    5    0    0 -0.71743823536E+03 -0.39372333740E+03  0.10218100869E+03  0.82472822584E+03  0.00000000000E+00 0. -1.
        -14    1    5    5    0    0 -0.93093882912E+02 -0.28874931721E+02  0.31593738917E+02  0.10246168580E+03  0.00000000000E+00 0.  1.
         15    1    3    3    0    0  0.16856745107E+03  0.12233287694E+03 -0.47534630245E+03  0.51897744009E+03  0.17770000000E+01 0. -1.
        -16    1    3    3    0    0  0.59082557488E+03  0.50766095154E+03 -0.14504856482E+04  0.16464213061E+04  0.00000000000E+00 0.  1.
          2    1    6    6  502    0  0.68436237576E+01 -0.83934737550E+02 -0.53193041466E+02  0.99606099282E+02  0.00000000000E+00 0. -1.
         -1    1    6    6    0  502  0.44295468573E+02 -0.12346082181E+03  0.11936078120E+02  0.13170851536E+03  0.00000000000E+00 0.  1.
<mgrwt>
<rscale>  0 0.10592400E+04</rscale>
<asrwt>0</asrwt>
<pdfrwt beam="1">  1        1 0.39670903E+00 0.10592400E+04</pdfrwt>
<pdfrwt beam="2">  1       -2 0.11466070E+00 0.10592400E+04</pdfrwt>
<totfact> 0.62537985E-01</totfact>
</mgrwt>
</event>
<event>
12    3  0.1176505E-007  0.8794515E+03  0.7818608E-02  0.9451639E-01
          1   -1    0    0  501    0  0.00000000000E+00  0.00000000000E+00  0.10831643027E+04  0.10831643027E+04  0.00000000000E+00 0. -1.
         -2   -1    0    0    0  501 -0.00000000000E+00 -0.00000000000E+00 -0.88247766858E+03  0.88247766858E+03  0.00000000000E+00 0.  1.
        -24    2    1    2    0    0  0.84103851581E+03  0.16869544215E+03  0.30409203479E+03  0.91373226888E+03  0.81429455911E+02 0.  0.
    5000000    2    1    2    0    0 -0.84103851581E+03 -0.16869544215E+03 -0.10340540063E+03  0.10519097024E+04  0.60001450643E+03 0.  0.
        -24    2    4    4    0    0 -0.67162640632E+03 -0.45162970082E+02 -0.31164986227E+03  0.74597564674E+03  0.78944951344E+02 0.  0.
         24    2    4    4    0    0 -0.16941210950E+03 -0.12353247207E+03  0.20824446164E+03  0.30593405570E+03  0.79178002842E+02 0.  0.
         11    1    5    5    0    0 -0.58079917750E+03 -0.45733021992E+02 -0.23919753553E+03  0.62978937343E+03  0.00000000000E+00 0. -1.
        -12    1    5    5    0    0 -0.90827228816E+02  0.57005191039E+00 -0.72452326749E+02  0.11618627331E+03  0.00000000000E+00 0.  1.
         15    1    3    3    0    0  0.18143017579E+03  0.37808152016E+01  0.73210855480E+02  0.19568901435E+03  0.17770000000E+01 0. -1.
        -16    1    3    3    0    0  0.65960834003E+03  0.16491462695E+03  0.23088117931E+03  0.71804325453E+03  0.00000000000E+00 0.  1.
          4    1    6    6  502    0 -0.14853214048E+03 -0.13460727524E+03  0.18463689584E+03  0.27252834460E+03  0.00000000000E+00 0. -1.
         -1    1    6    6    0  502 -0.20879969018E+02  0.11074803170E+02  0.23607565797E+02  0.33405711103E+02  0.00000000000E+00 0.  1.
<mgrwt>
<rscale>  0 0.87945150E+03</rscale>
<asrwt>0</asrwt>
<pdfrwt beam="1">  1        1 0.16664066E+00 0.87945150E+03</pdfrwt>
<pdfrwt beam="2">  1       -2 0.13576579E+00 0.87945150E+03</pdfrwt>
<totfact> 0.44946816E+00</totfact>
</mgrwt>
</event>
<event>
12    3  0.1176505E-007  0.4414284E+03  0.7818608E-02  0.1030309E+00
         -2   -1    0    0    0  501 -0.00000000000E+00  0.00000000000E+00  0.24948746932E+03  0.24948746932E+03  0.00000000000E+00 0.  1.
          1   -1    0    0  501    0  0.00000000000E+00 -0.00000000000E+00 -0.11859748155E+04  0.11859748155E+04  0.00000000000E+00 0. -1.
        -24    2    1    2    0    0 -0.56541231398E+02  0.34206587469E+03 -0.50938036754E+03  0.62140313000E+03  0.80420878274E+02 0.  0.
    5000000    2    1    2    0    0  0.56541231398E+02 -0.34206587469E+03 -0.42710697861E+03  0.81405915478E+03  0.60005496651E+03 0.  0.
        -24    2    4    4    0    0  0.22883776630E+03 -0.20187431136E+03  0.13957461133E+02  0.31542051191E+03  0.78583253549E+02 0.  0.
         24    2    4    4    0    0 -0.17229653490E+03 -0.14019156333E+03 -0.44106443974E+03  0.49863864288E+03  0.69013663866E+02 0.  0.
         11    1    5    5    0    0  0.11681393628E+03 -0.70479386875E+02  0.36656654086E+02  0.14126765366E+03  0.00000000000E+00 0. -1.
        -12    1    5    5    0    0  0.11202383002E+03 -0.13139492449E+03 -0.22699192953E+02  0.17415285824E+03  0.00000000000E+00 0.  1.
         15    1    3    3    0    0 -0.42590710829E+02  0.14782004371E+03 -0.16373825756E+03  0.22467333773E+03  0.17770000000E+01 0. -1.
        -16    1    3    3    0    0 -0.13950520569E+02  0.19424583098E+03 -0.34564210999E+03  0.39672979227E+03  0.00000000000E+00 0.  1.
          2    1    6    6  502    0 -0.93947112485E+02 -0.99652330497E+02 -0.20414677043E+03  0.24583032928E+03  0.00000000000E+00 0. -1.
         -1    1    6    6    0  502 -0.78349422412E+02 -0.40539232830E+02 -0.23691766931E+03  0.25280831360E+03  0.00000000000E+00 0.  1.
<mgrwt>
<rscale>  0 0.44142843E+03</rscale>
<asrwt>0</asrwt>
<pdfrwt beam="1">  1        1 0.18245766E+00 0.44142843E+03</pdfrwt>
<pdfrwt beam="2">  1       -2 0.38382688E-01 0.44142843E+03</pdfrwt>
<totfact> 0.65119816E+01</totfact>
</mgrwt>
</event>
<event>
12    3  0.1176505E-007  0.9374659E+03  0.7818608E-02  0.9379922E-01
          1   -1    0    0  501    0  0.00000000000E+00  0.00000000000E+00  0.11962427579E+04  0.11962427579E+04  0.00000000000E+00 0. -1.
         -2   -1    0    0    0  501 -0.00000000000E+00 -0.00000000000E+00 -0.82324971275E+03  0.82324971275E+03  0.00000000000E+00 0.  1.
        -24    2    1    2    0    0  0.87617213972E+03  0.20229593524E+03  0.19697983724E+03  0.92401844535E+03  0.80048530382E+02 0.  0.
    5000000    2    1    2    0    0 -0.87617213972E+03 -0.20229593524E+03  0.17601320788E+03  0.10954740253E+04  0.60040105502E+03 0.  0.
        -24    2    4    4    0    0 -0.23368371177E+03 -0.22124851837E+03 -0.15631720924E+03  0.36763695106E+03  0.84633763061E+02 0.  0.
         24    2    4    4    0    0 -0.64248842795E+03  0.18952583125E+02  0.33233041712E+03  0.72783707422E+03  0.78439275936E+02 0.  0.
         13    1    5    5    0    0 -0.12463798876E+03 -0.16905519786E+03 -0.11748954385E+03  0.24066175658E+03  0.00000000000E+00 0. -1.
        -14    1    5    5    0    0 -0.10904572301E+03 -0.52193320510E+02 -0.38827665388E+02  0.12697519448E+03  0.00000000000E+00 0.  1.
         15    1    3    3    0    0  0.93424058261E+02  0.26287266675E+02 -0.32306333111E+01  0.97121932496E+02  0.17770000000E+01 0. -1.
        -16    1    3    3    0    0  0.78274808146E+03  0.17600866857E+03  0.20021047055E+03  0.82689651285E+03  0.00000000000E+00 0.  1.
          2    1    6    6  502    0 -0.39238530178E+03  0.35539097383E+02  0.23628903109E+03  0.45941458260E+03  0.00000000000E+00 0. -1.
         -1    1    6    6    0  502 -0.25010312617E+03 -0.16586514257E+02  0.96041386035E+02  0.26842249162E+03  0.00000000000E+00 0.  1.
<mgrwt>
<rscale>  0 0.93746593E+03</rscale>
<asrwt>0</asrwt>
<pdfrwt beam="1">  1        1 0.18403735E+00 0.93746593E+03</pdfrwt>
<pdfrwt beam="2">  1       -2 0.12665380E+00 0.93746593E+03</pdfrwt>
<totfact> 0.43927604E+00</totfact>
</mgrwt>
</event>
<event>
12    3  0.1176505E-007  0.6119234E+03  0.7818608E-02  0.9880973E-01
         -2   -1    0    0    0  501 -0.00000000000E+00  0.00000000000E+00  0.35972369402E+03  0.35972369402E+03  0.00000000000E+00 0.  1.
          1   -1    0    0  501    0  0.00000000000E+00 -0.00000000000E+00 -0.11183978882E+04  0.11183978882E+04  0.00000000000E+00 0. -1.
        -24    2    1    2    0    0 -0.46738206497E+02  0.46795878856E+03 -0.14330520040E+03  0.49839569115E+03  0.81804625530E+02 0.  0.
    5000000    2    1    2    0    0  0.46738206497E+02 -0.46795878856E+03 -0.61536899377E+03  0.97972589107E+03  0.60001161272E+03 0.  0.
        -24    2    4    4    0    0  0.26962736292E+03 -0.54738857263E+02 -0.23105297299E+03  0.36785469469E+03  0.78970518258E+02 0.  0.
         24    2    4    4    0    0 -0.22288915642E+03 -0.41321993129E+03 -0.38431602078E+03  0.61187119637E+03  0.79102904222E+02 0.  0.
         11    1    5    5    0    0  0.14747691110E+03 -0.37722732649E+02 -0.17627685887E+03  0.23290765303E+03  0.00000000000E+00 0. -1.
        -12    1    5    5    0    0  0.12215045182E+03 -0.17016124614E+02 -0.54776114115E+02  0.13494704167E+03  0.00000000000E+00 0.  1.
         15    1    3    3    0    0 -0.52551452275E+02  0.31752044648E+03 -0.13051987493E+03  0.34730315943E+03  0.17770000000E+01 0. -1.
        -16    1    3    3    0    0  0.58132457778E+01  0.15043834208E+03 -0.12785325470E+02  0.15109253172E+03  0.00000000000E+00 0.  1.
          4    1    6    6  502    0 -0.33234146613E+02 -0.18641642557E+02 -0.35983298211E+02  0.52410085751E+02  0.00000000000E+00 0. -1.
         -3    1    6    6    0  502 -0.18965500981E+03 -0.39457828874E+03 -0.34833272257E+03  0.55946111062E+03  0.00000000000E+00 0.  1.
<mgrwt>
<rscale>  0 0.61192340E+03</rscale>
<asrwt>0</asrwt>
<pdfrwt beam="1">  1        1 0.17206121E+00 0.61192340E+03</pdfrwt>
<pdfrwt beam="2">  1       -2 0.55342108E-01 0.61192340E+03</pdfrwt>
<totfact> 0.34357443E+01</totfact>
</mgrwt>
</event>
<event>
12    3  0.1176505E-007  0.1423375E+04  0.7818608E-02  0.8937070E-01
         -2   -1    0    0    0  501 -0.00000000000E+00  0.00000000000E+00  0.10087212369E+04  0.10087212369E+04  0.00000000000E+00 0.  1.
          1   -1    0    0  501    0  0.00000000000E+00 -0.00000000000E+00 -0.20127929909E+04  0.20127929909E+04  0.00000000000E+00 0. -1.
        -24    2    1    2    0    0 -0.13204527267E+04  0.32764885993E+03 -0.47190445551E+03  0.14423747199E+04  0.82473259884E+02 0.  0.
    5000000    2    1    2    0    0  0.13204527267E+04 -0.32764885993E+03 -0.53216729848E+03  0.15791395079E+04  0.59960851645E+03 0.  0.
        -24    2    4    4    0    0  0.12738135617E+04 -0.14803277341E+03 -0.45353060193E+03  0.13625910219E+04  0.80309365262E+02 0.  0.
         24    2    4    4    0    0  0.46639165087E+02 -0.17961608652E+03 -0.78636696551E+02  0.21654848607E+03  0.79198273459E+02 0.  0.
         13    1    5    5    0    0  0.79156619406E+03 -0.10446966835E+03 -0.32126338436E+03  0.86063994406E+03  0.00000000000E+00 0. -1.
        -14    1    5    5    0    0  0.48224736760E+03 -0.43563105067E+02 -0.13226721757E+03  0.50195107782E+03  0.00000000000E+00 0.  1.
         15    1    3    3    0    0 -0.47099384764E+03  0.15250256930E+03 -0.19203541703E+03  0.53101129676E+03  0.17770000000E+01 0. -1.
        -16    1    3    3    0    0 -0.84945887910E+03  0.17514629063E+03 -0.27986903848E+03  0.91136342318E+03  0.00000000000E+00 0.  1.
          4    1    6    6  502    0 -0.21545939715E+02 -0.26913113639E+02 -0.15378101865E+02  0.37749559215E+02  0.00000000000E+00 0. -1.
         -3    1    6    6    0  502  0.68185104803E+02 -0.15270297288E+03 -0.63258594686E+02  0.17879892685E+03  0.00000000000E+00 0.  1.
<mgrwt>
<rscale>  0 0.14233748E+04</rscale>
<asrwt>0</asrwt>
<pdfrwt beam="1">  1        1 0.30966046E+00 0.14233748E+04</pdfrwt>
<pdfrwt beam="2">  1       -2 0.15518789E+00 0.14233748E+04</pdfrwt>
<totfact> 0.66833798E-01</totfact>
</mgrwt>
</event>
<event>
12    3  0.1176505E-007  0.1768185E+04  0.7818608E-02  0.8723404E-01
         -2   -1    0    0    0  501 -0.00000000000E+00  0.00000000000E+00  0.15491071226E+04  0.15491071226E+04  0.00000000000E+00 0.  1.
          1   -1    0    0  501    0  0.00000000000E+00 -0.00000000000E+00 -0.25222771911E+04  0.25222771911E+04  0.00000000000E+00 0. -1.
        -24    2    1    2    0    0  0.58576897342E+03 -0.16273515341E+04 -0.13584235087E+04  0.22006256843E+04  0.77721732879E+02 0.  0.
    5000000    2    1    2    0    0 -0.58576897342E+03  0.16273515341E+04  0.38525344010E+03  0.18707586295E+04  0.59993277204E+03 0.  0.
        -24    2    4    4    0    0 -0.45221039880E+03  0.16040321241E+04  0.38967206353E+03  0.17131890802E+04  0.75889442937E+02 0.  0.
         24    2    4    4    0    0 -0.13355857463E+03  0.23319409973E+02 -0.44186234262E+01  0.15756954926E+03  0.80168266059E+02 0.  0.
         13    1    5    5    0    0 -0.22761696281E+03  0.93080922038E+03  0.20648746761E+03  0.98023076914E+03  0.00000000000E+00 0. -1.
        -14    1    5    5    0    0 -0.22459343598E+03  0.67322290372E+03  0.18318459592E+03  0.73295831107E+03  0.00000000000E+00 0.  1.
         15    1    3    3    0    0  0.39772359227E+03 -0.11968865307E+04 -0.97066977225E+03  0.15915163799E+04  0.17770000000E+01 0. -1.
        -16    1    3    3    0    0  0.18804538115E+03 -0.43046500341E+03 -0.38775373641E+03  0.60910930434E+03  0.00000000000E+00 0.  1.
          2    1    6    6  502    0 -0.56062961441E+02 -0.14846198493E+01 -0.39873277023E+02  0.68812338735E+02  0.00000000000E+00 0. -1.
         -1    1    6    6    0  502 -0.77495613184E+02  0.24804029823E+02  0.35454653596E+02  0.88757210523E+02  0.00000000000E+00 0.  1.
<mgrwt>
<rscale>  0 0.17681848E+04</rscale>
<asrwt>0</asrwt>
<pdfrwt beam="1">  1        1 0.38804264E+00 0.17681848E+04</pdfrwt>
<pdfrwt beam="2">  1       -2 0.23832417E+00 0.17681848E+04</pdfrwt>
<totfact> 0.79304491E-02</totfact>
</mgrwt>
</event>
<event>
12    3  0.1176505E-007  0.1023781E+04  0.7818608E-02  0.9282840E-01
         -2   -1    0    0    0  501 -0.00000000000E+00  0.00000000000E+00  0.98364254421E+03  0.98364254421E+03  0.00000000000E+00 0.  1.
          1   -1    0    0  501    0  0.00000000000E+00 -0.00000000000E+00 -0.14391714733E+04  0.14391714733E+04  0.00000000000E+00 0. -1.
        -24    2    1    2    0    0  0.94380915789E+03 -0.10134846484E+03 -0.80484384151E+03  0.12471090248E+04  0.80374577252E+02 0.  0.
    5000000    2    1    2    0    0 -0.94380915789E+03  0.10134846484E+03  0.34931491241E+03  0.11757049927E+04  0.59934471219E+03 0.  0.
        -24    2    4    4    0    0  0.36174565261E+02 -0.82899773219E+02  0.18396550102E+02  0.12200242928E+03  0.79782129099E+02 0.  0.
         24    2    4    4    0    0 -0.97998372316E+03  0.18424823806E+03  0.33091836231E+03  0.10537025634E+04  0.80415289677E+02 0.  0.
         11    1    5    5    0    0  0.37072799215E+02 -0.41995558438E+02 -0.25888087327E+02  0.61710715728E+02  0.00000000000E+00 0. -1.
        -12    1    5    5    0    0 -0.89823395430E+00 -0.40904214780E+02  0.44284637430E+02  0.60291713554E+02  0.00000000000E+00 0.  1.
         15    1    3    3    0    0  0.53713552235E+03 -0.17715580756E+02 -0.45035927302E+03  0.70118117751E+03  0.17770000000E+01 0. -1.
        -16    1    3    3    0    0  0.40667363554E+03 -0.83632884084E+02 -0.35448456849E+03  0.54592784729E+03  0.00000000000E+00 0.  1.
          2    1    6    6  502    0 -0.48617624217E+03  0.11250591499E+03  0.12918052442E+03  0.51547311011E+03  0.00000000000E+00 0. -1.
         -1    1    6    6    0  502 -0.49380748099E+03  0.71742323066E+02  0.20173783789E+03  0.53822945334E+03  0.00000000000E+00 0.  1.
<mgrwt>
<rscale>  0 0.10237813E+04</rscale>
<asrwt>0</asrwt>
<pdfrwt beam="1">  1        1 0.22141099E+00 0.10237813E+04</pdfrwt>
<pdfrwt beam="2">  1       -2 0.15132962E+00 0.10237813E+04</pdfrwt>
<totfact> 0.18419591E+00</totfact>
</mgrwt>
</event>
<event>
12    3  0.1176505E-007  0.6546894E+03  0.7818608E-02  0.9798019E-01
          1   -1    0    0  501    0  0.00000000000E+00  0.00000000000E+00  0.18379750478E+04  0.18379750478E+04  0.00000000000E+00 0. -1.
         -2   -1    0    0    0  501 -0.00000000000E+00 -0.00000000000E+00 -0.31856477938E+03  0.31856477938E+03  0.00000000000E+00 0.  1.
        -24    2    1    2    0    0  0.48270481710E+03 -0.38776431423E+03  0.89894735795E+03  0.10946400637E+04  0.82252129336E+02 0.  0.
    5000000    2    1    2    0    0 -0.48270481710E+03  0.38776431423E+03  0.62046291052E+03  0.10618997636E+04  0.59940952667E+03 0.  0.
        -24    2    4    4    0    0 -0.35601531721E+03  0.40179929537E+03  0.14285576852E+03  0.56110156366E+03  0.78978568600E+02 0.  0.
         24    2    4    4    0    0 -0.12668949989E+03 -0.14034981140E+02  0.47760714200E+03  0.50079819989E+03  0.80268579484E+02 0.  0.
         11    1    5    5    0    0 -0.22510142868E+03  0.29429904340E+03  0.71811697246E+02  0.37741157905E+03  0.00000000000E+00 0. -1.
        -12    1    5    5    0    0 -0.13091388853E+03  0.10750025197E+03  0.71044071276E+02  0.18368998461E+03  0.00000000000E+00 0.  1.
         15    1    3    3    0    0  0.32597360359E+03 -0.24392413979E+03  0.52438401160E+03  0.66388216241E+03  0.17770000000E+01 0. -1.
        -16    1    3    3    0    0  0.15673121351E+03 -0.14384017444E+03  0.37456334634E+03  0.43075790126E+03  0.00000000000E+00 0.  1.
          4    1    6    6  502    0  0.87276113739E+01 -0.11137633826E+02  0.65199918190E+02  0.66717669471E+02  0.00000000000E+00 0. -1.
         -3    1    6    6    0  502 -0.13541711127E+03 -0.28973473134E+01  0.41240722381E+03  0.43408053042E+03  0.00000000000E+00 0.  1.
<mgrwt>
<rscale>  0 0.65468939E+03</rscale>
<asrwt>0</asrwt>
<pdfrwt beam="1">  1        1 0.28276539E+00 0.65468939E+03</pdfrwt>
<pdfrwt beam="2">  1       -2 0.49009967E-01 0.65468939E+03</pdfrwt>
<totfact> 0.13974853E+01</totfact>
</mgrwt>
</event>
<event>
12    3  0.1176505E-007  0.8673872E+03  0.7818608E-02  0.9467293E-01
         -2   -1    0    0    0  501 -0.00000000000E+00  0.00000000000E+00  0.75139846254E+03  0.75139846254E+03  0.00000000000E+00 0.  1.
          1   -1    0    0  501    0  0.00000000000E+00 -0.00000000000E+00 -0.12306839391E+04  0.12306839391E+04  0.00000000000E+00 0. -1.
        -24    2    1    2    0    0 -0.68894636978E+03  0.42675565358E+03 -0.53104509401E+03  0.97223437632E+03  0.80394666072E+02 0.  0.
    5000000    2    1    2    0    0  0.68894636978E+03 -0.42675565358E+03  0.51759617440E+02  0.10098480253E+04  0.60028867052E+03 0.  0.
        -24    2    4    4    0    0  0.63854398769E+03 -0.49169376327E+03 -0.10458849566E+03  0.81638239329E+03  0.77719222925E+02 0.  0.
         24    2    4    4    0    0  0.50402382096E+02  0.64938109685E+02  0.15634811310E+03  0.19346563203E+03  0.78910456189E+02 0.  0.
         11    1    5    5    0    0  0.47126524835E+03 -0.39725153613E+03 -0.98557263922E+02  0.62419007644E+03  0.00000000000E+00 0. -1.
        -12    1    5    5    0    0  0.16727873934E+03 -0.94442227140E+02 -0.60312317418E+01  0.19219231685E+03  0.00000000000E+00 0.  1.
         15    1    3    3    0    0 -0.11947695691E+03  0.40679053900E+02 -0.75413645538E+02  0.14703708485E+03  0.17770000000E+01 0. -1.
        -16    1    3    3    0    0 -0.56946941287E+03  0.38607659968E+03 -0.45563144847E+03  0.82519729147E+03  0.00000000000E+00 0.  1.
          4    1    6    6  502    0  0.52941579457E+01  0.66733476793E+02  0.10997569612E+03  0.12874796608E+03  0.00000000000E+00 0. -1.
         -3    1    6    6    0  502  0.45108224150E+02 -0.17953671079E+01  0.46372416985E+02  0.64717665951E+02  0.00000000000E+00 0.  1.
<mgrwt>
<rscale>  0 0.86738715E+03</rscale>
<asrwt>0</asrwt>
<pdfrwt beam="1">  1        1 0.18933599E+00 0.86738715E+03</pdfrwt>
<pdfrwt beam="2">  1       -2 0.11559976E+00 0.86738715E+03</pdfrwt>
<totfact> 0.52487786E+00</totfact>
</mgrwt>
</event>
<event>
12    3  0.1176505E-007  0.6536170E+03  0.7818608E-02  0.9800016E-01
         -2   -1    0    0    0  501 -0.00000000000E+00  0.00000000000E+00  0.72481365278E+03  0.72481365278E+03  0.00000000000E+00 0.  1.
          1   -1    0    0  501    0  0.00000000000E+00 -0.00000000000E+00 -0.88652783168E+03  0.88652783168E+03  0.00000000000E+00 0. -1.
        -24    2    1    2    0    0 -0.55918054939E+03 -0.11328474517E+03 -0.45373125291E+03  0.73345255866E+03  0.81020279136E+02 0.  0.
    5000000    2    1    2    0    0  0.55918054939E+03  0.11328474517E+03  0.29201707402E+03  0.87788892580E+03  0.59991555591E+03 0.  0.
        -24    2    4    4    0    0  0.23664750482E+03 -0.17828495763E+03  0.31053204058E+03  0.43641978819E+03  0.79022247719E+02 0.  0.
         24    2    4    4    0    0  0.32253304457E+03  0.29156970280E+03 -0.18514966569E+02  0.44146913762E+03  0.74241087327E+02 0.  0.
         11    1    5    5    0    0  0.16232511320E+03 -0.13655454864E+03  0.16905118802E+03  0.27124691943E+03  0.00000000000E+00 0. -1.
        -12    1    5    5    0    0  0.74322391628E+02 -0.41730408993E+02  0.14148085256E+03  0.16517286876E+03  0.00000000000E+00 0.  1.
         15    1    3    3    0    0 -0.28028539413E+03 -0.65124925121E+02 -0.27918412754E+03  0.40093402554E+03  0.17770000000E+01 0. -1.
        -16    1    3    3    0    0 -0.27889515526E+03 -0.48159820050E+02 -0.17454712538E+03  0.33251853313E+03  0.00000000000E+00 0.  1.
          2    1    6    6  502    0  0.18466207758E+03  0.12559614472E+03 -0.30342018987E+02  0.22537771092E+03  0.00000000000E+00 0. -1.
         -1    1    6    6    0  502  0.13787096699E+03  0.16597355808E+03  0.11827052418E+02  0.21609142669E+03  0.00000000000E+00 0.  1.
<mgrwt>
<rscale>  0 0.65361700E+03</rscale>
<asrwt>0</asrwt>
<pdfrwt beam="1">  1        1 0.13638890E+00 0.65361700E+03</pdfrwt>
<pdfrwt beam="2">  1       -2 0.11150979E+00 0.65361700E+03</pdfrwt>
<totfact> 0.10760738E+01</totfact>
</mgrwt>
</event>
<event>
12    3  0.1176505E-007  0.6650446E+03  0.7818608E-02  0.9778952E-01
         -2   -1    0    0    0  501 -0.00000000000E+00  0.00000000000E+00  0.18554594824E+04  0.18554594824E+04  0.00000000000E+00 0.  1.
          1   -1    0    0  501    0  0.00000000000E+00 -0.00000000000E+00 -0.77468703989E+03  0.77468703989E+03  0.00000000000E+00 0. -1.
        -24    2    1    2    0    0 -0.13605785621E+03  0.51165692840E+03 -0.57817828806E+03  0.78805920119E+03  0.80265927898E+02 0.  0.
    5000000    2    1    2    0    0  0.13605785621E+03 -0.51165692840E+03  0.16589507306E+04  0.18420873211E+04  0.60071925183E+03 0.  0.
        -24    2    4    4    0    0  0.34201172924E+03 -0.16413193842E+03  0.74885875058E+03  0.84321793894E+03  0.79471680983E+02 0.  0.
         24    2    4    4    0    0 -0.20595387303E+03 -0.34752498997E+03  0.91009198002E+03  0.99886938220E+03  0.79259157930E+02 0.  0.
         13    1    5    5    0    0  0.10571998887E+03 -0.19442779664E+02  0.25917441513E+03  0.28058174421E+03  0.00000000000E+00 0. -1.
        -14    1    5    5    0    0  0.23629174037E+03 -0.14468915876E+03  0.48968433546E+03  0.56263619473E+03  0.00000000000E+00 0.  1.
         15    1    3    3    0    0 -0.14323284385E+02  0.20541882726E+03 -0.22529378234E+03  0.30522532194E+03  0.17770000000E+01 0. -1.
        -16    1    3    3    0    0 -0.12173457182E+03  0.30623810114E+03 -0.35288450572E+03  0.48283387925E+03  0.00000000000E+00 0.  1.
          4    1    6    6  502    0 -0.18713026910E+03 -0.25888435726E+03  0.67020465244E+03  0.74243728638E+03  0.00000000000E+00 0. -1.
         -3    1    6    6    0  502 -0.18823603932E+02 -0.88640632710E+02  0.23988732758E+03  0.25643209582E+03  0.00000000000E+00 0.  1.
<mgrwt>
<rscale>  0 0.66504460E+03</rscale>
<asrwt>0</asrwt>
<pdfrwt beam="1">  1        1 0.11918262E+00 0.66504460E+03</pdfrwt>
<pdfrwt beam="2">  1       -2 0.28545530E+00 0.66504460E+03</pdfrwt>
<totfact> 0.84686361E-01</totfact>
</mgrwt>
</event>
<event>
12    3  0.1176505E-007  0.1207017E+04  0.7818608E-02  0.9106737E-01
          1   -1    0    0  501    0  0.00000000000E+00  0.00000000000E+00  0.12243842653E+04  0.12243842653E+04  0.00000000000E+00 0. -1.
         -2   -1    0    0    0  501 -0.00000000000E+00 -0.00000000000E+00 -0.13403047692E+04  0.13403047692E+04  0.00000000000E+00 0.  1.
        -24    2    1    2    0    0 -0.10086486651E+04  0.55141793387E+03  0.32101142981E+03  0.11962275018E+04  0.80486213087E+02 0.  0.
    5000000    2    1    2    0    0  0.10086486651E+04 -0.55141793387E+03 -0.43693193367E+03  0.13684615327E+04  0.60028625218E+03 0.  0.
        -24    2    4    4    0    0  0.64905936859E+03 -0.60836229701E+03 -0.43978911217E+03  0.99562563880E+03  0.80456205940E+02 0.  0.
         24    2    4    4    0    0  0.35958929651E+03  0.56944363142E+02  0.28571784990E+01  0.37283589395E+03  0.80320095187E+02 0.  0.
         11    1    5    5    0    0  0.41340330589E+03 -0.43565988798E+03 -0.28048109550E+03  0.66285102116E+03  0.00000000000E+00 0. -1.
        -12    1    5    5    0    0  0.23565606270E+03 -0.17270240903E+03 -0.15930801667E+03  0.33277461764E+03  0.00000000000E+00 0.  1.
         15    1    3    3    0    0 -0.65383902544E+03  0.33266602545E+03  0.23775707006E+03  0.77117036884E+03  0.17770000000E+01 0. -1.
        -16    1    3    3    0    0 -0.35480963965E+03  0.21875190842E+03  0.83254359755E+02  0.42505713292E+03  0.00000000000E+00 0.  1.
          4    1    6    6  502    0  0.28199910920E+03  0.73716317269E+02  0.17968460252E+02  0.29202818115E+03  0.00000000000E+00 0. -1.
         -3    1    6    6    0  502  0.77590187309E+02 -0.16771954127E+02 -0.15111281753E+02  0.80807712801E+02  0.00000000000E+00 0.  1.
<mgrwt>
<rscale>  0 0.12070171E+04</rscale>
<asrwt>0</asrwt>
<pdfrwt beam="1">  1        1 0.18836681E+00 0.12070171E+04</pdfrwt>
<pdfrwt beam="2">  1       -2 0.20620073E+00 0.12070171E+04</pdfrwt>
<totfact> 0.10609669E+00</totfact>
</mgrwt>
</event>
<event>
12    3  0.1176505E-007  0.9882180E+03  0.7818608E-02  0.9321562E-01
          1   -1    0    0  501    0  0.00000000000E+00  0.00000000000E+00  0.78866437822E+03  0.78866437822E+03  0.00000000000E+00 0. -1.
         -2   -1    0    0    0  501 -0.00000000000E+00 -0.00000000000E+00 -0.12493440742E+04  0.12493440742E+04  0.00000000000E+00 0.  1.
        -24    2    1    2    0    0 -0.87585423312E+03 -0.20655984290E+03 -0.18346948821E+03  0.92151798911E+03  0.75807287110E+02 0.  0.
    5000000    2    1    2    0    0  0.87585423312E+03  0.20655984290E+03 -0.27721020775E+03  0.11164904633E+04  0.59993153686E+03 0.  0.
        -24    2    4    4    0    0  0.38444947365E+03  0.38786544559E+03 -0.13270922323E+03  0.56779661683E+03  0.80871864581E+02 0.  0.
         24    2    4    4    0    0  0.49140475947E+03 -0.18130560269E+03 -0.14450098451E+03  0.54869384644E+03  0.76380909934E+02 0.  0.
         13    1    5    5    0    0  0.23752659215E+03  0.19704276104E+03 -0.10188744561E+03  0.32500120497E+03  0.00000000000E+00 0. -1.
        -14    1    5    5    0    0  0.14692288151E+03  0.19082268454E+03 -0.30821777624E+02  0.24279541186E+03  0.00000000000E+00 0.  1.
         15    1    3    3    0    0 -0.15397078287E+03 -0.39313204488E+02 -0.62185664669E+02  0.17065387381E+03  0.17770000000E+01 0. -1.
        -16    1    3    3    0    0 -0.72188345025E+03 -0.16724663841E+03 -0.12128382354E+03  0.75086411531E+03  0.00000000000E+00 0.  1.
          4    1    6    6  502    0  0.27777416283E+03 -0.71328467018E+02 -0.10380678925E+03  0.30499522166E+03  0.00000000000E+00 0. -1.
         -3    1    6    6    0  502  0.21363059664E+03 -0.10997713567E+03 -0.40694195265E+02  0.24369862478E+03  0.00000000000E+00 0.  1.
<mgrwt>
<rscale>  0 0.98821804E+03</rscale>
<asrwt>0</asrwt>
<pdfrwt beam="1">  1        1 0.12133298E+00 0.98821804E+03</pdfrwt>
<pdfrwt beam="2">  1       -2 0.19220678E+00 0.98821804E+03</pdfrwt>
<totfact> 0.29633803E+00</totfact>
</mgrwt>
</event>
<event>
12    3  0.1176505E-007  0.5150933E+03  0.7818608E-02  0.1009913E+00
          1   -1    0    0  501    0  0.00000000000E+00  0.00000000000E+00  0.19565223352E+03  0.19565223352E+03  0.00000000000E+00 0. -1.
         -2   -1    0    0    0  501 -0.00000000000E+00 -0.00000000000E+00 -0.16683283116E+04  0.16683283116E+04  0.00000000000E+00 0.  1.
        -24    2    1    2    0    0 -0.14300800138E+03  0.32776791110E+03 -0.86053035716E+03  0.93525691782E+03  0.79434971761E+02 0.  0.
    5000000    2    1    2    0    0  0.14300800138E+03 -0.32776791110E+03 -0.61214572095E+03  0.92872362733E+03  0.59993508005E+03 0.  0.
        -24    2    4    4    0    0  0.34279416362E+03 -0.86455855891E+02 -0.23686243867E+03  0.43341072623E+03  0.82210638751E+02 0.  0.
         24    2    4    4    0    0 -0.19978616225E+03 -0.24131205521E+03 -0.37528328227E+03  0.49531290110E+03  0.79695102900E+02 0.  0.
         11    1    5    5    0    0  0.95311068401E+02 -0.77545569976E+01 -0.26571673878E+02  0.99249114690E+02  0.00000000000E+00 0. -1.
        -12    1    5    5    0    0  0.24748309522E+03 -0.78701298894E+02 -0.21029076480E+03  0.33416161154E+03  0.00000000000E+00 0.  1.
         15    1    3    3    0    0 -0.36272209825E+02  0.48991049995E+02 -0.88058182351E+02  0.10711301225E+03  0.17770000000E+01 0. -1.
        -16    1    3    3    0    0 -0.10673579155E+03  0.27877686111E+03 -0.77247217481E+03  0.82814390557E+03  0.00000000000E+00 0.  1.
          4    1    6    6  502    0 -0.82970057404E+02 -0.73124993352E+02 -0.82284028098E+02  0.13784758380E+03  0.00000000000E+00 0. -1.
         -3    1    6    6    0  502 -0.11681610484E+03 -0.16818706186E+03 -0.29299925418E+03  0.35746531730E+03  0.00000000000E+00 0.  1.
<mgrwt>
<rscale>  0 0.51509330E+03</rscale>
<asrwt>0</asrwt>
<pdfrwt beam="1">  1        1 0.30100344E-01 0.51509330E+03</pdfrwt>
<pdfrwt beam="2">  1       -2 0.25666589E+00 0.51509330E+03</pdfrwt>
<totfact> 0.83008468E+00</totfact>
</mgrwt>
</event>
<event>
12    3  0.1176505E-007  0.1190368E+04  0.7818608E-02  0.9121329E-01
          1   -1    0    0  501    0  0.00000000000E+00  0.00000000000E+00  0.16392369597E+04  0.16392369597E+04  0.00000000000E+00 0. -1.
         -2   -1    0    0    0  501 -0.00000000000E+00 -0.00000000000E+00 -0.88225171408E+03  0.88225171408E+03  0.00000000000E+00 0.  1.
        -24    2    1    2    0    0 -0.10925753798E+04  0.27109630406E+03  0.39371198271E+03  0.11951589973E+04  0.78624022935E+02 0.  0.
    5000000    2    1    2    0    0  0.10925753798E+04 -0.27109630406E+03  0.36327326290E+03  0.13263296764E+04  0.59997398306E+03 0.  0.
        -24    2    4    4    0    0  0.14567113941E+03  0.15674241324E+03  0.23168515433E+02  0.22996075078E+03  0.80974698674E+02 0.  0.
         24    2    4    4    0    0  0.94690424039E+03 -0.42783871730E+03  0.34010474746E+03  0.10963689256E+04  0.81731103856E+02 0.  0.
         11    1    5    5    0    0  0.10382742943E+03  0.10026376216E+03  0.52785477909E+02  0.15368560044E+03  0.00000000000E+00 0. -1.
        -12    1    5    5    0    0  0.41843709983E+02  0.56478651079E+02 -0.29616962476E+02  0.76275150338E+02  0.00000000000E+00 0.  1.
         15    1    3    3    0    0 -0.58711955577E+03  0.16843540655E+03  0.24764731605E+03  0.65909954470E+03  0.17770000000E+01 0. -1.
        -16    1    3    3    0    0 -0.50545582403E+03  0.10266089751E+03  0.14606466666E+03  0.53605945265E+03  0.00000000000E+00 0.  1.
          2    1    6    6  502    0  0.34567100501E+03 -0.17248637857E+03  0.16512341164E+03  0.42012585682E+03  0.00000000000E+00 0. -1.
         -1    1    6    6    0  502  0.60123323538E+03 -0.25535233872E+03  0.17498133583E+03  0.67624306880E+03  0.00000000000E+00 0.  1.
<mgrwt>
<rscale>  0 0.11903680E+04</rscale>
<asrwt>0</asrwt>
<pdfrwt beam="1">  1        1 0.25219030E+00 0.11903680E+04</pdfrwt>
<pdfrwt beam="2">  1       -2 0.13573103E+00 0.11903680E+04</pdfrwt>
<totfact> 0.17510968E+00</totfact>
</mgrwt>
</event>
<event>
12    3  0.1176505E-007  0.5713805E+03  0.7818608E-02  0.9966628E-01
          1   -1    0    0  501    0  0.00000000000E+00  0.00000000000E+00  0.14615822270E+04  0.14615822270E+04  0.00000000000E+00 0. -1.
         -2   -1    0    0    0  501 -0.00000000000E+00 -0.00000000000E+00 -0.38433068090E+03  0.38433068090E+03  0.00000000000E+00 0.  1.
        -24    2    1    2    0    0  0.55531977693E+03  0.39286055321E+02  0.80857384298E+03  0.98467218790E+03  0.76578125265E+02 0.  0.
    5000000    2    1    2    0    0 -0.55531977693E+03 -0.39286055321E+02  0.26867770316E+03  0.86124072003E+03  0.59968693572E+03 0.  0.
        -24    2    4    4    0    0 -0.13920397381E+03 -0.46452171920E+02 -0.17911984164E+03  0.24480330265E+03  0.79430401737E+02 0.  0.
         24    2    4    4    0    0 -0.41611580313E+03  0.71661165991E+01  0.44779754480E+03  0.61643741738E+03  0.79175334406E+02 0.  0.
         11    1    5    5    0    0 -0.19938341578E+02 -0.42222557610E+02 -0.61762901734E+02  0.77426984098E+02  0.00000000000E+00 0. -1.
        -12    1    5    5    0    0 -0.11926563223E+03 -0.42296143105E+01 -0.11735693991E+03  0.16737631856E+03  0.00000000000E+00 0.  1.
         15    1    3    3    0    0  0.24141215909E+03  0.41438395266E+01  0.28869698588E+03  0.37635901656E+03  0.17770000000E+01 0. -1.
        -16    1    3    3    0    0  0.31390761785E+03  0.35142215795E+02  0.51987685710E+03  0.60831317133E+03  0.00000000000E+00 0.  1.
          4    1    6    6  502    0 -0.39326558385E+03 -0.54479378855E+01  0.43771434060E+03  0.58845674730E+03  0.00000000000E+00 0. -1.
         -1    1    6    6    0  502 -0.22850219273E+02  0.12614054485E+02  0.10083204198E+02  0.27980670083E+02  0.00000000000E+00 0.  1.
<mgrwt>
<rscale>  0 0.57138049E+03</rscale>
<asrwt>0</asrwt>
<pdfrwt beam="1">  1        1 0.22485880E+00 0.57138049E+03</pdfrwt>
<pdfrwt beam="2">  1       -2 0.59127798E-01 0.57138049E+03</pdfrwt>
<totfact> 0.17235115E+01</totfact>
</mgrwt>
</event>
<event>
12    3  0.1176505E-007  0.4297444E+03  0.7818608E-02  0.1033941E+00
         -2   -1    0    0    0  501 -0.00000000000E+00  0.00000000000E+00  0.17771373049E+03  0.17771373049E+03  0.00000000000E+00 0.  1.
          1   -1    0    0  501    0  0.00000000000E+00 -0.00000000000E+00 -0.13037590673E+04  0.13037590673E+04  0.00000000000E+00 0. -1.
        -24    2    1    2    0    0  0.49348232280E+02  0.22420841367E+03 -0.61245440666E+03  0.65890638872E+03  0.79702999161E+02 0.  0.
    5000000    2    1    2    0    0 -0.49348232280E+02 -0.22420841367E+03 -0.51359093010E+03  0.82256640903E+03  0.60011265024E+03 0.  0.
        -24    2    4    4    0    0  0.10479049485E+03  0.16176159701E+03 -0.10168597652E+03  0.23180433676E+03  0.79027530916E+02 0.  0.
         24    2    4    4    0    0 -0.15413872713E+03 -0.38597001067E+03 -0.41190495358E+03  0.59076207227E+03  0.81256008420E+02 0.  0.
         11    1    5    5    0    0 -0.89207181790E+01  0.35350739380E+02 -0.67890776731E+01  0.37085651716E+02  0.00000000000E+00 0. -1.
        -12    1    5    5    0    0  0.11371121303E+03  0.12641085763E+03 -0.94896898846E+02  0.19471868504E+03  0.00000000000E+00 0.  1.
         15    1    3    3    0    0  0.28312703669E+02  0.27486331466E+02 -0.57669947740E+02  0.69900559424E+02  0.17770000000E+01 0. -1.
        -16    1    3    3    0    0  0.21035528611E+02  0.19672208220E+03 -0.55478445892E+03  0.58900582930E+03  0.00000000000E+00 0.  1.
          2    1    6    6  502    0 -0.97420481325E+02 -0.23573714584E+03 -0.30614230829E+03  0.39847944117E+03  0.00000000000E+00 0. -1.
         -1    1    6    6    0  502 -0.56718245803E+02 -0.15023286483E+03 -0.10576264530E+03  0.19228263110E+03  0.00000000000E+00 0.  1.
<mgrwt>
<rscale>  0 0.42974443E+03</rscale>
<asrwt>0</asrwt>
<pdfrwt beam="1">  1        1 0.20057833E+00 0.42974443E+03</pdfrwt>
<pdfrwt beam="2">  1       -2 0.27340573E-01 0.42974443E+03</pdfrwt>
<totfact> 0.10139963E+02</totfact>
</mgrwt>
</event>
<event>
12    3  0.1176505E-007  0.3451083E+03  0.7818608E-02  0.1064641E+00
         -2   -1    0    0    0  501 -0.00000000000E+00  0.00000000000E+00  0.14379416507E+03  0.14379416507E+03  0.00000000000E+00 0.  1.
          1   -1    0    0  501    0  0.00000000000E+00 -0.00000000000E+00 -0.29247588083E+04  0.29247588083E+04  0.00000000000E+00 0. -1.
        -24    2    1    2    0    0  0.12582803249E+03 -0.13422038562E+03 -0.22122652544E+04  0.22216504314E+04  0.88120812511E+02 0.  0.
    5000000    2    1    2    0    0 -0.12582803249E+03  0.13422038562E+03 -0.56869938884E+03  0.84690254205E+03  0.59998092901E+03 0.  0.
        -24    2    4    4    0    0 -0.15125058556E+03 -0.14668757005E+03 -0.49560290584E+03  0.54414853726E+03  0.77983379501E+02 0.  0.
         24    2    4    4    0    0  0.25422553072E+02  0.28090795568E+03 -0.73096483002E+02  0.30275400479E+03  0.82227159885E+02 0.  0.
         13    1    5    5    0    0  0.22089454683E+01 -0.32650764507E+01 -0.64265652917E+02  0.64386445073E+02  0.00000000000E+00 0. -1.
        -14    1    5    5    0    0 -0.15345953103E+03 -0.14342249360E+03 -0.43133725293E+03  0.47976209218E+03  0.00000000000E+00 0.  1.
         15    1    3    3    0    0  0.97391481905E+02 -0.74872373040E+02 -0.17978050176E+04  0.18019980610E+04  0.17770000000E+01 0. -1.
        -16    1    3    3    0    0  0.28436550587E+02 -0.59348012584E+02 -0.41446023684E+03  0.41965237033E+03  0.00000000000E+00 0.  1.
          2    1    6    6  502    0  0.43140228708E+02  0.17914275186E+03 -0.76231866743E+02  0.19941038685E+03  0.00000000000E+00 0. -1.
         -1    1    6    6    0  502 -0.17717675636E+02  0.10176520381E+03  0.31353837413E+01  0.10334361794E+03  0.00000000000E+00 0.  1.
<mgrwt>
<rscale>  0 0.34510825E+03</rscale>
<asrwt>0</asrwt>
<pdfrwt beam="1">  1        1 0.44996289E+00 0.34510825E+03</pdfrwt>
<pdfrwt beam="2">  1       -2 0.22122179E-01 0.34510825E+03</pdfrwt>
<totfact> 0.12380100E+01</totfact>
</mgrwt>
</event>
<event>
12    3  0.1176505E-007  0.4474807E+03  0.7818608E-02  0.1028476E+00
          1   -1    0    0  501    0  0.00000000000E+00  0.00000000000E+00  0.24826363982E+03  0.24826363982E+03  0.00000000000E+00 0. -1.
         -2   -1    0    0    0  501 -0.00000000000E+00 -0.00000000000E+00 -0.11000049017E+04  0.11000049017E+04  0.00000000000E+00 0.  1.
        -24    2    1    2    0    0 -0.28400701239E+03  0.11876057330E+03 -0.89584379824E+02  0.33060679479E+03  0.80693461917E+02 0.  0.
    5000000    2    1    2    0    0  0.28400701239E+03 -0.11876057330E+03 -0.76215688205E+03  0.10176617467E+04  0.59999021744E+03 0.  0.
        -24    2    4    4    0    0 -0.12833868873E+03 -0.18446973933E+02 -0.47327525302E+03  0.49760248063E+03  0.82508507091E+02 0.  0.
         24    2    4    4    0    0  0.41234570112E+03 -0.10031359937E+03 -0.28888162903E+03  0.52005926608E+03  0.83170001789E+02 0.  0.
         11    1    5    5    0    0 -0.52489140685E+02 -0.47250519634E+02 -0.25982773711E+03  0.26925485041E+03  0.00000000000E+00 0. -1.
        -12    1    5    5    0    0 -0.75849548046E+02  0.28803545701E+02 -0.21344751590E+03  0.22834763022E+03  0.00000000000E+00 0.  1.
         15    1    3    3    0    0 -0.77277560924E+02 -0.34736131429E+01 -0.12520263344E+02  0.78382409594E+02  0.17770000000E+01 0. -1.
        -16    1    3    3    0    0 -0.20672945146E+03  0.12223418644E+03 -0.77064116480E+02  0.25222438520E+03  0.00000000000E+00 0.  1.
          2    1    6    6  502    0  0.31296475894E+03 -0.61369037425E+02 -0.25416947743E+03  0.40781763369E+03  0.00000000000E+00 0. -1.
         -1    1    6    6    0  502  0.99380942179E+02 -0.38944561943E+02 -0.34712151605E+02  0.11224163239E+03  0.00000000000E+00 0.  1.
<mgrwt>
<rscale>  0 0.44748066E+03</rscale>
<asrwt>0</asrwt>
<pdfrwt beam="1">  1        1 0.38194406E-01 0.44748066E+03</pdfrwt>
<pdfrwt beam="2">  1       -2 0.16923152E+00 0.44748066E+03</pdfrwt>
<totfact> 0.22143494E+01</totfact>
</mgrwt>
</event>
<event>
12    3  0.1176505E-007  0.7257768E+03  0.7818608E-02  0.9674138E-01
         -2   -1    0    0    0  501 -0.00000000000E+00  0.00000000000E+00  0.58978606924E+03  0.58978606924E+03  0.00000000000E+00 0.  1.
          1   -1    0    0  501    0  0.00000000000E+00 -0.00000000000E+00 -0.10086428377E+04  0.10086428377E+04  0.00000000000E+00 0. -1.
        -24    2    1    2    0    0 -0.28016135694E+03  0.58123926460E+03 -0.27397539877E+03  0.70550840250E+03  0.79687629072E+02 0.  0.
    5000000    2    1    2    0    0  0.28016135694E+03 -0.58123926460E+03 -0.14488136967E+03  0.89292050443E+03  0.59998912267E+03 0.  0.
        -24    2    4    4    0    0  0.35589102326E+03 -0.21213193890E+03  0.10375652266E+03  0.43440191243E+03  0.79254183442E+02 0.  0.
         24    2    4    4    0    0 -0.75729666321E+02 -0.36910732570E+03 -0.24863789232E+03  0.45851859200E+03  0.80270152979E+02 0.  0.
         11    1    5    5    0    0  0.64510749196E+02 -0.16194573039E+02  0.39744776146E+02  0.77482566998E+02  0.00000000000E+00 0. -1.
        -12    1    5    5    0    0  0.29138027407E+03 -0.19593736586E+03  0.64011746510E+02  0.35691934544E+03  0.00000000000E+00 0.  1.
         15    1    3    3    0    0 -0.17268577699E+03  0.27924270779E+03 -0.11669096722E+03  0.34844914548E+03  0.17770000000E+01 0. -1.
        -16    1    3    3    0    0 -0.10747557995E+03  0.30199655681E+03 -0.15728443155E+03  0.35705925701E+03  0.00000000000E+00 0.  1.
          2    1    6    6  502    0 -0.75654317574E+02 -0.17178472940E+03 -0.11342876099E+03  0.21931633054E+03  0.00000000000E+00 0. -1.
         -3    1    6    6    0  502 -0.75348747274E-01 -0.19732259631E+03 -0.13520913134E+03  0.23920226146E+03  0.00000000000E+00 0.  1.
<mgrwt>
<rscale>  0 0.72577677E+03</rscale>
<asrwt>0</asrwt>
<pdfrwt beam="1">  1        1 0.15517582E+00 0.72577677E+03</pdfrwt>
<pdfrwt beam="2">  1       -2 0.90736318E-01 0.72577677E+03</pdfrwt>
<totfact> 0.13907884E+01</totfact>
</mgrwt>
</event>
<event>
12    3  0.1176505E-007  0.7685564E+03  0.7818608E-02  0.9606680E-01
          1   -1    0    0  501    0  0.00000000000E+00  0.00000000000E+00  0.47279732439E+03  0.47279732439E+03  0.00000000000E+00 0. -1.
         -2   -1    0    0    0  501 -0.00000000000E+00 -0.00000000000E+00 -0.15171803388E+04  0.15171803388E+04  0.00000000000E+00 0.  1.
        -24    2    1    2    0    0 -0.68904159913E+03 -0.10188376104E+03 -0.74460239775E+03  0.10229835199E+04  0.83089861559E+02 0.  0.
    5000000    2    1    2    0    0  0.68904159913E+03  0.10188376104E+03 -0.29978061662E+03  0.96699414329E+03  0.60004218932E+03 0.  0.
        -24    2    4    4    0    0  0.75516237430E+03  0.12624908929E+03 -0.35408369958E+03  0.84729056033E+03  0.79479451553E+02 0.  0.
         24    2    4    4    0    0 -0.66120775171E+02 -0.24365328251E+02  0.54303082956E+02  0.11970358296E+03  0.80090553902E+02 0.  0.
         11    1    5    5    0    0  0.64505070110E+03  0.10425323220E+03 -0.33170857089E+03  0.73279582382E+03  0.00000000000E+00 0. -1.
        -12    1    5    5    0    0  0.11011167320E+03  0.21995857093E+02 -0.22375128682E+02  0.11449473651E+03  0.00000000000E+00 0.  1.
         15    1    3    3    0    0 -0.60843285016E+03 -0.85718088468E+02 -0.69180795782E+03  0.92527808364E+03  0.17770000000E+01 0. -1.
        -16    1    3    3    0    0 -0.80608748968E+02 -0.16165672569E+02 -0.52794439934E+02  0.97705436224E+02  0.00000000000E+00 0.  1.
          4    1    6    6  502    0 -0.38400376092E+02 -0.26938867406E+02  0.72567140177E+02  0.86407646043E+02  0.00000000000E+00 0. -1.
         -3    1    6    6    0  502 -0.27720399079E+02  0.25735391555E+01 -0.18264057221E+02  0.33295936915E+02  0.00000000000E+00 0.  1.
<mgrwt>
<rscale>  0 0.76855636E+03</rscale>
<asrwt>0</asrwt>
<pdfrwt beam="1">  1        1 0.72738051E-01 0.76855636E+03</pdfrwt>
<pdfrwt beam="2">  1       -2 0.23341236E+00 0.76855636E+03</pdfrwt>
<totfact> 0.35063377E+00</totfact>
</mgrwt>
</event>
<event>
12    3  0.1176505E-007  0.8052975E+03  0.7818608E-02  0.9552381E-01
         -2   -1    0    0    0  501 -0.00000000000E+00  0.00000000000E+00  0.13764665471E+04  0.13764665471E+04  0.00000000000E+00 0.  1.
          1   -1    0    0  501    0  0.00000000000E+00 -0.00000000000E+00 -0.73856337170E+03  0.73856337170E+03  0.00000000000E+00 0. -1.
        -24    2    1    2    0    0  0.17356494635E+02 -0.74312738350E+03 -0.27227714837E+03  0.79557350338E+03  0.79137840191E+02 0.  0.
    5000000    2    1    2    0    0 -0.17356494635E+02  0.74312738350E+03  0.91018032376E+03  0.13194564154E+04  0.59999787862E+03 0.  0.
        -24    2    4    4    0    0 -0.14821790162E+03  0.68540906336E+03  0.46579384527E+03  0.84577709169E+03  0.81368618274E+02 0.  0.
         24    2    4    4    0    0  0.13086140699E+03  0.57718320138E+02  0.44438647849E+03  0.47367932370E+03  0.80228717569E+02 0.  0.
         11    1    5    5    0    0 -0.84681805325E+02  0.26467401600E+03  0.21956484175E+03  0.35416389234E+03  0.00000000000E+00 0. -1.
        -12    1    5    5    0    0 -0.63536096297E+02  0.42073504736E+03  0.24622900352E+03  0.49161319935E+03  0.00000000000E+00 0.  1.
         15    1    3    3    0    0  0.28114919309E+02 -0.25370528744E+03 -0.12585885883E+03  0.28460574773E+03  0.17770000000E+01 0. -1.
        -16    1    3    3    0    0 -0.10758424674E+02 -0.48942209606E+03 -0.14641828954E+03  0.51096775566E+03  0.00000000000E+00 0.  1.
          4    1    6    6  502    0  0.40207375946E+02  0.59394951991E+02  0.22951724989E+03  0.24046322255E+03  0.00000000000E+00 0. -1.
         -3    1    6    6    0  502  0.90654031041E+02 -0.16766318530E+01  0.21486922859E+03  0.23321610115E+03  0.00000000000E+00 0.  1.
<mgrwt>
<rscale>  0 0.80529753E+03</rscale>
<asrwt>0</asrwt>
<pdfrwt beam="1">  1        1 0.11362513E+00 0.80529753E+03</pdfrwt>
<pdfrwt beam="2">  1       -2 0.21176408E+00 0.80529753E+03</pdfrwt>
<totfact> 0.25056348E+00</totfact>
</mgrwt>
</event>
<event>
12    3  0.1176505E-007  0.1545752E+04  0.7818608E-02  0.8854586E-01
         -2   -1    0    0    0  501 -0.00000000000E+00  0.00000000000E+00  0.16406094802E+04  0.16406094802E+04  0.00000000000E+00 0.  1.
          1   -1    0    0  501    0  0.00000000000E+00 -0.00000000000E+00 -0.20247440238E+04  0.20247440238E+04  0.00000000000E+00 0. -1.
        -24    2    1    2    0    0 -0.11035871070E+04 -0.10252330125E+04  0.75177533453E+03  0.16856263995E+04  0.84634346357E+02 0.  0.
    5000000    2    1    2    0    0  0.11035871070E+04  0.10252330125E+04 -0.11359098781E+04  0.19797271045E+04  0.60001743676E+03 0.  0.
        -24    2    4    4    0    0  0.93954145820E+03  0.10567614152E+04 -0.10964191005E+04  0.17911183040E+04  0.80542501197E+02 0.  0.
         24    2    4    4    0    0  0.16404564877E+03 -0.31528402715E+02 -0.39490777622E+02  0.18860880052E+03  0.78158448408E+02 0.  0.
         11    1    5    5    0    0  0.15666560749E+03  0.13494239137E+03 -0.15081822589E+03  0.25592908944E+03  0.00000000000E+00 0. -1.
        -12    1    5    5    0    0  0.78287585071E+03  0.92181902380E+03 -0.94560087464E+03  0.15351892145E+04  0.00000000000E+00 0.  1.
         15    1    3    3    0    0 -0.68251027690E+03 -0.64374414687E+03  0.51306279520E+03  0.10693284782E+04  0.17770000000E+01 0. -1.
        -16    1    3    3    0    0 -0.42107683007E+03 -0.38148886559E+03  0.23871253934E+03  0.61629792132E+03  0.00000000000E+00 0.  1.
          2    1    6    6  502    0  0.34038230602E+02  0.37181230441E+01  0.21829577866E+02  0.40607339870E+02  0.00000000000E+00 0. -1.
         -3    1    6    6    0  502  0.13000741817E+03 -0.35246525759E+02 -0.61320355488E+02  0.14800146065E+03  0.00000000000E+00 0.  1.
<mgrwt>
<rscale>  0 0.15457523E+04</rscale>
<asrwt>0</asrwt>
<pdfrwt beam="1">  1        1 0.31149908E+00 0.15457523E+04</pdfrwt>
<pdfrwt beam="2">  1       -2 0.25240146E+00 0.15457523E+04</pdfrwt>
<totfact> 0.14599629E-01</totfact>
</mgrwt>
</event>
<event>
12    3  0.1176505E-007  0.6912978E+03  0.7818608E-02  0.9732231E-01
          1   -1    0    0  501    0  0.00000000000E+00  0.00000000000E+00  0.11434629744E+04  0.11434629744E+04  0.00000000000E+00 0. -1.
         -2   -1    0    0    0  501 -0.00000000000E+00 -0.00000000000E+00 -0.46243825418E+03  0.46243825418E+03  0.00000000000E+00 0.  1.
        -24    2    1    2    0    0 -0.24141813240E+03 -0.54638434163E+03  0.21795933986E+03  0.64095455556E+03  0.80609584003E+02 0.  0.
    5000000    2    1    2    0    0  0.24141813240E+03  0.54638434163E+03  0.46306538038E+03  0.96494667303E+03  0.59989496735E+03 0.  0.
        -24    2    4    4    0    0  0.17672742375E+03  0.62879828264E+03  0.22905218936E+03  0.69675231939E+03  0.79868808542E+02 0.  0.
         24    2    4    4    0    0  0.64690708652E+02 -0.82413941006E+02  0.23401319102E+03  0.26819435363E+03  0.78670784227E+02 0.  0.
         11    1    5    5    0    0  0.71670550722E+02  0.38532855785E+03  0.11848229655E+03  0.40945429529E+03  0.00000000000E+00 0. -1.
        -12    1    5    5    0    0  0.10505687302E+03  0.24346972479E+03  0.11056989281E+03  0.28729802410E+03  0.00000000000E+00 0.  1.
         15    1    3    3    0    0 -0.11240014695E+03 -0.16390770583E+03  0.82279010073E+02  0.21511048857E+03  0.17770000000E+01 0. -1.
        -16    1    3    3    0    0 -0.12901798545E+03 -0.38247663580E+03  0.13568032979E+03  0.42584406699E+03  0.00000000000E+00 0.  1.
          2    1    6    6  502    0  0.19806030266E+01 -0.54344387014E+02  0.59310555050E+02  0.80467242581E+02  0.00000000000E+00 0. -1.
         -1    1    6    6    0  502  0.62710105625E+02 -0.28069553992E+02  0.17470263597E+03  0.18772711105E+03  0.00000000000E+00 0.  1.
<mgrwt>
<rscale>  0 0.69129783E+03</rscale>
<asrwt>0</asrwt>
<pdfrwt beam="1">  1        1 0.17591738E+00 0.69129783E+03</pdfrwt>
<pdfrwt beam="2">  1       -2 0.71144347E-01 0.69129783E+03</pdfrwt>
<totfact> 0.19108646E+01</totfact>
</mgrwt>
</event>
<event>
12    3  0.1176505E-007  0.9065994E+03  0.7818608E-02  0.9417369E-01
         -2   -1    0    0    0  501 -0.00000000000E+00  0.00000000000E+00  0.65140458101E+03  0.65140458101E+03  0.00000000000E+00 0.  1.
          1   -1    0    0  501    0  0.00000000000E+00 -0.00000000000E+00 -0.23644881504E+04  0.23644881504E+04  0.00000000000E+00 0. -1.
        -24    2    1    2    0    0  0.38275042478E+03  0.73030670072E+03  0.19630097689E+03  0.85125449007E+03  0.79084565878E+02 0.  0.
    5000000    2    1    2    0    0 -0.38275042478E+03 -0.73030670072E+03 -0.19093845462E+04  0.21646382413E+04  0.60005300226E+03 0.  0.
        -24    2    4    4    0    0  0.13908861854E+02 -0.54764992360E+03 -0.12789772870E+04  0.13936781722E+04  0.80262393134E+02 0.  0.
         24    2    4    4    0    0 -0.39665928664E+03 -0.18265677712E+03 -0.63040725928E+03  0.77096006914E+03  0.79145611103E+02 0.  0.
         11    1    5    5    0    0  0.17851080832E+02 -0.38200588251E+03 -0.97795328443E+03  0.10500665607E+04  0.00000000000E+00 0. -1.
        -12    1    5    5    0    0 -0.39422189777E+01 -0.16564404108E+03 -0.30102400252E+03  0.34361161146E+03  0.00000000000E+00 0.  1.
         15    1    3    3    0    0  0.33223143059E+03  0.66344548756E+03  0.19607073594E+03  0.76745327522E+03  0.17770000000E+01 0. -1.
        -16    1    3    3    0    0  0.50518994192E+02  0.66861213160E+02  0.23024095102E+00  0.83801214850E+02  0.00000000000E+00 0.  1.
          4    1    6    6  502    0 -0.28511166846E+03 -0.10706272454E+03 -0.48521375174E+03  0.57287300107E+03  0.00000000000E+00 0. -1.
         -3    1    6    6    0  502 -0.11154761817E+03 -0.75594052576E+02 -0.14519350755E+03  0.19808706808E+03  0.00000000000E+00 0.  1.
<mgrwt>
<rscale>  0 0.90659937E+03</rscale>
<asrwt>0</asrwt>
<pdfrwt beam="1">  1        1 0.36376741E+00 0.90659937E+03</pdfrwt>
<pdfrwt beam="2">  1       -2 0.10021609E+00 0.90659937E+03</pdfrwt>
<totfact> 0.12432538E+00</totfact>
</mgrwt>
</event>
<event>
12    3  0.1176505E-007  0.3344738E+03  0.7818608E-02  0.1069174E+00
         -2   -1    0    0    0  501 -0.00000000000E+00  0.00000000000E+00  0.40121688234E+03  0.40121688234E+03  0.00000000000E+00 0.  1.
          1   -1    0    0  501    0  0.00000000000E+00 -0.00000000000E+00 -0.55105244546E+03  0.55105244546E+03  0.00000000000E+00 0. -1.
        -24    2    1    2    0    0 -0.22835289599E+03 -0.14319750701E+03 -0.16562128122E+02  0.28109216482E+03  0.78025187685E+02 0.  0.
    5000000    2    1    2    0    0  0.22835289599E+03  0.14319750701E+03 -0.13327343499E+03  0.67117716298E+03  0.60005533454E+03 0.  0.
        -24    2    4    4    0    0  0.97809039892E+00  0.12862581342E+03 -0.32575476512E+03  0.35958596670E+03  0.81488305344E+02 0.  0.
         24    2    4    4    0    0  0.22737480559E+03  0.14571693587E+02  0.19248133013E+03  0.31159119628E+03  0.90157499297E+02 0.  0.
         13    1    5    5    0    0 -0.23284186407E+02  0.11638740768E+03 -0.21543133191E+03  0.24596512105E+03  0.00000000000E+00 0. -1.
        -14    1    5    5    0    0  0.24262276806E+02  0.12238405740E+02 -0.11032343321E+03  0.11362084565E+03  0.00000000000E+00 0.  1.
         15    1    3    3    0    0 -0.12814914515E+03 -0.12181898409E+03  0.26897936110E+01  0.17684021321E+03  0.17770000000E+01 0. -1.
        -16    1    3    3    0    0 -0.10020375084E+03 -0.21378522918E+02 -0.19251921733E+02  0.10425195161E+03  0.00000000000E+00 0.  1.
          2    1    6    6  502    0  0.61332720374E+02  0.43586707717E+02  0.45360012540E+02  0.87858035579E+02  0.00000000000E+00 0. -1.
         -1    1    6    6    0  502  0.16604208522E+03 -0.29015014131E+02  0.14712131759E+03  0.22373316070E+03  0.00000000000E+00 0.  1.
<mgrwt>
<rscale>  0 0.33447381E+03</rscale>
<asrwt>0</asrwt>
<pdfrwt beam="1">  1        1 0.84777300E-01 0.33447381E+03</pdfrwt>
<pdfrwt beam="2">  1       -2 0.61725674E-01 0.33447381E+03</pdfrwt>
<totfact> 0.86965032E+01</totfact>
</mgrwt>
</event>
<event>
12    3  0.1176505E-007  0.4663144E+03  0.7818608E-02  0.1022966E+00
         -2   -1    0    0    0  501 -0.00000000000E+00  0.00000000000E+00  0.10439859228E+04  0.10439859228E+04  0.00000000000E+00 0.  1.
          1   -1    0    0  501    0  0.00000000000E+00 -0.00000000000E+00 -0.31499104153E+03  0.31499104153E+03  0.00000000000E+00 0. -1.
        -24    2    1    2    0    0  0.28416409182E+03  0.23832208401E+03  0.54209626839E+02  0.38305077161E+03  0.79009892964E+02 0.  0.
    5000000    2    1    2    0    0 -0.28416409182E+03 -0.23832208401E+03  0.67478525442E+03  0.97592619270E+03  0.59962500550E+03 0.  0.
        -24    2    4    4    0    0 -0.94712765197E+02 -0.33074004981E+03  0.11372986681E+03  0.37123352514E+03  0.80748740808E+02 0.  0.
         24    2    4    4    0    0 -0.18945132662E+03  0.92417965795E+02  0.56105538761E+03  0.60469266756E+03  0.80232092612E+02 0.  0.
         11    1    5    5    0    0 -0.91299472808E+02 -0.22394079226E+03  0.50434213965E+02  0.24703983912E+03  0.00000000000E+00 0. -1.
        -12    1    5    5    0    0 -0.34132923887E+01 -0.10679925755E+03  0.63295652846E+02  0.12419368602E+03  0.00000000000E+00 0.  1.
         15    1    3    3    0    0  0.21847994921E+03  0.15962475482E+03  0.82485213338E+01  0.27071155570E+03  0.17770000000E+01 0. -1.
        -16    1    3    3    0    0  0.65684142605E+02  0.78697329197E+02  0.45961105505E+02  0.11233921591E+03  0.00000000000E+00 0.  1.
          2    1    6    6  502    0 -0.16048610199E+03  0.80182613580E+02  0.37153114912E+03  0.41257779293E+03  0.00000000000E+00 0. -1.
         -1    1    6    6    0  502 -0.28965224625E+02  0.12235352214E+02  0.18952423849E+03  0.19211487463E+03  0.00000000000E+00 0.  1.
<mgrwt>
<rscale>  0 0.46631439E+03</rscale>
<asrwt>0</asrwt>
<pdfrwt beam="1">  1        1 0.48460161E-01 0.46631439E+03</pdfrwt>
<pdfrwt beam="2">  1       -2 0.16061322E+00 0.46631439E+03</pdfrwt>
<totfact> 0.18768015E+01</totfact>
</mgrwt>
</event>
<event>
12    3  0.1176505E-007  0.2189590E+03  0.7818608E-02  0.1134662E+00
          1   -1    0    0  501    0  0.00000000000E+00  0.00000000000E+00  0.15318738305E+04  0.15318738305E+04  0.00000000000E+00 0. -1.
         -2   -1    0    0    0  501 -0.00000000000E+00 -0.00000000000E+00 -0.10302891025E+03  0.10302891025E+03  0.00000000000E+00 0.  1.
        -24    2    1    2    0    0 -0.50906419593E+02 -0.14634054772E+03  0.34843931581E+03  0.38936982170E+03  0.78688511136E+02 0.  0.
    5000000    2    1    2    0    0  0.50906419593E+02  0.14634054772E+03  0.10804056045E+04  0.12455329191E+04  0.60005746633E+03 0.  0.
        -24    2    4    4    0    0  0.88087578618E+01  0.16737453005E+03  0.11260751104E+04  0.11415856993E+04  0.84148245086E+02 0.  0.
         24    2    4    4    0    0  0.42097661732E+02 -0.21033982322E+02 -0.45669505922E+02  0.10394721976E+03  0.80651591356E+02 0.  0.
         11    1    5    5    0    0  0.29078657327E+02  0.16389976464E+03  0.97315383409E+03  0.98728774223E+03  0.00000000000E+00 0. -1.
        -12    1    5    5    0    0 -0.20269899465E+02  0.34747654109E+01  0.15292127631E+03  0.15429795711E+03  0.00000000000E+00 0.  1.
         15    1    3    3    0    0 -0.21358883994E+01 -0.48953088837E+02  0.43441627751E+02  0.65508012308E+02  0.17770000000E+01 0. -1.
        -16    1    3    3    0    0 -0.48770531194E+02 -0.97387458888E+02  0.30499768806E+03  0.32386180939E+03  0.00000000000E+00 0.  1.
          4    1    6    6  502    0  0.48888224969E+02  0.18916932932E+02 -0.30688521193E+02  0.60742853285E+02  0.00000000000E+00 0. -1.
         -3    1    6    6    0  502 -0.67905632377E+01 -0.39950915254E+02 -0.14980984728E+02  0.43204366471E+02  0.00000000000E+00 0.  1.
<mgrwt>
<rscale>  0 0.21895901E+03</rscale>
<asrwt>0</asrwt>
<pdfrwt beam="1">  1        1 0.23567288E+00 0.21895901E+03</pdfrwt>
<pdfrwt beam="2">  1       -2 0.15850603E-01 0.21895901E+03</pdfrwt>
<totfact> 0.19019698E+02</totfact>
</mgrwt>
</event>
<event>
12    3  0.1176505E-007  0.1012334E+04  0.7818608E-02  0.9295120E-01
         -2   -1    0    0    0  501 -0.00000000000E+00  0.00000000000E+00  0.23016355813E+04  0.23016355813E+04  0.00000000000E+00 0.  1.
          1   -1    0    0  501    0  0.00000000000E+00 -0.00000000000E+00 -0.65244193496E+03  0.65244193496E+03  0.00000000000E+00 0. -1.
        -24    2    1    2    0    0  0.90787279883E+03  0.26952152391E+03 -0.11441719497E+02  0.95039181705E+03  0.78986215570E+02 0.  0.
    5000000    2    1    2    0    0 -0.90787279883E+03 -0.26952152391E+03  0.16606353658E+04  0.20036856992E+04  0.60014305980E+03 0.  0.
        -24    2    4    4    0    0 -0.85011152984E+03 -0.65280000003E+02  0.10678332005E+04  0.13689383809E+04  0.82301002862E+02 0.  0.
         24    2    4    4    0    0 -0.57761268991E+02 -0.20424152391E+03  0.59280216532E+03  0.63474731828E+03  0.80242049880E+02 0.  0.
         13    1    5    5    0    0 -0.50841537199E+03 -0.79438619262E+02  0.63948321345E+03  0.82081390400E+03  0.00000000000E+00 0. -1.
        -14    1    5    5    0    0 -0.34169615785E+03  0.14158619260E+02  0.42834998702E+03  0.54812447689E+03  0.00000000000E+00 0.  1.
         15    1    3    3    0    0  0.66069035108E+03  0.22685952840E+03 -0.26954270635E+02  0.69907558681E+03  0.17770000000E+01 0. -1.
        -16    1    3    3    0    0  0.24718244775E+03  0.42661995511E+02  0.15512551138E+02  0.25131623023E+03  0.00000000000E+00 0.  1.
          4    1    6    6  502    0 -0.19082337692E+02 -0.11854506543E+02  0.23220104882E+02  0.32308485076E+02  0.00000000000E+00 0. -1.
         -3    1    6    6    0  502 -0.38678931300E+02 -0.19238701737E+03  0.56958206044E+03  0.60243883321E+03  0.00000000000E+00 0.  1.
<mgrwt>
<rscale>  0 0.10123338E+04</rscale>
<asrwt>0</asrwt>
<pdfrwt beam="1">  1        1 0.10037568E+00 0.10123338E+04</pdfrwt>
<pdfrwt beam="2">  1       -2 0.35409778E+00 0.10123338E+04</pdfrwt>
<totfact> 0.39492545E-01</totfact>
</mgrwt>
</event>
<event>
12    3  0.1176505E-007  0.1656844E+04  0.7818608E-02  0.8786368E-01
         -2   -1    0    0    0  501 -0.00000000000E+00  0.00000000000E+00  0.17545262092E+04  0.17545262092E+04  0.00000000000E+00 0.  1.
          1   -1    0    0  501    0  0.00000000000E+00 -0.00000000000E+00 -0.20826003295E+04  0.20826003295E+04  0.00000000000E+00 0. -1.
        -24    2    1    2    0    0 -0.16204801961E+04  0.26999258951E+03 -0.10430110881E+04  0.19475370874E+04  0.78590792095E+02 0.  0.
    5000000    2    1    2    0    0  0.16204801961E+04 -0.26999258951E+03  0.71493696784E+03  0.18895894514E+04  0.60046761989E+03 0.  0.
        -24    2    4    4    0    0  0.50825672194E+03 -0.21757612808E+03  0.50621019269E+03  0.75382740115E+03  0.79641224446E+02 0.  0.
         24    2    4    4    0    0  0.11122234741E+04 -0.52416461429E+02  0.20872677515E+03  0.11357620502E+04  0.81240545542E+02 0.  0.
         11    1    5    5    0    0  0.38789612663E+03 -0.17560929115E+03  0.34315432627E+03  0.54686096938E+03  0.00000000000E+00 0. -1.
        -12    1    5    5    0    0  0.12036059531E+03 -0.41966836939E+02  0.16305586642E+03  0.20696643177E+03  0.00000000000E+00 0.  1.
         15    1    3    3    0    0 -0.10276576373E+04  0.20822673094E+03 -0.65353469128E+03  0.12355360543E+04  0.17770000000E+01 0. -1.
        -16    1    3    3    0    0 -0.59282255879E+03  0.61765858573E+02 -0.38947639685E+03  0.71200103315E+03  0.00000000000E+00 0.  1.
          4    1    6    6  502    0  0.82715398280E+03 -0.69831647372E+01  0.13882658999E+03  0.83875222679E+03  0.00000000000E+00 0. -1.
         -3    1    6    6    0  502  0.28506949132E+03 -0.45433296691E+02  0.69900185156E+02  0.29700982344E+03  0.00000000000E+00 0.  1.
<mgrwt>
<rscale>  0 0.16568440E+04</rscale>
<asrwt>0</asrwt>
<pdfrwt beam="1">  1        1 0.32040005E+00 0.16568440E+04</pdfrwt>
<pdfrwt beam="2">  1       -2 0.26992711E+00 0.16568440E+04</pdfrwt>
<totfact> 0.10283673E-01</totfact>
</mgrwt>
</event>
<event>
12    3  0.1176505E-007  0.8008581E+03  0.7818608E-02  0.9558776E-01
          1   -1    0    0  501    0  0.00000000000E+00  0.00000000000E+00  0.19689475054E+04  0.19689475054E+04  0.00000000000E+00 0. -1.
         -2   -1    0    0    0  501 -0.00000000000E+00 -0.00000000000E+00 -0.35081853487E+03  0.35081853487E+03  0.00000000000E+00 0.  1.
        -24    2    1    2    0    0 -0.70861784879E+03  0.59935707451E+02  0.54564343764E+03  0.89996452324E+03  0.80485013479E+02 0.  0.
    5000000    2    1    2    0    0  0.70861784879E+03 -0.59935707451E+02  0.10724855329E+04  0.14198015170E+04  0.59989964564E+03 0.  0.
        -24    2    4    4    0    0  0.59033185959E+03 -0.26071413472E+03  0.58886901698E+03  0.87708722676E+03  0.77792799727E+02 0.  0.
         24    2    4    4    0    0  0.11828598920E+03  0.20077842727E+03  0.48361651592E+03  0.54271429028E+03  0.79688859340E+02 0.  0.
         13    1    5    5    0    0  0.17910038633E+03 -0.10133165151E+03  0.22887808285E+03  0.30778276233E+03  0.00000000000E+00 0. -1.
        -14    1    5    5    0    0  0.41123147326E+03 -0.15938248321E+03  0.35999093413E+03  0.56930446442E+03  0.00000000000E+00 0.  1.
         15    1    3    3    0    0 -0.26958351427E+03  0.36330653941E+01  0.24997153261E+03  0.36766478642E+03  0.17770000000E+01 0. -1.
        -16    1    3    3    0    0 -0.43903433452E+03  0.56302642057E+02  0.29567190503E+03  0.53229973681E+03  0.00000000000E+00 0.  1.
          4    1    6    6  502    0  0.43337046920E+02  0.21574783016E+02  0.13810362089E+03  0.14634268345E+03  0.00000000000E+00 0. -1.
         -3    1    6    6    0  502  0.74948942282E+02  0.17920364426E+03  0.34551289503E+03  0.39637160683E+03  0.00000000000E+00 0.  1.
<mgrwt>
<rscale>  0 0.80085809E+03</rscale>
<asrwt>0</asrwt>
<pdfrwt beam="1">  1        1 0.30291499E+00 0.80085809E+03</pdfrwt>
<pdfrwt beam="2">  1       -2 0.53972083E-01 0.80085809E+03</pdfrwt>
<totfact> 0.91788069E+00</totfact>
</mgrwt>
</event>
<event>
12    3  0.1176505E-007  0.9599455E+03  0.7818608E-02  0.9353601E-01
         -2   -1    0    0    0  501 -0.00000000000E+00  0.00000000000E+00  0.96569534355E+03  0.96569534355E+03  0.00000000000E+00 0.  1.
          1   -1    0    0  501    0  0.00000000000E+00 -0.00000000000E+00 -0.11505804559E+04  0.11505804559E+04  0.00000000000E+00 0. -1.
        -24    2    1    2    0    0 -0.43889504881E+03 -0.82326723874E+03  0.17002410168E+03  0.95164303100E+03  0.79488697578E+02 0.  0.
    5000000    2    1    2    0    0  0.43889504881E+03  0.82326723874E+03 -0.35490921399E+03  0.11646327684E+04  0.60000927061E+03 0.  0.
        -24    2    4    4    0    0  0.18904339768E+03  0.11649751489E+03 -0.33553030965E+03  0.41042515314E+03  0.80988520479E+02 0.  0.
         24    2    4    4    0    0  0.24985165113E+03  0.70676972385E+03 -0.19378904331E+02  0.75420761527E+03  0.80649208755E+02 0.  0.
         13    1    5    5    0    0  0.13352333481E+03  0.12014527188E+03 -0.27222432553E+03  0.32614329781E+03  0.00000000000E+00 0. -1.
        -14    1    5    5    0    0  0.55520062872E+02 -0.36477569875E+01 -0.63305984122E+02  0.84281855331E+02  0.00000000000E+00 0.  1.
         15    1    3    3    0    0 -0.31715834939E+03 -0.53789128432E+03  0.13999769252E+03  0.63993668747E+03  0.17770000000E+01 0. -1.
        -16    1    3    3    0    0 -0.12173669942E+03 -0.28537595442E+03  0.30026409163E+02  0.31170634353E+03  0.00000000000E+00 0.  1.
          4    1    6    6  502    0  0.11694471003E+03  0.29899990520E+03 -0.46799693531E+02  0.32444910206E+03  0.00000000000E+00 0. -1.
         -3    1    6    6    0  502  0.13290694111E+03  0.40776981865E+03  0.27420789199E+02  0.42975851321E+03  0.00000000000E+00 0.  1.
<mgrwt>
<rscale>  0 0.95994547E+03</rscale>
<asrwt>0</asrwt>
<pdfrwt beam="1">  1        1 0.17701238E+00 0.95994547E+03</pdfrwt>
<pdfrwt beam="2">  1       -2 0.14856851E+00 0.95994547E+03</pdfrwt>
<totfact> 0.31342267E+00</totfact>
</mgrwt>
</event>
<event>
12    3  0.1176505E-007  0.4798875E+03  0.7818608E-02  0.1019166E+00
         -2   -1    0    0    0  501 -0.00000000000E+00  0.00000000000E+00  0.24000354084E+03  0.24000354084E+03  0.00000000000E+00 0.  1.
          1   -1    0    0  501    0  0.00000000000E+00 -0.00000000000E+00 -0.10082324238E+04  0.10082324238E+04  0.00000000000E+00 0. -1.
        -24    2    1    2    0    0 -0.39438217479E+01  0.29105367939E+03 -0.15519236806E+03  0.34237832100E+03  0.91708481443E+02 0.  0.
    5000000    2    1    2    0    0  0.39438217479E+01 -0.29105367939E+03 -0.61303651494E+03  0.90585764369E+03  0.60003041919E+03 0.  0.
        -24    2    4    4    0    0 -0.21696469375E+03 -0.34513443197E+03 -0.30788405956E+03  0.51708092719E+03  0.79928947580E+02 0.  0.
         24    2    4    4    0    0  0.22090851550E+03  0.54080752575E+02 -0.30515245538E+03  0.38877671650E+03  0.79397822698E+02 0.  0.
         13    1    5    5    0    0  0.38057341796E+01 -0.32204332377E+02 -0.22366888456E+02  0.39393912419E+02  0.00000000000E+00 0. -1.
        -14    1    5    5    0    0 -0.22077042793E+03 -0.31293009959E+03 -0.28551717111E+03  0.47768701477E+03  0.00000000000E+00 0.  1.
         15    1    3    3    0    0 -0.47745070938E+02  0.15951637190E+03 -0.87043485402E+02  0.18789569123E+03  0.17770000000E+01 0. -1.
        -16    1    3    3    0    0  0.43801249190E+02  0.13153730749E+03 -0.68148882656E+02  0.15448262977E+03  0.00000000000E+00 0.  1.
          4    1    6    6  502    0  0.70197873955E+02 -0.17544194058E+02 -0.72108404172E+02  0.10215264169E+03  0.00000000000E+00 0. -1.
         -3    1    6    6    0  502  0.15071064155E+03  0.71624946633E+02 -0.23304405121E+03  0.28662407481E+03  0.00000000000E+00 0.  1.
<mgrwt>
<rscale>  0 0.47988748E+03</rscale>
<asrwt>0</asrwt>
<pdfrwt beam="1">  1        1 0.15511268E+00 0.47988748E+03</pdfrwt>
<pdfrwt beam="2">  1       -2 0.36923621E-01 0.47988748E+03</pdfrwt>
<totfact> 0.94336726E+01</totfact>
</mgrwt>
</event>
<event>
12    3  0.1254892E-007  0.1438506E+04  0.7818608E-02  0.8926408E-01
          1   -1    0    0  501    0  0.00000000000E+00  0.00000000000E+00  0.13938592196E+04  0.13938592196E+04  0.00000000000E+00 0. -1.
         -2   -1    0    0    0  501 -0.00000000000E+00 -0.00000000000E+00 -0.16897974752E+04  0.16897974752E+04  0.00000000000E+00 0.  1.
        -24    2    1    2    0    0  0.43326409993E+03 -0.13061920979E+04  0.39084576365E+03  0.14327547379E+04  0.78550309665E+02 0.  0.
    5000000    2    1    2    0    0 -0.43326409993E+03  0.13061920979E+04 -0.68678401916E+03  0.16509019569E+04  0.59995783642E+03 0.  0.
        -24    2    4    4    0    0 -0.41540676839E+03  0.37629099635E+03 -0.29313921144E+03  0.63781224801E+03  0.81952237749E+02 0.  0.
         24    2    4    4    0    0 -0.17857331540E+02  0.92990110154E+03 -0.39364480772E+03  0.10130897089E+04  0.79746979269E+02 0.  0.
         13    1    5    5    0    0 -0.10298435952E+03  0.14150565369E+03 -0.10475032028E+03  0.20396631568E+03  0.00000000000E+00 0. -1.
        -14    1    5    5    0    0 -0.31242240886E+03  0.23478534266E+03 -0.18838889116E+03  0.43384593233E+03  0.00000000000E+00 0.  1.
         15    1    3    3    0    0  0.17954940039E+03 -0.42467555103E+03  0.12578534274E+03  0.47792512071E+03  0.17770000000E+01 0. -1.
        -16    1    3    3    0    0  0.25371469953E+03 -0.88151654686E+03  0.26506042090E+03  0.95482961719E+03  0.00000000000E+00 0.  1.
          2    1    6    6  502    0 -0.42672230362E+02  0.38731929251E+03 -0.18345763368E+03  0.43068997777E+03  0.00000000000E+00 0. -1.
         -1    1    6    6    0  502  0.24814898823E+02  0.54258180902E+03 -0.21018717404E+03  0.58239973113E+03  0.00000000000E+00 0.  1.
<mgrwt>
<rscale>  0 0.14385058E+04</rscale>
<asrwt>0</asrwt>
<pdfrwt beam="1">  1        1 0.21443988E+00 0.14385058E+04</pdfrwt>
<pdfrwt beam="2">  1       -2 0.25996884E+00 0.14385058E+04</pdfrwt>
<totfact> 0.36055180E-01</totfact>
</mgrwt>
</event>
<event>
12    3  0.1176505E-007  0.2213383E+04  0.7818608E-02  0.8512879E-01
          1   -1    0    0  501    0  0.00000000000E+00  0.00000000000E+00  0.39185035263E+04  0.39185035263E+04  0.00000000000E+00 0. -1.
         -2   -1    0    0    0  501 -0.00000000000E+00 -0.00000000000E+00 -0.14659119997E+04  0.14659119997E+04  0.00000000000E+00 0.  1.
        -24    2    1    2    0    0 -0.21821387090E+04  0.20671375928E+03  0.22951848282E+03  0.22053289887E+04  0.79607102544E+02 0.  0.
    5000000    2    1    2    0    0  0.21821387090E+04 -0.20671375928E+03  0.22230730437E+04  0.31790865373E+04  0.60006460516E+03 0.  0.
        -24    2    4    4    0    0  0.67882583364E+03  0.13396577628E+03  0.45347813454E+03  0.83085391921E+03  0.76970610736E+02 0.  0.
         24    2    4    4    0    0  0.15033128753E+04 -0.34067953556E+03  0.17695949092E+04  0.23482326181E+04  0.81964254031E+02 0.  0.
         13    1    5    5    0    0  0.50275777395E+03  0.11095919386E+03  0.37374176783E+03  0.63620769485E+03  0.00000000000E+00 0. -1.
        -14    1    5    5    0    0  0.17606805970E+03  0.23006582416E+02  0.79736366718E+02  0.19464622436E+03  0.00000000000E+00 0.  1.
         15    1    3    3    0    0 -0.48319273246E+03  0.21712731579E+02  0.73450110525E+02  0.48922871531E+03  0.17770000000E+01 0. -1.
        -16    1    3    3    0    0 -0.16989459765E+04  0.18500102771E+03  0.15606837229E+03  0.17161002734E+04  0.00000000000E+00 0.  1.
          4    1    6    6  502    0  0.12411222785E+04 -0.27064555575E+03  0.14118126978E+04  0.18991705086E+04  0.00000000000E+00 0. -1.
         -3    1    6    6    0  502  0.26219059680E+03 -0.70033979812E+02  0.35778221143E+03  0.44906210951E+03  0.00000000000E+00 0.  1.
<mgrwt>
<rscale>  0 0.22133827E+04</rscale>
<asrwt>0</asrwt>
<pdfrwt beam="1">  1        1 0.60284669E+00 0.22133827E+04</pdfrwt>
<pdfrwt beam="2">  1       -2 0.22552492E+00 0.22133827E+04</pdfrwt>
<totfact> 0.78691809E-03</totfact>
</mgrwt>
</event>
<event>
12    3  0.1176505E-007  0.6467480E+03  0.7818608E-02  0.9812901E-01
         -4   -1    0    0    0  501 -0.00000000000E+00  0.00000000000E+00  0.29212978277E+03  0.29212978277E+03  0.00000000000E+00 0.  1.
          3   -1    0    0  501    0  0.00000000000E+00 -0.00000000000E+00 -0.16231373949E+04  0.16231373949E+04  0.00000000000E+00 0. -1.
        -24    2    1    2    0    0 -0.52753168196E+03  0.95829935907E+02 -0.73783961091E+03  0.91562281547E+03  0.80528235413E+02 0.  0.
    5000000    2    1    2    0    0  0.52753168196E+03 -0.95829935907E+02 -0.59316800120E+03  0.99964436217E+03  0.59997293363E+03 0.  0.
        -24    2    4    4    0    0  0.56596420122E+03  0.66661777672E+02 -0.29073151441E+03  0.64479239669E+03  0.80455899056E+02 0.  0.
         24    2    4    4    0    0 -0.38432519260E+02 -0.16249171358E+03 -0.30243648680E+03  0.35485196548E+03  0.81064624489E+02 0.  0.
         11    1    5    5    0    0  0.39083000343E+03  0.70323282731E+02 -0.23266822973E+03  0.46024771678E+03  0.00000000000E+00 0. -1.
        -12    1    5    5    0    0  0.17513419779E+03 -0.36615050595E+01 -0.58063284672E+02  0.18454467991E+03  0.00000000000E+00 0.  1.
         15    1    3    3    0    0 -0.73864100483E+02  0.25598595486E+02 -0.15586699828E+03  0.17438139899E+03  0.17770000000E+01 0. -1.
        -16    1    3    3    0    0 -0.45366758148E+03  0.70231340422E+02 -0.58197261262E+03  0.74124141648E+03  0.00000000000E+00 0.  1.
          2    1    6    6  502    0  0.23362063582E+02 -0.58392670597E+02 -0.12674818409E+03  0.14149414180E+03  0.00000000000E+00 0. -1.
         -1    1    6    6    0  502 -0.61794582841E+02 -0.10409904298E+03 -0.17568830271E+03  0.21335782368E+03  0.00000000000E+00 0.  1.
<mgrwt>
<rscale>  0 0.64674800E+03</rscale>
<asrwt>0</asrwt>
<pdfrwt beam="1">  1        3 0.24971344E+00 0.64674800E+03</pdfrwt>
<pdfrwt beam="2">  1       -4 0.44943044E-01 0.64674800E+03</pdfrwt>
<totfact> 0.82210974E-01</totfact>
</mgrwt>
</event>
<event>
12    3  0.1176505E-007  0.4462089E+03  0.7818608E-02  0.1028859E+00
          1   -1    0    0  501    0  0.00000000000E+00  0.00000000000E+00  0.11065776360E+04  0.11065776360E+04  0.00000000000E+00 0. -1.
         -2   -1    0    0    0  501 -0.00000000000E+00 -0.00000000000E+00 -0.45612635360E+03  0.45612635360E+03  0.00000000000E+00 0.  1.
        -24    2    1    2    0    0  0.27792921159E+03 -0.11005312076E+02  0.82880521953E+03  0.87778846268E+03  0.78922301973E+02 0.  0.
    5000000    2    1    2    0    0 -0.27792921159E+03  0.11005312076E+02 -0.17835393716E+03  0.68491552688E+03  0.59994448786E+03 0.  0.
        -24    2    4    4    0    0 -0.34342722525E+03  0.19589663423E+03  0.99620974118E+01  0.40366297173E+03  0.80788619374E+02 0.  0.
         24    2    4    4    0    0  0.65498013662E+02 -0.18489132215E+03 -0.18831603457E+03  0.28125255515E+03  0.71869883132E+02 0.  0.
         11    1    5    5    0    0 -0.14384867271E+03  0.47386463376E+02  0.28850952968E+02  0.15417618182E+03  0.00000000000E+00 0. -1.
        -12    1    5    5    0    0 -0.19957855253E+03  0.14851017085E+03 -0.18888855556E+02  0.24948678991E+03  0.00000000000E+00 0.  1.
         15    1    3    3    0    0  0.15583997747E+03  0.30586770067E+02  0.41524269449E+03  0.44457991648E+03  0.17770000000E+01 0. -1.
        -16    1    3    3    0    0  0.12208923412E+03 -0.41592082143E+02  0.41356252504E+03  0.43320854620E+03  0.00000000000E+00 0.  1.
          4    1    6    6  502    0  0.43053192718E+02 -0.17436426679E+03 -0.14291417093E+03  0.22952327810E+03  0.00000000000E+00 0. -1.
         -3    1    6    6    0  502  0.22444820944E+02 -0.10527055356E+02 -0.45401863646E+02  0.51729277051E+02  0.00000000000E+00 0.  1.
<mgrwt>
<rscale>  0 0.44620888E+03</rscale>
<asrwt>0</asrwt>
<pdfrwt beam="1">  1        1 0.17024271E+00 0.44620888E+03</pdfrwt>
<pdfrwt beam="2">  1       -2 0.70173285E-01 0.44620888E+03</pdfrwt>
<totfact> 0.21728889E+01</totfact>
</mgrwt>
</event>
<event>
12    3  0.1176505E-007  0.5814913E+03  0.7818608E-02  0.9944568E-01
         -2   -1    0    0    0  501 -0.00000000000E+00  0.00000000000E+00  0.36065950553E+03  0.36065950553E+03  0.00000000000E+00 0.  1.
          1   -1    0    0  501    0  0.00000000000E+00 -0.00000000000E+00 -0.19620655408E+04  0.19620655408E+04  0.00000000000E+00 0. -1.
        -24    2    1    2    0    0  0.24635834523E+03  0.35443743658E+03 -0.15162844164E+04  0.15785390296E+04  0.79678766102E+02 0.  0.
    5000000    2    1    2    0    0 -0.24635834523E+03 -0.35443743658E+03 -0.85121618885E+02  0.74418601676E+03  0.60020730321E+03 0.  0.
        -24    2    4    4    0    0 -0.13846040959E+03  0.14621411060E+03  0.15994211126E+02  0.21604720044E+03  0.76620668677E+02 0.  0.
         24    2    4    4    0    0 -0.10789793564E+03 -0.50065154718E+03 -0.10111583001E+03  0.52813881632E+03  0.80076600946E+02 0.  0.
         13    1    5    5    0    0 -0.33383975185E+02  0.86020748483E+02  0.21799846666E+02  0.94811878388E+02  0.00000000000E+00 0. -1.
        -14    1    5    5    0    0 -0.10507643441E+03  0.60193362114E+02 -0.58056355403E+01  0.12123532206E+03  0.00000000000E+00 0.  1.
         15    1    3    3    0    0  0.15761301543E+03  0.21377364080E+03 -0.78995399523E+03  0.83340956585E+03  0.17770000000E+01 0. -1.
        -16    1    3    3    0    0  0.88745329794E+02  0.14066379578E+03 -0.72633042114E+03  0.74512946371E+03  0.00000000000E+00 0.  1.
          2    1    6    6  502    0 -0.11521738849E+03 -0.38649739157E+03 -0.89883401831E+02  0.41320008013E+03  0.00000000000E+00 0. -1.
         -1    1    6    6    0  502  0.73194528521E+01 -0.11415415561E+03 -0.11232428181E+02  0.11493873618E+03  0.00000000000E+00 0.  1.
<mgrwt>
<rscale>  0 0.58149128E+03</rscale>
<asrwt>0</asrwt>
<pdfrwt beam="1">  1        1 0.30185624E+00 0.58149128E+03</pdfrwt>
<pdfrwt beam="2">  1       -2 0.55486078E-01 0.58149128E+03</pdfrwt>
<totfact> 0.90787603E+00</totfact>
</mgrwt>
</event>
<event>
12    3  0.1176505E-007  0.9511449E+03  0.7818608E-02  0.9363813E-01
          1   -1    0    0  501    0  0.00000000000E+00  0.00000000000E+00  0.14083824079E+04  0.14083824079E+04  0.00000000000E+00 0. -1.
         -2   -1    0    0    0  501 -0.00000000000E+00 -0.00000000000E+00 -0.67193525520E+03  0.67193525520E+03  0.00000000000E+00 0.  1.
        -24    2    1    2    0    0 -0.45330294754E+03  0.75225724990E+03  0.34001019485E+03  0.94517898873E+03  0.79886518693E+02 0.  0.
    5000000    2    1    2    0    0  0.45330294754E+03 -0.75225724990E+03  0.39643695785E+03  0.11351386744E+04  0.60000251354E+03 0.  0.
        -24    2    4    4    0    0  0.18685931299E+03 -0.72892470146E+03  0.39789735128E+03  0.85464534765E+03  0.76477087099E+02 0.  0.
         24    2    4    4    0    0  0.26644363455E+03 -0.23332548433E+02 -0.14603934312E+01  0.28049332673E+03  0.84485237668E+02 0.  0.
         11    1    5    5    0    0  0.58555535136E+02 -0.28936674692E+03  0.19491844691E+03  0.35377261887E+03  0.00000000000E+00 0. -1.
        -12    1    5    5    0    0  0.12830377786E+03 -0.43955795454E+03  0.20297890437E+03  0.50087272878E+03  0.00000000000E+00 0.  1.
         15    1    3    3    0    0 -0.17640113648E+03  0.33066948006E+03  0.10834698979E+03  0.39013061136E+03  0.17770000000E+01 0. -1.
        -16    1    3    3    0    0 -0.27690181106E+03  0.42158776983E+03  0.23166320507E+03  0.55504837737E+03  0.00000000000E+00 0.  1.
          2    1    6    6  502    0  0.21561254282E+03 -0.41519161716E+01  0.29973585428E+02  0.21772556776E+03  0.00000000000E+00 0. -1.
         -1    1    6    6    0  502  0.50831091720E+02 -0.19180632261E+02 -0.31433978859E+02  0.62767758972E+02  0.00000000000E+00 0.  1.
<mgrwt>
<rscale>  0 0.95114495E+03</rscale>
<asrwt>0</asrwt>
<pdfrwt beam="1">  1        1 0.21667421E+00 0.95114495E+03</pdfrwt>
<pdfrwt beam="2">  1       -2 0.10337466E+00 0.95114495E+03</pdfrwt>
<totfact> 0.51011785E+00</totfact>
</mgrwt>
</event>
<event>
12    3  0.1176505E-007  0.2974951E+03  0.7818608E-02  0.1086500E+00
          3   -1    0    0  501    0  0.00000000000E+00  0.00000000000E+00  0.42797938831E+03  0.42797938831E+03  0.00000000000E+00 0. -1.
         -2   -1    0    0    0  501 -0.00000000000E+00 -0.00000000000E+00 -0.55678560962E+03  0.55678560962E+03  0.00000000000E+00 0.  1.
        -24    2    1    2    0    0  0.87903753794E+02  0.20301077218E+03 -0.23827932702E+03  0.33591330084E+03  0.84381659411E+02 0.  0.
    5000000    2    1    2    0    0 -0.87903753794E+02 -0.20301077218E+03  0.10947310571E+03  0.64885169708E+03  0.60006976292E+03 0.  0.
        -24    2    4    4    0    0 -0.13183529830E+03  0.62993936962E+01  0.30881179599E+03  0.34576281702E+03  0.82261607406E+02 0.  0.
         24    2    4    4    0    0  0.43931544501E+02 -0.20931016587E+03 -0.19933869028E+03  0.30308888006E+03  0.79913888858E+02 0.  0.
         11    1    5    5    0    0 -0.64853312112E+02  0.10277441898E+02  0.63148486829E+02  0.91100544963E+02  0.00000000000E+00 0. -1.
        -12    1    5    5    0    0 -0.66981986183E+02 -0.39780482014E+01  0.24566330916E+03  0.25466227206E+03  0.00000000000E+00 0.  1.
         15    1    3    3    0    0 -0.13033816085E+02  0.49449726070E+02 -0.70239788682E+02  0.86901906844E+02  0.17770000000E+01 0. -1.
        -16    1    3    3    0    0  0.10093756988E+03  0.15356104611E+03 -0.16803953834E+03  0.24901139400E+03  0.00000000000E+00 0.  1.
          2    1    6    6  502    0  0.52827030364E+02 -0.69984525072E+02 -0.91034703726E+02  0.12639559395E+03  0.00000000000E+00 0. -1.
         -1    1    6    6    0  502 -0.88954858629E+01 -0.13932564080E+03 -0.10830398655E+03  0.17669328611E+03  0.00000000000E+00 0.  1.
<mgrwt>
<rscale>  0 0.29749507E+03</rscale>
<asrwt>0</asrwt>
<pdfrwt beam="1">  1        3 0.65842983E-01 0.29749507E+03</pdfrwt>
<pdfrwt beam="2">  1       -2 0.85659325E-01 0.29749507E+03</pdfrwt>
<totfact> 0.11197587E+01</totfact>
</mgrwt>
</event>
<event>
12    3  0.1176505E-007  0.9221818E+03  0.7818608E-02  0.9398270E-01
          1   -1    0    0  501    0  0.00000000000E+00  0.00000000000E+00  0.32958587988E+04  0.32958587988E+04  0.00000000000E+00 0. -1.
         -2   -1    0    0    0  501 -0.00000000000E+00 -0.00000000000E+00 -0.29968415608E+03  0.29968415608E+03  0.00000000000E+00 0.  1.
        -24    2    1    2    0    0  0.42949387685E+03  0.76551294883E+03  0.98979080390E+03  0.13248628384E+04  0.71418765337E+02 0.  0.
    5000000    2    1    2    0    0 -0.42949387685E+03 -0.76551294883E+03  0.20063838388E+04  0.22706801165E+04  0.59994751233E+03 0.  0.
        -24    2    4    4    0    0 -0.37047435438E+02  0.21227455625E+02  0.62755598263E+03  0.63334443926E+03  0.73996959774E+02 0.  0.
         24    2    4    4    0    0 -0.39244644141E+03 -0.78674040446E+03  0.13788278562E+04  0.16373356772E+04  0.82019445718E+02 0.  0.
         13    1    5    5    0    0 -0.47362506818E+02 -0.10046405477E+02  0.46308020664E+03  0.46560435468E+03  0.00000000000E+00 0. -1.
        -14    1    5    5    0    0  0.10315071380E+02  0.31273861102E+02  0.16447577599E+03  0.16774008457E+03  0.00000000000E+00 0.  1.
         15    1    3    3    0    0  0.29864548419E+03  0.46964314179E+03  0.64929088592E+03  0.85518162873E+03  0.17770000000E+01 0. -1.
        -16    1    3    3    0    0  0.13084839266E+03  0.29586980704E+03  0.34049991798E+03  0.46968120968E+03  0.00000000000E+00 0.  1.
          2    1    6    6  502    0 -0.22300380999E+03 -0.53365474551E+03  0.91235641808E+03  0.10802371593E+04  0.00000000000E+00 0. -1.
         -1    1    6    6    0  502 -0.16944263142E+03 -0.25308565895E+03  0.46647143810E+03  0.55709851792E+03  0.00000000000E+00 0.  1.
<mgrwt>
<rscale>  0 0.92218184E+03</rscale>
<asrwt>0</asrwt>
<pdfrwt beam="1">  1        1 0.50705517E+00 0.92218184E+03</pdfrwt>
<pdfrwt beam="2">  1       -2 0.46105257E-01 0.92218184E+03</pdfrwt>
<totfact> 0.14728503E+00</totfact>
</mgrwt>
</event>
<event>
12    3  0.1176505E-007  0.4119390E+03  0.7818608E-02  0.1039722E+00
         -2   -1    0    0    0  501 -0.00000000000E+00  0.00000000000E+00  0.33874842166E+03  0.33874842166E+03  0.00000000000E+00 0.  1.
          1   -1    0    0  501    0  0.00000000000E+00 -0.00000000000E+00 -0.17633180750E+04  0.17633180750E+04  0.00000000000E+00 0. -1.
        -24    2    1    2    0    0  0.21729975386E+03  0.56714583987E+02  0.22780274945E+03  0.32983731149E+03  0.80391742897E+02 0.  0.
    5000000    2    1    2    0    0 -0.21729975386E+03 -0.56714583987E+02 -0.16523724028E+04  0.17722291852E+04  0.60002166647E+03 0.  0.
        -24    2    4    4    0    0  0.98236912242E+02  0.16744805818E+03 -0.88207170150E+03  0.90641269559E+03  0.76447007946E+02 0.  0.
         24    2    4    4    0    0 -0.31553666610E+03 -0.22416264217E+03 -0.77030070133E+03  0.86581648963E+03  0.80391202481E+02 0.  0.
         13    1    5    5    0    0  0.82688925413E+02  0.97126486924E+02 -0.42593259819E+03  0.44462297630E+03  0.00000000000E+00 0. -1.
        -14    1    5    5    0    0  0.15547986829E+02  0.70321571259E+02 -0.45613910331E+03  0.46178971929E+03  0.00000000000E+00 0.  1.
         15    1    3    3    0    0  0.29935629631E+02  0.38774603538E+02  0.61728727935E+02  0.78823888400E+02  0.17770000000E+01 0. -1.
        -16    1    3    3    0    0  0.18736412423E+03  0.17939980449E+02  0.16607402151E+03  0.25101342309E+03  0.00000000000E+00 0.  1.
          4    1    6    6  502    0 -0.11103226573E+03 -0.80051236808E+02 -0.36138634457E+03  0.38644075172E+03  0.00000000000E+00 0. -1.
         -3    1    6    6    0  502 -0.20450440038E+03 -0.14411140536E+03 -0.40891435676E+03  0.47937573790E+03  0.00000000000E+00 0.  1.
<mgrwt>
<rscale>  0 0.41193896E+03</rscale>
<asrwt>0</asrwt>
<pdfrwt beam="1">  1        1 0.27127971E+00 0.41193896E+03</pdfrwt>
<pdfrwt beam="2">  1       -2 0.52115141E-01 0.41193896E+03</pdfrwt>
<totfact> 0.14508598E+01</totfact>
</mgrwt>
</event>
<event>
12    3  0.1176505E-007  0.1288918E+04  0.7818608E-02  0.9038400E-01
          1   -1    0    0  501    0  0.00000000000E+00  0.00000000000E+00  0.11950455472E+04  0.11950455472E+04  0.00000000000E+00 0. -1.
         -2   -1    0    0    0  501 -0.00000000000E+00 -0.00000000000E+00 -0.15118888648E+04  0.15118888648E+04  0.00000000000E+00 0.  1.
        -24    2    1    2    0    0  0.28963630899E+03  0.12248872839E+04 -0.36124194531E+03  0.13118666270E+04  0.79121767928E+02 0.  0.
    5000000    2    1    2    0    0 -0.28963630899E+03 -0.12248872839E+04  0.44398627698E+02  0.13950677851E+04  0.60000403081E+03 0.  0.
        -24    2    4    4    0    0 -0.36062682419E+03 -0.71505900923E+03 -0.18546825072E+03  0.82579695587E+03  0.78619636801E+02 0.  0.
         24    2    4    4    0    0  0.70990515194E+02 -0.50982827470E+03  0.22986687842E+03  0.56927082921E+03  0.79157894484E+02 0.  0.
         11    1    5    5    0    0 -0.27995487805E+03 -0.50856688048E+03 -0.16294612650E+03  0.60296471357E+03  0.00000000000E+00 0. -1.
        -12    1    5    5    0    0 -0.80671946137E+02 -0.20649212875E+03 -0.22522124216E+02  0.22283224230E+03  0.00000000000E+00 0.  1.
         15    1    3    3    0    0  0.67461940370E+02  0.40714277270E+03 -0.93140485955E+02  0.42307760354E+03  0.17770000000E+01 0. -1.
        -16    1    3    3    0    0  0.22217436862E+03  0.81774451123E+03 -0.26810145935E+03  0.88878902346E+03  0.00000000000E+00 0.  1.
          2    1    6    6  502    0 -0.27070565040E+01 -0.15061307491E+02  0.23730710830E+02  0.28236815946E+02  0.00000000000E+00 0. -1.
         -3    1    6    6    0  502  0.73697571698E+02 -0.49476696721E+03  0.20613616759E+03  0.54103401326E+03  0.00000000000E+00 0.  1.
<mgrwt>
<rscale>  0 0.12889179E+04</rscale>
<asrwt>0</asrwt>
<pdfrwt beam="1">  1        1 0.18385316E+00 0.12889179E+04</pdfrwt>
<pdfrwt beam="2">  1       -2 0.23259829E+00 0.12889179E+04</pdfrwt>
<totfact> 0.75136662E-01</totfact>
</mgrwt>
</event>
<event>
12    3  0.1176505E-007  0.5522028E+03  0.7818608E-02  0.1000985E+00
         -2   -1    0    0    0  501 -0.00000000000E+00  0.00000000000E+00  0.29314545384E+03  0.29314545384E+03  0.00000000000E+00 0.  1.
          1   -1    0    0  501    0  0.00000000000E+00 -0.00000000000E+00 -0.15556702906E+04  0.15556702906E+04  0.00000000000E+00 0. -1.
        -24    2    1    2    0    0 -0.50378309848E+03  0.17266501274E+02 -0.24944919582E+03  0.56814688573E+03  0.80439045784E+02 0.  0.
    5000000    2    1    2    0    0  0.50378309848E+03 -0.17266501274E+02 -0.10130756409E+04  0.12806688587E+04  0.59974572033E+03 0.  0.
        -24    2    4    4    0    0  0.28913109709E+02 -0.92618826110E+02 -0.67481124781E+03  0.68661121564E+03  0.81550759671E+02 0.  0.
         24    2    4    4    0    0  0.47486998877E+03  0.75352324836E+02 -0.33826439311E+03  0.59405764307E+03  0.85452937652E+02 0.  0.
         13    1    5    5    0    0  0.44604204189E+02 -0.58471359471E+02 -0.26299587298E+03  0.27308471966E+03  0.00000000000E+00 0. -1.
        -14    1    5    5    0    0 -0.15691094480E+02 -0.34147466639E+02 -0.41181537483E+03  0.41352649597E+03  0.00000000000E+00 0.  1.
         15    1    3    3    0    0 -0.19657620829E+03 -0.26169658281E+02 -0.12121119381E+03  0.23242712388E+03  0.17770000000E+01 0. -1.
        -16    1    3    3    0    0 -0.30720689019E+03  0.43436159555E+02 -0.12823800201E+03  0.33571976185E+03  0.00000000000E+00 0.  1.
          2    1    6    6  502    0  0.32140821827E+03  0.79836401481E+02 -0.26393273231E+03  0.42348268083E+03  0.00000000000E+00 0. -1.
         -1    1    6    6    0  502  0.15346177050E+03 -0.44840766443E+01 -0.74331660791E+02  0.17057496224E+03  0.00000000000E+00 0.  1.
<mgrwt>
<rscale>  0 0.55220280E+03</rscale>
<asrwt>0</asrwt>
<pdfrwt beam="1">  1        1 0.23933389E+00 0.55220280E+03</pdfrwt>
<pdfrwt beam="2">  1       -2 0.45099301E-01 0.55220280E+03</pdfrwt>
<totfact> 0.25936622E+01</totfact>
</mgrwt>
</event>
<event>
12    3  0.1176505E-007  0.1242281E+04  0.7818608E-02  0.9076632E-01
          1   -1    0    0  501    0  0.00000000000E+00  0.00000000000E+00  0.24959724694E+04  0.24959724694E+04  0.00000000000E+00 0. -1.
         -2   -1    0    0    0  501 -0.00000000000E+00 -0.00000000000E+00 -0.69809003547E+03  0.69809003547E+03  0.00000000000E+00 0.  1.
        -24    2    1    2    0    0 -0.33770218275E+03 -0.11704209268E+04  0.11948725734E+04  0.17083240328E+04  0.81991611632E+02 0.  0.
    5000000    2    1    2    0    0  0.33770218275E+03  0.11704209268E+04  0.60300986051E+03  0.14857384721E+04  0.59989166144E+03 0.  0.
        -24    2    4    4    0    0  0.35549713692E+03  0.70357752732E+03  0.10768733114E+03  0.79968970603E+03  0.80669159729E+02 0.  0.
         24    2    4    4    0    0 -0.17794954179E+02  0.46684339944E+03  0.49532252937E+03  0.68604876603E+03  0.84018338919E+02 0.  0.
         11    1    5    5    0    0  0.35333886547E+03  0.70568453593E+03  0.10834151396E+03  0.79660335283E+03  0.00000000000E+00 0. -1.
        -12    1    5    5    0    0  0.21582714538E+01 -0.21070086029E+01 -0.65418281683E+00  0.30863532006E+01  0.00000000000E+00 0.  1.
         15    1    3    3    0    0 -0.80374727642E+02 -0.28879607211E+03  0.34464223748E+03  0.45677641981E+03  0.17770000000E+01 0. -1.
        -16    1    3    3    0    0 -0.25732745510E+03 -0.88162485465E+03  0.85023033597E+03  0.12515476130E+04  0.00000000000E+00 0.  1.
          4    1    6    6  502    0  0.27983419280E+02  0.29483322787E+03  0.32481059340E+03  0.43955844389E+03  0.00000000000E+00 0. -1.
         -3    1    6    6    0  502 -0.45778373459E+02  0.17201017157E+03  0.17051193598E+03  0.24649032214E+03  0.00000000000E+00 0.  1.
<mgrwt>
<rscale>  0 0.12422812E+04</rscale>
<asrwt>0</asrwt>
<pdfrwt beam="1">  1        1 0.38399576E+00 0.12422812E+04</pdfrwt>
<pdfrwt beam="2">  1       -2 0.10739847E+00 0.12422812E+04</pdfrwt>
<totfact> 0.81682330E-01</totfact>
</mgrwt>
</event>
<event>
12    3  0.1176505E-007  0.6762741E+03  0.7818608E-02  0.9758690E-01
          1   -1    0    0  501    0  0.00000000000E+00  0.00000000000E+00  0.16797617418E+04  0.16797617418E+04  0.00000000000E+00 0. -1.
         -2   -1    0    0    0  501 -0.00000000000E+00 -0.00000000000E+00 -0.29593326825E+03  0.29593326825E+03  0.00000000000E+00 0.  1.
        -24    2    1    2    0    0 -0.34714469922E+03 -0.42685634934E+03  0.79801193394E+03  0.97263329245E+03  0.80477883379E+02 0.  0.
    5000000    2    1    2    0    0  0.34714469922E+03  0.42685634934E+03  0.58581653961E+03  0.10030617176E+04  0.60019663949E+03 0.  0.
        -24    2    4    4    0    0 -0.14854826956E+03  0.17695471649E+03  0.11395258434E+03  0.26979860667E+03  0.80165682228E+02 0.  0.
         24    2    4    4    0    0  0.49569296878E+03  0.24990163285E+03  0.47186395526E+03  0.73326311092E+03  0.82806111852E+02 0.  0.
         13    1    5    5    0    0 -0.14454121748E+03  0.12641280580E+03  0.10310048600E+03  0.21794969886E+03  0.00000000000E+00 0. -1.
        -14    1    5    5    0    0 -0.40070520749E+01  0.50541910690E+02  0.10852098346E+02  0.51848907809E+02  0.00000000000E+00 0.  1.
         15    1    3    3    0    0 -0.89517712216E+02 -0.94583628431E+02  0.13530093366E+03  0.18780038325E+03  0.17770000000E+01 0. -1.
        -16    1    3    3    0    0 -0.25762698700E+03 -0.33227272091E+03  0.66271100027E+03  0.78483290921E+03  0.00000000000E+00 0.  1.
          4    1    6    6  502    0  0.35715369327E+03  0.14545525385E+03  0.35430254759E+03  0.52368529358E+03  0.00000000000E+00 0. -1.
         -3    1    6    6    0  502  0.13853927551E+03  0.10444637899E+03  0.11756140768E+03  0.20957781734E+03  0.00000000000E+00 0.  1.
<mgrwt>
<rscale>  0 0.67627413E+03</rscale>
<asrwt>0</asrwt>
<pdfrwt beam="1">  1        1 0.25842488E+00 0.67627413E+03</pdfrwt>
<pdfrwt beam="2">  1       -2 0.45528196E-01 0.67627413E+03</pdfrwt>
<totfact> 0.20611732E+01</totfact>
</mgrwt>
</event>
<event>
12    3  0.1176505E-007  0.4588137E+03  0.7818608E-02  0.1025126E+00
         -2   -1    0    0    0  501 -0.00000000000E+00  0.00000000000E+00  0.17976355016E+03  0.17976355016E+03  0.00000000000E+00 0.  1.
          1   -1    0    0  501    0  0.00000000000E+00 -0.00000000000E+00 -0.21930663366E+04  0.21930663366E+04  0.00000000000E+00 0. -1.
        -24    2    1    2    0    0  0.23218660517E+03 -0.27097060387E+03 -0.13888789052E+04  0.14362300204E+04  0.80226992347E+02 0.  0.
    5000000    2    1    2    0    0 -0.23218660517E+03  0.27097060387E+03 -0.62442388122E+03  0.93659986637E+03  0.59998203178E+03 0.  0.
        -24    2    4    4    0    0  0.12152853545E+03  0.36666059516E+02 -0.44488257205E+03  0.46901994534E+03  0.77107855435E+02 0.  0.
         24    2    4    4    0    0 -0.35371514063E+03  0.23430454435E+03 -0.17954130917E+03  0.46757992102E+03  0.79892932298E+02 0.  0.
         11    1    5    5    0    0 -0.25166675236E+01  0.72423935047E+01 -0.16842546662E+01  0.78500059161E+01  0.00000000000E+00 0. -1.
        -12    1    5    5    0    0  0.12404520298E+03  0.29423666012E+02 -0.44319831738E+03  0.46116993943E+03  0.00000000000E+00 0.  1.
         15    1    3    3    0    0  0.57399840266E+02 -0.52467534260E+02 -0.19373001826E+03  0.20876317089E+03  0.17770000000E+01 0. -1.
        -16    1    3    3    0    0  0.17478676491E+03 -0.21850306961E+03 -0.11951488869E+04  0.12274668495E+04  0.00000000000E+00 0.  1.
          2    1    6    6  502    0 -0.65223878491E+02  0.33026034206E+02 -0.64456355361E+02  0.97465352856E+02  0.00000000000E+00 0. -1.
         -1    1    6    6    0  502 -0.28849126214E+03  0.20127851015E+03 -0.11508495381E+03  0.37011456817E+03  0.00000000000E+00 0.  1.
<mgrwt>
<rscale>  0 0.45881372E+03</rscale>
<asrwt>0</asrwt>
<pdfrwt beam="1">  1        1 0.33739482E+00 0.45881372E+03</pdfrwt>
<pdfrwt beam="2">  1       -2 0.27655931E-01 0.45881372E+03</pdfrwt>
<totfact> 0.25194067E+01</totfact>
</mgrwt>
</event>
<event>
12    3  0.1176505E-007  0.1068162E+04  0.7818608E-02  0.9236792E-01
          1   -1    0    0  501    0  0.00000000000E+00  0.00000000000E+00  0.24521089398E+04  0.24521089398E+04  0.00000000000E+00 0. -1.
         -2   -1    0    0    0  501 -0.00000000000E+00 -0.00000000000E+00 -0.50910658338E+03  0.50910658338E+03  0.00000000000E+00 0.  1.
        -24    2    1    2    0    0  0.37730085309E+03 -0.95032325903E+03  0.11178041743E+04  0.15170164377E+04  0.79890361148E+02 0.  0.
    5000000    2    1    2    0    0 -0.37730085309E+03  0.95032325903E+03  0.82519818210E+03  0.14441990855E+04  0.59940698055E+03 0.  0.
        -24    2    4    4    0    0 -0.43407515507E+03  0.90034968335E+03  0.86611193275E+03  0.13249920164E+04  0.80019816031E+02 0.  0.
         24    2    4    4    0    0  0.56774301983E+02  0.49973575679E+02 -0.40913750642E+02  0.11920706906E+03  0.82557317600E+02 0.  0.
         13    1    5    5    0    0 -0.33778980150E+03  0.66733845723E+03  0.60485152301E+03  0.96191887983E+03  0.00000000000E+00 0. -1.
        -14    1    5    5    0    0 -0.96285353579E+02  0.23301122612E+03  0.26126040974E+03  0.36307313659E+03  0.00000000000E+00 0.  1.
         15    1    3    3    0    0  0.28791347175E+03 -0.79595061298E+03  0.94525079002E+03  0.12688316513E+04  0.17770000000E+01 0. -1.
        -16    1    3    3    0    0  0.89387381344E+02 -0.15437264605E+03  0.17255338432E+03  0.24818478647E+03  0.00000000000E+00 0.  1.
          2    1    6    6  502    0  0.23684176945E+02  0.69215665502E+02 -0.32314917807E+02  0.79975011731E+02  0.00000000000E+00 0. -1.
         -1    1    6    6    0  502  0.33090125038E+02 -0.19242089823E+02 -0.85988328353E+01  0.39232057325E+02  0.00000000000E+00 0.  1.
<mgrwt>
<rscale>  0 0.10681615E+04</rscale>
<asrwt>0</asrwt>
<pdfrwt beam="1">  1        1 0.37724752E+00 0.10681615E+04</pdfrwt>
<pdfrwt beam="2">  1       -2 0.78324091E-01 0.10681615E+04</pdfrwt>
<totfact> 0.18702310E+00</totfact>
</mgrwt>
</event>
<event>
12    3  0.1176505E-007  0.1169744E+04  0.7818608E-02  0.9139759E-01
          1   -1    0    0  501    0  0.00000000000E+00  0.00000000000E+00  0.88930236895E+03  0.88930236895E+03  0.00000000000E+00 0. -1.
         -2   -1    0    0    0  501 -0.00000000000E+00 -0.00000000000E+00 -0.17291166996E+04  0.17291166996E+04  0.00000000000E+00 0.  1.
        -24    2    1    2    0    0  0.10843828093E+04 -0.28715334538E+03 -0.73203978254E+03  0.13419063076E+04  0.80542996202E+02 0.  0.
    5000000    2    1    2    0    0 -0.10843828093E+04  0.28715334538E+03 -0.10777454809E+03  0.12765127610E+04  0.59960516585E+03 0.  0.
        -24    2    4    4    0    0 -0.17767180605E+01 -0.62227011737E+02  0.72414184770E+02  0.12201944483E+03  0.75957705631E+02 0.  0.
         24    2    4    4    0    0 -0.10826060912E+04  0.34938035712E+03 -0.18018873286E+03  0.11544933161E+04  0.79273292525E+02 0.  0.
         13    1    5    5    0    0 -0.22823929650E+02 -0.39225987022E+02  0.78099419440E+02  0.90327897902E+02  0.00000000000E+00 0. -1.
        -14    1    5    5    0    0  0.21047211589E+02 -0.23001024716E+02 -0.56852346707E+01  0.31691546931E+02  0.00000000000E+00 0.  1.
         15    1    3    3    0    0  0.81475110235E+03 -0.19299351515E+03 -0.57787981748E+03  0.10173564257E+04  0.17770000000E+01 0. -1.
        -16    1    3    3    0    0  0.26963170692E+03 -0.94159830239E+02 -0.15415996506E+03  0.32454988189E+03  0.00000000000E+00 0.  1.
          2    1    6    6  502    0 -0.57982974967E+03  0.14797848307E+03 -0.10813894392E+03  0.60810706397E+03  0.00000000000E+00 0. -1.
         -3    1    6    6    0  502 -0.50277634154E+03  0.20140187405E+03 -0.72049788945E+02  0.54638625218E+03  0.00000000000E+00 0.  1.
<mgrwt>
<rscale>  0 0.11697443E+04</rscale>
<asrwt>0</asrwt>
<pdfrwt beam="1">  1        1 0.13681575E+00 0.11697443E+04</pdfrwt>
<pdfrwt beam="2">  1       -2 0.26601795E+00 0.11697443E+04</pdfrwt>
<totfact> 0.81982592E-01</totfact>
</mgrwt>
</event>
<event>
12    3  0.1176505E-007  0.6054834E+03  0.7818608E-02  0.9894095E-01
         -2   -1    0    0    0  501 -0.00000000000E+00  0.00000000000E+00  0.34623378407E+03  0.34623378407E+03  0.00000000000E+00 0.  1.
          1   -1    0    0  501    0  0.00000000000E+00 -0.00000000000E+00 -0.13912061104E+04  0.13912061104E+04  0.00000000000E+00 0. -1.
        -24    2    1    2    0    0  0.50167135458E+03 -0.11129036730E+03 -0.70829239695E+03  0.87873548903E+03  0.80238682983E+02 0.  0.
    5000000    2    1    2    0    0 -0.50167135458E+03  0.11129036730E+03 -0.33667992942E+03  0.85870440548E+03  0.59996682180E+03 0.  0.
        -24    2    4    4    0    0 -0.96423320553E+02 -0.15901036666E+03 -0.30233369809E+03  0.36404595643E+03  0.80882877911E+02 0.  0.
         24    2    4    4    0    0 -0.40524803402E+03  0.27030073396E+03 -0.34346231337E+02  0.49465844905E+03  0.78859760026E+02 0.  0.
         13    1    5    5    0    0 -0.47379334941E+02 -0.15778823893E+02 -0.94937624592E+02  0.10727033712E+03  0.00000000000E+00 0. -1.
        -14    1    5    5    0    0 -0.49043985612E+02 -0.14323154277E+03 -0.20739607349E+03  0.25677561930E+03  0.00000000000E+00 0.  1.
         15    1    3    3    0    0  0.44173579791E+02  0.62651328251E+01 -0.91815760849E+02  0.10209725124E+03  0.17770000000E+01 0. -1.
        -16    1    3    3    0    0  0.45749777479E+03 -0.11755550013E+03 -0.61647663610E+03  0.77663823779E+03  0.00000000000E+00 0.  1.
          4    1    6    6  502    0 -0.25855387006E+03  0.21352437779E+03 -0.36823793047E+02  0.33734071110E+03  0.00000000000E+00 0. -1.
         -3    1    6    6    0  502 -0.14669416397E+03  0.56776356174E+02  0.24775617093E+01  0.15731773795E+03  0.00000000000E+00 0.  1.
<mgrwt>
<rscale>  0 0.60548340E+03</rscale>
<asrwt>0</asrwt>
<pdfrwt beam="1">  1        1 0.21403171E+00 0.60548340E+03</pdfrwt>
<pdfrwt beam="2">  1       -2 0.53266736E-01 0.60548340E+03</pdfrwt>
<totfact> 0.23800772E+01</totfact>
</mgrwt>
</event>
<event>
12    3  0.1176505E-007  0.5391313E+03  0.7818608E-02  0.1004041E+00
          1   -1    0    0  501    0  0.00000000000E+00  0.00000000000E+00  0.10101237933E+04  0.10101237933E+04  0.00000000000E+00 0. -1.
         -2   -1    0    0    0  501 -0.00000000000E+00 -0.00000000000E+00 -0.42345729614E+03  0.42345729614E+03  0.00000000000E+00 0.  1.
        -24    2    1    2    0    0 -0.46863420580E+03 -0.10609758085E+03  0.42866244197E+03  0.64874147386E+03  0.78989209655E+02 0.  0.
    5000000    2    1    2    0    0  0.46863420580E+03  0.10609758085E+03  0.15800405522E+03  0.78483961561E+03  0.60011101077E+03 0.  0.
        -24    2    4    4    0    0  0.12657287690E+03 -0.11639653239E+03  0.29229904541E+03  0.34859838960E+03  0.80704766704E+02 0.  0.
         24    2    4    4    0    0  0.34206132891E+03  0.22249411324E+03 -0.13429499018E+03  0.43624122601E+03  0.75905729180E+02 0.  0.
         13    1    5    5    0    0  0.94895720083E+02 -0.11271623349E+03  0.18412915448E+03  0.23582555526E+03  0.00000000000E+00 0. -1.
        -14    1    5    5    0    0  0.31677156816E+02 -0.36802989038E+01  0.10816989092E+03  0.11277283435E+03  0.00000000000E+00 0.  1.
         15    1    3    3    0    0 -0.13470799919E+03  0.54917416815E+01  0.12214480800E+03  0.18193107520E+03  0.17770000000E+01 0. -1.
        -16    1    3    3    0    0 -0.33392620662E+03 -0.11158932253E+03  0.30651763397E+03  0.46681039866E+03  0.00000000000E+00 0.  1.
          2    1    6    6  502    0  0.20898917153E+03  0.10179317707E+03 -0.10131946925E+03  0.25358225404E+03  0.00000000000E+00 0. -1.
         -1    1    6    6    0  502  0.13307215738E+03  0.12070093616E+03 -0.32975520938E+02  0.18265897197E+03  0.00000000000E+00 0.  1.
<mgrwt>
<rscale>  0 0.53913133E+03</rscale>
<asrwt>0</asrwt>
<pdfrwt beam="1">  1        1 0.15540366E+00 0.53913133E+03</pdfrwt>
<pdfrwt beam="2">  1       -2 0.65147277E-01 0.53913133E+03</pdfrwt>
<totfact> 0.29666454E+01</totfact>
</mgrwt>
</event>
<event>
12    3  0.1176505E-007  0.8374219E+03  0.7818608E-02  0.9507376E-01
          1   -1    0    0  501    0  0.00000000000E+00  0.00000000000E+00  0.12785257634E+04  0.12785257634E+04  0.00000000000E+00 0. -1.
         -2   -1    0    0    0  501 -0.00000000000E+00 -0.00000000000E+00 -0.63018090334E+03  0.63018090334E+03  0.00000000000E+00 0.  1.
        -24    2    1    2    0    0  0.52879708147E+03 -0.52405191356E+03 -0.82404322159E+01  0.74881759264E+03  0.80019502876E+02 0.  0.
    5000000    2    1    2    0    0 -0.52879708147E+03  0.52405191356E+03  0.65658529232E+03  0.11598890741E+04  0.59998471376E+03 0.  0.
        -24    2    4    4    0    0 -0.63996564763E+03  0.40224540433E+03  0.59709204279E+03  0.96704331649E+03  0.85419394508E+02 0.  0.
         24    2    4    4    0    0  0.11116856616E+03  0.12180650923E+03  0.59493249537E+02  0.19284575765E+03  0.80341544118E+02 0.  0.
         11    1    5    5    0    0 -0.37506167143E+03  0.28295020951E+03  0.38304242799E+03  0.60617949494E+03  0.00000000000E+00 0. -1.
        -12    1    5    5    0    0 -0.26490397620E+03  0.11929519482E+03  0.21404961479E+03  0.36086382155E+03  0.00000000000E+00 0.  1.
         15    1    3    3    0    0  0.27075160927E+03 -0.26291322354E+03  0.35627494402E+02  0.37908082663E+03  0.17770000000E+01 0. -1.
        -16    1    3    3    0    0  0.25804547220E+03 -0.26113869002E+03 -0.43867926618E+02  0.36973676600E+03  0.00000000000E+00 0.  1.
          4    1    6    6  502    0 -0.26973067273E+01  0.10112071947E+02  0.28498719420E+02  0.30359619089E+02  0.00000000000E+00 0. -1.
         -3    1    6    6    0  502  0.11386587289E+03  0.11169443728E+03  0.30994530117E+02  0.16248613856E+03  0.00000000000E+00 0.  1.
<mgrwt>
<rscale>  0 0.83742191E+03</rscale>
<asrwt>0</asrwt>
<pdfrwt beam="1">  1        1 0.19669627E+00 0.83742191E+03</pdfrwt>
<pdfrwt beam="2">  1       -2 0.96950908E-01 0.83742191E+03</pdfrwt>
<totfact> 0.74326868E+00</totfact>
</mgrwt>
</event>
<event>
12    3  0.1176505E-007  0.7367061E+03  0.7818608E-02  0.9656440E-01
          1   -1    0    0  501    0  0.00000000000E+00  0.00000000000E+00  0.13593632503E+04  0.13593632503E+04  0.00000000000E+00 0. -1.
         -2   -1    0    0    0  501 -0.00000000000E+00 -0.00000000000E+00 -0.53062746030E+03  0.53062746030E+03  0.00000000000E+00 0.  1.
        -24    2    1    2    0    0  0.53341623967E+03  0.32524043268E+03 -0.79748089772E+02  0.63488066651E+03  0.79996744306E+02 0.  0.
    5000000    2    1    2    0    0 -0.53341623967E+03 -0.32524043268E+03  0.90848387981E+03  0.12551100441E+04  0.59970329263E+03 0.  0.
        -24    2    4    4    0    0  0.52896672380E+02 -0.24369326268E+03  0.34621010023E+03  0.43481116847E+03  0.83754728226E+02 0.  0.
         24    2    4    4    0    0 -0.58631291205E+03 -0.81547170002E+02  0.56227377958E+03  0.82029887566E+03  0.79534083440E+02 0.  0.
         11    1    5    5    0    0  0.14390628607E+01 -0.81669064927E+02  0.17707458478E+03  0.19500593746E+03  0.00000000000E+00 0. -1.
        -12    1    5    5    0    0  0.51457609519E+02 -0.16202419775E+03  0.16913551544E+03  0.23980523101E+03  0.00000000000E+00 0.  1.
         15    1    3    3    0    0  0.36283672017E+03  0.17819766602E+03 -0.62124210010E+02  0.40898345795E+03  0.17770000000E+01 0. -1.
        -16    1    3    3    0    0  0.17057951950E+03  0.14704276666E+03 -0.17623879761E+02  0.22589720856E+03  0.00000000000E+00 0.  1.
          2    1    6    6  502    0 -0.29385833740E+03 -0.30919100902E+02  0.33343039401E+03  0.44551603889E+03  0.00000000000E+00 0. -1.
         -1    1    6    6    0  502 -0.29245457465E+03 -0.50628069100E+02  0.22884338557E+03  0.37478283676E+03  0.00000000000E+00 0.  1.
<mgrwt>
<rscale>  0 0.73670608E+03</rscale>
<asrwt>0</asrwt>
<pdfrwt beam="1">  1        1 0.20913281E+00 0.73670608E+03</pdfrwt>
<pdfrwt beam="2">  1       -2 0.81634995E-01 0.73670608E+03</pdfrwt>
<totfact> 0.98090330E+00</totfact>
</mgrwt>
</event>
<event>
12    3  0.1176505E-007  0.1084290E+04  0.7818608E-02  0.9220641E-01
         -2   -1    0    0    0  501 -0.00000000000E+00  0.00000000000E+00  0.49018700878E+03  0.49018700878E+03  0.00000000000E+00 0.  1.
          1   -1    0    0  501    0  0.00000000000E+00 -0.00000000000E+00 -0.28185410553E+04  0.28185410553E+04  0.00000000000E+00 0. -1.
        -24    2    1    2    0    0 -0.80200869551E+03 -0.60997173355E+03 -0.17014949868E+04  0.19790075208E+04  0.78116028139E+02 0.  0.
    5000000    2    1    2    0    0  0.80200869551E+03  0.60997173355E+03 -0.62685905975E+03  0.13297205433E+04  0.59993414563E+03 0.  0.
        -24    2    4    4    0    0  0.75490604222E+03  0.26498349921E+03 -0.51212852308E+03  0.95371320778E+03  0.84816691183E+02 0.  0.
         24    2    4    4    0    0  0.47102653298E+02  0.34498823434E+03 -0.11473053667E+03  0.37600733553E+03  0.83563619760E+02 0.  0.
         11    1    5    5    0    0  0.56193744177E+03  0.16445557820E+03 -0.34747084275E+03  0.68084896433E+03  0.00000000000E+00 0. -1.
        -12    1    5    5    0    0  0.19296860045E+03  0.10052792101E+03 -0.16465768033E+03  0.27286424345E+03  0.00000000000E+00 0.  1.
         15    1    3    3    0    0 -0.95612023322E+02 -0.94043779339E+02 -0.18857550361E+03  0.23140823176E+03  0.17770000000E+01 0. -1.
        -16    1    3    3    0    0 -0.70639667219E+03 -0.51592795421E+03 -0.15129194832E+04  0.17475992890E+04  0.00000000000E+00 0.  1.
          4    1    6    6  502    0  0.52841225525E+01 -0.30349033849E+01  0.22202178211E+01  0.64855190138E+01  0.00000000000E+00 0. -1.
         -3    1    6    6    0  502  0.41818530746E+02  0.34802313773E+03 -0.11695075449E+03  0.36952181652E+03  0.00000000000E+00 0.  1.
<mgrwt>
<rscale>  0 0.10842898E+04</rscale>
<asrwt>0</asrwt>
<pdfrwt beam="1">  1        1 0.43362170E+00 0.10842898E+04</pdfrwt>
<pdfrwt beam="2">  1       -2 0.75413386E-01 0.10842898E+04</pdfrwt>
<totfact> 0.11290956E+00</totfact>
</mgrwt>
</event>
<event>
12    3  0.1176505E-007  0.6260571E+03  0.7818608E-02  0.9852774E-01
          1   -1    0    0  501    0  0.00000000000E+00  0.00000000000E+00  0.10052387690E+04  0.10052387690E+04  0.00000000000E+00 0. -1.
         -2   -1    0    0    0  501 -0.00000000000E+00 -0.00000000000E+00 -0.51009945833E+03  0.51009945833E+03  0.00000000000E+00 0.  1.
        -24    2    1    2    0    0  0.35922465806E+03 -0.41994419898E+03  0.40764330011E+03  0.69492585512E+03  0.10655232878E+03 0.  0.
    5000000    2    1    2    0    0 -0.35922465806E+03  0.41994419898E+03  0.87496010568E+02  0.82041237222E+03  0.60002118580E+03 0.  0.
        -24    2    4    4    0    0  0.21150904562E+02  0.27879543741E+03  0.24298621522E+03  0.37882289031E+03  0.79310937114E+02 0.  0.
         24    2    4    4    0    0 -0.38037556262E+03  0.14114876157E+03 -0.15549020465E+03  0.44158948192E+03  0.78838602616E+02 0.  0.
         13    1    5    5    0    0  0.45467488875E+01  0.30515735488E+01 -0.51360608929E+01  0.75076060142E+01  0.00000000000E+00 0. -1.
        -14    1    5    5    0    0  0.16604155675E+02  0.27574386387E+03  0.24812227611E+03  0.37131528429E+03  0.00000000000E+00 0.  1.
         15    1    3    3    0    0  0.14736833213E+03 -0.25159506493E+03  0.22772080804E+03  0.36996949355E+03  0.17770000000E+01 0. -1.
        -16    1    3    3    0    0  0.21185632593E+03 -0.16834913405E+03  0.17992249207E+03  0.32495636157E+03  0.00000000000E+00 0.  1.
          2    1    6    6  502    0 -0.70859971174E+02  0.45676901756E+02 -0.61398724635E+02  0.10429438267E+03  0.00000000000E+00 0. -1.
         -1    1    6    6    0  502 -0.30951559145E+03  0.95471859813E+02 -0.94091480017E+02  0.33729509925E+03  0.00000000000E+00 0.  1.
<mgrwt>
<rscale>  0 0.62605706E+03</rscale>
<asrwt>0</asrwt>
<pdfrwt beam="1">  1        1 0.15465212E+00 0.62605706E+03</pdfrwt>
<pdfrwt beam="2">  1       -2 0.78476840E-01 0.62605706E+03</pdfrwt>
<totfact> 0.19693985E+01</totfact>
</mgrwt>
</event>
<event>
12    3  0.1176505E-007  0.1770954E+03  0.7818608E-02  0.1170644E+00
          1   -1    0    0  501    0  0.00000000000E+00  0.00000000000E+00  0.52742581335E+03  0.52742581335E+03  0.00000000000E+00 0. -1.
         -2   -1    0    0    0  501 -0.00000000000E+00 -0.00000000000E+00 -0.31019764945E+03  0.31019764945E+03  0.00000000000E+00 0.  1.
        -24    2    1    2    0    0  0.12032378876E+03  0.29782717021E+02 -0.64752876108E+02  0.16325367588E+03  0.84225906625E+02 0.  0.
    5000000    2    1    2    0    0 -0.12032378876E+03 -0.29782717021E+02  0.28198104000E+03  0.67436978693E+03  0.59991372565E+03 0.  0.
        -24    2    4    4    0    0 -0.26704034307E+01 -0.55381343609E+02 -0.17427154490E+03  0.19575092933E+03  0.69811393742E+02 0.  0.
         24    2    4    4    0    0 -0.11765338533E+03  0.25598626589E+02  0.45625258491E+03  0.47861885760E+03  0.80074845296E+02 0.  0.
         11    1    5    5    0    0  0.64779098034E+01  0.14162657780E+02 -0.57127933276E+02  0.59212709372E+02  0.00000000000E+00 0. -1.
        -12    1    5    5    0    0 -0.91483132341E+01 -0.69544001389E+02 -0.11714361163E+03  0.13653821996E+03  0.00000000000E+00 0.  1.
         15    1    3    3    0    0  0.12421374778E+03  0.78485865418E+01 -0.41892954457E+02  0.13133481188E+03  0.17770000000E+01 0. -1.
        -16    1    3    3    0    0 -0.38899590177E+01  0.21934130479E+02 -0.22859921652E+02  0.31918863998E+02  0.00000000000E+00 0.  1.
          2    1    6    6  502    0 -0.88023110268E+02  0.11050172094E+02  0.18289071031E+03  0.20327121332E+03  0.00000000000E+00 0. -1.
         -1    1    6    6    0  502 -0.29630275065E+02  0.14548454495E+02  0.27336187460E+03  0.27534764428E+03  0.00000000000E+00 0.  1.
<mgrwt>
<rscale>  0 0.17709538E+03</rscale>
<asrwt>0</asrwt>
<pdfrwt beam="1">  1        1 0.81142433E-01 0.17709538E+03</pdfrwt>
<pdfrwt beam="2">  1       -2 0.47722715E-01 0.17709538E+03</pdfrwt>
<totfact> 0.15920244E+02</totfact>
</mgrwt>
</event>
<event>
12    3  0.1176505E-007  0.3502755E+03  0.7818608E-02  0.1062502E+00
         -2   -1    0    0    0  501 -0.00000000000E+00  0.00000000000E+00  0.17105137865E+03  0.17105137865E+03  0.00000000000E+00 0.  1.
          1   -1    0    0  501    0  0.00000000000E+00 -0.00000000000E+00 -0.10350254714E+04  0.10350254714E+04  0.00000000000E+00 0. -1.
        -24    2    1    2    0    0  0.13939712593E+03 -0.70940219087E+02 -0.38390497430E+03  0.42200758235E+03  0.79014535809E+02 0.  0.
    5000000    2    1    2    0    0 -0.13939712593E+03  0.70940219087E+02 -0.48006911842E+03  0.78406926768E+03  0.59986180463E+03 0.  0.
        -24    2    4    4    0    0  0.18888775376E+03 -0.39417225059E+02 -0.33026460051E+02  0.21146064798E+03  0.79953470404E+02 0.  0.
         24    2    4    4    0    0 -0.32828487969E+03  0.11035744415E+03 -0.44704265837E+03  0.57260861969E+03  0.89909761614E+02 0.  0.
         11    1    5    5    0    0  0.12167942883E+03 -0.73992520983E+01  0.15066875721E+02  0.12283176737E+03  0.00000000000E+00 0. -1.
        -12    1    5    5    0    0  0.67208324936E+02 -0.32017972961E+02 -0.48093335773E+02  0.88628880614E+02  0.00000000000E+00 0.  1.
         15    1    3    3    0    0  0.51101885669E+02 -0.36035399965E+02 -0.25097163216E+03  0.25865009308E+03  0.17770000000E+01 0. -1.
        -16    1    3    3    0    0  0.88295240257E+02 -0.34904819121E+02 -0.13293334214E+03  0.16335748927E+03  0.00000000000E+00 0.  1.
          2    1    6    6  502    0 -0.22095058539E+03  0.66360176707E+02 -0.22587593408E+03  0.32286649227E+03  0.00000000000E+00 0. -1.
         -1    1    6    6    0  502 -0.10733429430E+03  0.43997267439E+02 -0.22116672429E+03  0.24974212742E+03  0.00000000000E+00 0.  1.
<mgrwt>
<rscale>  0 0.35027554E+03</rscale>
<asrwt>0</asrwt>
<pdfrwt beam="1">  1        1 0.15923469E+00 0.35027554E+03</pdfrwt>
<pdfrwt beam="2">  1       -2 0.26315597E-01 0.35027554E+03</pdfrwt>
<totfact> 0.17119454E+02</totfact>
</mgrwt>
</event>
<event>
12    3  0.1375890E-007  0.6635461E+03  0.7818608E-02  0.9781688E-01
          1   -1    0    0  501    0  0.00000000000E+00  0.00000000000E+00  0.14180739543E+04  0.14180739543E+04  0.00000000000E+00 0. -1.
         -2   -1    0    0    0  501 -0.00000000000E+00 -0.00000000000E+00 -0.45903849526E+03  0.45903849526E+03  0.00000000000E+00 0.  1.
        -24    2    1    2    0    0  0.15059378317E+03 -0.59482435547E+03  0.40429163232E+02  0.61998425837E+03  0.79066187459E+02 0.  0.
    5000000    2    1    2    0    0 -0.15059378317E+03  0.59482435547E+03  0.91860629585E+03  0.12571281912E+04  0.60003271663E+03 0.  0.
        -24    2    4    4    0    0 -0.14623649719E+03  0.64135606862E+03  0.94922337655E+03  0.11591819077E+04  0.99774528972E+02 0.  0.
         24    2    4    4    0    0 -0.43572859773E+01 -0.46531713150E+02 -0.30617080696E+02  0.97946283559E+02  0.80448011553E+02 0.  0.
         13    1    5    5    0    0 -0.11124001704E+03  0.39094133048E+03  0.50742913910E+03  0.65014905712E+03  0.00000000000E+00 0. -1.
        -14    1    5    5    0    0 -0.34996480151E+02  0.25041473814E+03  0.44179423745E+03  0.50903285055E+03  0.00000000000E+00 0.  1.
         15    1    3    3    0    0  0.12105848852E+03 -0.32153306858E+03  0.30482057259E+02  0.34492170906E+03  0.17770000000E+01 0. -1.
        -16    1    3    3    0    0  0.29535294653E+02 -0.27329128689E+03  0.99471059724E+01  0.27506254932E+03  0.00000000000E+00 0.  1.
          4    1    6    6  502    0 -0.10177723142E+02 -0.24233965669E+02 -0.57088777116E+02  0.62849022371E+02  0.00000000000E+00 0. -1.
         -3    1    6    6    0  502  0.58204371646E+01 -0.22297747481E+02  0.26471696420E+02  0.35097261188E+02  0.00000000000E+00 0.  1.
<mgrwt>
<rscale>  0 0.66354607E+03</rscale>
<asrwt>0</asrwt>
<pdfrwt beam="1">  1        1 0.21816522E+00 0.66354607E+03</pdfrwt>
<pdfrwt beam="2">  1       -2 0.70621308E-01 0.66354607E+03</pdfrwt>
<totfact> 0.12446820E+01</totfact>
</mgrwt>
</event>
<event>
12    3  0.1176505E-007  0.9274462E+03  0.7818608E-02  0.9391908E-01
          1   -1    0    0  501    0  0.00000000000E+00  0.00000000000E+00  0.18076950190E+04  0.18076950190E+04  0.00000000000E+00 0. -1.
         -2   -1    0    0    0  501 -0.00000000000E+00 -0.00000000000E+00 -0.55691701708E+03  0.55691701708E+03  0.00000000000E+00 0.  1.
        -24    2    1    2    0    0  0.91097719301E+03  0.34543309155E+02  0.58613406787E+03  0.10868987278E+04  0.81993978901E+02 0.  0.
    5000000    2    1    2    0    0 -0.91097719301E+03 -0.34543309155E+02  0.66464393404E+03  0.12777133083E+04  0.59977250078E+03 0.  0.
        -24    2    4    4    0    0 -0.20680148253E+03  0.87955122213E+02 -0.70726641679E+02  0.24903691641E+03  0.80710415640E+02 0.  0.
         24    2    4    4    0    0 -0.70417571048E+03 -0.12249843137E+03  0.73537057572E+03  0.10286763919E+04  0.80845152108E+02 0.  0.
         11    1    5    5    0    0 -0.12106036212E+03  0.61384452892E+02 -0.16042161659E+01  0.13574327182E+03  0.00000000000E+00 0. -1.
        -12    1    5    5    0    0 -0.85741120411E+02  0.26570669321E+02 -0.69122425513E+02  0.11329364460E+03  0.00000000000E+00 0.  1.
         15    1    3    3    0    0  0.54777946665E+03  0.56661322866E+02  0.33150644950E+03  0.64278498223E+03  0.17770000000E+01 0. -1.
        -16    1    3    3    0    0  0.36319772636E+03 -0.22118013711E+02  0.25462761837E+03  0.44411374556E+03  0.00000000000E+00 0.  1.
          4    1    6    6  502    0 -0.15398369079E+03 -0.30932791347E+02  0.21178933776E+03  0.26367126919E+03  0.00000000000E+00 0. -1.
         -3    1    6    6    0  502 -0.55019201969E+03 -0.91565640021E+02  0.52358123797E+03  0.76500512267E+03  0.00000000000E+00 0.  1.
<mgrwt>
<rscale>  0 0.92744623E+03</rscale>
<asrwt>0</asrwt>
<pdfrwt beam="1">  1        1 0.27810692E+00 0.92744623E+03</pdfrwt>
<pdfrwt beam="2">  1       -2 0.85679542E-01 0.92744623E+03</pdfrwt>
<totfact> 0.42375808E+00</totfact>
</mgrwt>
</event>
<event>
12    3  0.1393421E-007  0.9516081E+03  0.7818608E-02  0.9363273E-01
          1   -1    0    0  501    0  0.00000000000E+00  0.00000000000E+00  0.95443159963E+03  0.95443159963E+03  0.00000000000E+00 0. -1.
         -2   -1    0    0    0  501 -0.00000000000E+00 -0.00000000000E+00 -0.12322504348E+04  0.12322504348E+04  0.00000000000E+00 0.  1.
        -24    2    1    2    0    0  0.75205987353E+03  0.52427740899E+03 -0.53071774802E+03  0.10623546739E+04  0.80469062952E+02 0.  0.
    5000000    2    1    2    0    0 -0.75205987353E+03 -0.52427740899E+03  0.25289891280E+03  0.11243273606E+04  0.59974436114E+03 0.  0.
        -24    2    4    4    0    0 -0.16479054479E+03  0.26428392490E+02 -0.13365306655E+03  0.22751278958E+03  0.77746663224E+02 0.  0.
         24    2    4    4    0    0 -0.58726932874E+03 -0.55070580148E+03  0.38655197935E+03  0.89681457101E+03  0.81803409344E+02 0.  0.
         11    1    5    5    0    0 -0.13272494924E+03 -0.31943527346E+01 -0.12630179992E+03  0.18324371941E+03  0.00000000000E+00 0. -1.
        -12    1    5    5    0    0 -0.32065595557E+02  0.29622745225E+02 -0.73512666285E+01  0.44269070175E+02  0.00000000000E+00 0.  1.
         15    1    3    3    0    0  0.54425347357E+03  0.33580932680E+03 -0.35786418683E+03  0.73283673585E+03  0.17770000000E+01 0. -1.
        -16    1    3    3    0    0  0.20780639996E+03  0.18846808219E+03 -0.17285356118E+03  0.32951793803E+03  0.00000000000E+00 0.  1.
          2    1    6    6  502    0 -0.24223619779E+03 -0.26230844431E+03  0.13628892785E+03  0.38217635632E+03  0.00000000000E+00 0. -1.
         -1    1    6    6    0  502 -0.34503313095E+03 -0.28839735717E+03  0.25026305150E+03  0.51463821469E+03  0.00000000000E+00 0.  1.
<mgrwt>
<rscale>  0 0.95160814E+03</rscale>
<asrwt>0</asrwt>
<pdfrwt beam="1">  1        1 0.14683563E+00 0.95160814E+03</pdfrwt>
<pdfrwt beam="2">  1       -2 0.18957699E+00 0.95160814E+03</pdfrwt>
<totfact> 0.22527905E+00</totfact>
</mgrwt>
</event>
<event>
12    3  0.1176505E-007  0.6435184E+03  0.7818608E-02  0.9819018E-01
         -2   -1    0    0    0  501 -0.00000000000E+00  0.00000000000E+00  0.10661034964E+04  0.10661034964E+04  0.00000000000E+00 0.  1.
          1   -1    0    0  501    0  0.00000000000E+00 -0.00000000000E+00 -0.52003261764E+03  0.52003261764E+03  0.00000000000E+00 0. -1.
        -24    2    1    2    0    0 -0.17141473327E+03  0.58362363663E+03  0.97504016499E+02  0.62122357763E+03  0.80075840017E+02 0.  0.
    5000000    2    1    2    0    0  0.17141473327E+03 -0.58362363663E+03  0.44856686228E+03  0.96491253643E+03  0.59987033016E+03 0.  0.
        -24    2    4    4    0    0  0.22674766608E+03 -0.27485455318E+03 -0.51967998262E+02  0.36883397836E+03  0.79864267850E+02 0.  0.
         24    2    4    4    0    0 -0.55332932812E+02 -0.30876908346E+03  0.50053486055E+03  0.59607855807E+03  0.79839967513E+02 0.  0.
         11    1    5    5    0    0  0.11370091927E+03 -0.17470648526E+03 -0.62004481533E+02  0.21747370132E+03  0.00000000000E+00 0. -1.
        -12    1    5    5    0    0  0.11304674680E+03 -0.10014806791E+03  0.10036483271E+02  0.15136027704E+03  0.00000000000E+00 0.  1.
         15    1    3    3    0    0 -0.98905948297E+02  0.45710917742E+03  0.72560699375E+02  0.47328574827E+03  0.17770000000E+01 0. -1.
        -16    1    3    3    0    0 -0.72508784969E+02  0.12651445921E+03  0.24943317123E+02  0.14793782936E+03  0.00000000000E+00 0.  1.
          2    1    6    6  502    0 -0.40534468617E+02 -0.18420999255E+03  0.36845811345E+03  0.41392963879E+03  0.00000000000E+00 0. -1.
         -1    1    6    6    0  502 -0.14798464194E+02 -0.12455909091E+03  0.13207674709E+03  0.18214891927E+03  0.00000000000E+00 0.  1.
<mgrwt>
<rscale>  0 0.64351839E+03</rscale>
<asrwt>0</asrwt>
<pdfrwt beam="1">  1        1 0.80005018E-01 0.64351839E+03</pdfrwt>
<pdfrwt beam="2">  1       -2 0.16401592E+00 0.64351839E+03</pdfrwt>
<totfact> 0.89330658E+00</totfact>
</mgrwt>
</event>
<event>
12    3  0.1191406E-007  0.7071176E+03  0.7818608E-02  0.9705137E-01
          1   -1    0    0  501    0  0.00000000000E+00  0.00000000000E+00  0.25533638768E+04  0.25533638768E+04  0.00000000000E+00 0. -1.
         -2   -1    0    0    0  501 -0.00000000000E+00 -0.00000000000E+00 -0.23060022802E+03  0.23060022802E+03  0.00000000000E+00 0.  1.
        -24    2    1    2    0    0  0.32736071077E+03 -0.55444736555E+03  0.86813330924E+03  0.10838321099E+04  0.80372157574E+02 0.  0.
    5000000    2    1    2    0    0 -0.32736071077E+03  0.55444736555E+03  0.14546303395E+04  0.17001319949E+04  0.59993537931E+03 0.  0.
        -24    2    4    4    0    0 -0.38171990671E+03  0.57091459044E+03  0.89488746548E+03  0.11308445691E+04  0.79575792783E+02 0.  0.
         24    2    4    4    0    0  0.54359195945E+02 -0.16467224888E+02  0.55974287406E+03  0.56928742585E+03  0.86890715762E+02 0.  0.
         11    1    5    5    0    0 -0.19102055570E+03  0.31619925352E+03  0.42173963911E+03  0.56065599419E+03  0.00000000000E+00 0. -1.
        -12    1    5    5    0    0 -0.19069935102E+03  0.25471533691E+03  0.47314782637E+03  0.57018857489E+03  0.00000000000E+00 0.  1.
         15    1    3    3    0    0  0.22612058522E+03 -0.33374849000E+03  0.59061160891E+03  0.71508307486E+03  0.17770000000E+01 0. -1.
        -16    1    3    3    0    0  0.10124012555E+03 -0.22069887555E+03  0.27752170033E+03  0.36874903504E+03  0.00000000000E+00 0.  1.
          2    1    6    6  502    0  0.66254656866E+02 -0.96280011462E+01  0.23760009864E+03  0.24685255687E+03  0.00000000000E+00 0. -1.
         -1    1    6    6    0  502 -0.11895460922E+02 -0.68392237422E+01  0.32214277542E+03  0.32243486897E+03  0.00000000000E+00 0.  1.
<mgrwt>
<rscale>  0 0.70711757E+03</rscale>
<asrwt>0</asrwt>
<pdfrwt beam="1">  1        1 0.39282519E+00 0.70711757E+03</pdfrwt>
<pdfrwt beam="2">  1       -2 0.35476960E-01 0.70711757E+03</pdfrwt>
<totfact> 0.86417738E+00</totfact>
</mgrwt>
</event>
<event>
12    3  0.1176505E-007  0.5441113E+03  0.7818608E-02  0.1002866E+00
         -2   -1    0    0    0  501 -0.00000000000E+00  0.00000000000E+00  0.33055034052E+03  0.33055034052E+03  0.00000000000E+00 0.  1.
          1   -1    0    0  501    0  0.00000000000E+00 -0.00000000000E+00 -0.12198352173E+04  0.12198352173E+04  0.00000000000E+00 0. -1.
        -24    2    1    2    0    0  0.14027415824E+03  0.46859104153E+03 -0.37157228149E+03  0.61918585616E+03  0.77915084666E+02 0.  0.
    5000000    2    1    2    0    0 -0.14027415824E+03 -0.46859104153E+03 -0.51771259529E+03  0.93119970167E+03  0.59987677851E+03 0.  0.
        -24    2    4    4    0    0 -0.18558027750E+03 -0.11585447739E+03 -0.51649828850E+03  0.56675156159E+03  0.81083606324E+02 0.  0.
         24    2    4    4    0    0  0.45306119255E+02 -0.35273656414E+03 -0.12143067925E+01  0.36444814008E+03  0.79657040769E+02 0.  0.
         11    1    5    5    0    0 -0.16277515939E+03 -0.64450735702E+02 -0.42060023445E+03  0.45558117506E+03  0.00000000000E+00 0. -1.
        -12    1    5    5    0    0 -0.22805118108E+02 -0.51403741688E+02 -0.95898054052E+02  0.11117038654E+03  0.00000000000E+00 0.  1.
         15    1    3    3    0    0 -0.50584111864E+01  0.72089408927E+02 -0.42905378778E+02  0.84062474745E+02  0.17770000000E+01 0. -1.
        -16    1    3    3    0    0  0.14533256943E+03  0.39650163260E+03 -0.32866690272E+03  0.53512338141E+03  0.00000000000E+00 0.  1.
          4    1    6    6  502    0  0.54914993408E+02 -0.15642420366E+03  0.18977909800E+02  0.16686626098E+03  0.00000000000E+00 0. -1.
         -3    1    6    6    0  502 -0.96088741528E+01 -0.19631236048E+03 -0.20192216593E+02  0.19758187910E+03  0.00000000000E+00 0.  1.
<mgrwt>
<rscale>  0 0.54411132E+03</rscale>
<asrwt>0</asrwt>
<pdfrwt beam="1">  1        1 0.18766696E+00 0.54411132E+03</pdfrwt>
<pdfrwt beam="2">  1       -2 0.50853898E-01 0.54411132E+03</pdfrwt>
<totfact> 0.34812722E+01</totfact>
</mgrwt>
</event>
<event>
12    3  0.1176505E-007  0.3754513E+03  0.7818608E-02  0.1052628E+00
         -2   -1    0    0    0  501 -0.00000000000E+00  0.00000000000E+00  0.11354442380E+03  0.11354442380E+03  0.00000000000E+00 0.  1.
          1   -1    0    0  501    0  0.00000000000E+00 -0.00000000000E+00 -0.20329704569E+04  0.20329704569E+04  0.00000000000E+00 0. -1.
        -24    2    1    2    0    0  0.16209177014E+03 -0.49391940684E+02 -0.11052934632E+04  0.11210976762E+04  0.80455293342E+02 0.  0.
    5000000    2    1    2    0    0 -0.16209177014E+03  0.49391940684E+02 -0.81413256991E+03  0.10254172044E+04  0.59996274549E+03 0.  0.
        -24    2    4    4    0    0  0.41511046571E+02 -0.21915945482E+03 -0.51459631043E+03  0.56661612236E+03  0.80563228478E+02 0.  0.
         24    2    4    4    0    0 -0.20360281671E+03  0.26855139551E+03 -0.29953625948E+03  0.45880108206E+03  0.84867562441E+02 0.  0.
         11    1    5    5    0    0  0.59682371576E+01 -0.41393130384E+02 -0.37250228550E+02  0.56005273187E+02  0.00000000000E+00 0. -1.
        -12    1    5    5    0    0  0.35542809414E+02 -0.17776632444E+03 -0.47734608188E+03  0.51061084917E+03  0.00000000000E+00 0.  1.
         15    1    3    3    0    0  0.10636306714E+03 -0.65519246839E+02 -0.62932788557E+03  0.64160939756E+03  0.17770000000E+01 0. -1.
        -16    1    3    3    0    0  0.55728702998E+02  0.16127306154E+02 -0.47596557759E+03  0.47948827868E+03  0.00000000000E+00 0.  1.
          4    1    6    6  502    0 -0.66443403442E+02  0.14803044271E+03 -0.11266914365E+03  0.19754005609E+03  0.00000000000E+00 0. -1.
         -1    1    6    6    0  502 -0.13715941327E+03  0.12052095280E+03 -0.18686711583E+03  0.26126102597E+03  0.00000000000E+00 0.  1.
<mgrwt>
<rscale>  0 0.37545129E+03</rscale>
<asrwt>0</asrwt>
<pdfrwt beam="1">  1        1 0.31276469E+00 0.37545129E+03</pdfrwt>
<pdfrwt beam="2">  1       -2 0.17468372E-01 0.37545129E+03</pdfrwt>
<totfact> 0.73279683E+01</totfact>
</mgrwt>
</event>
<event>
12    3  0.1176505E-007  0.6532129E+03  0.7818608E-02  0.9800769E-01
         -2   -1    0    0    0  501 -0.00000000000E+00  0.00000000000E+00  0.26754705300E+03  0.26754705300E+03  0.00000000000E+00 0.  1.
          1   -1    0    0  501    0  0.00000000000E+00 -0.00000000000E+00 -0.19448068503E+04  0.19448068503E+04  0.00000000000E+00 0. -1.
        -24    2    1    2    0    0  0.58699645571E+03 -0.85457127458E+02 -0.67437268253E+03  0.90173308421E+03  0.80475341362E+02 0.  0.
    5000000    2    1    2    0    0 -0.58699645571E+03  0.85457127458E+02 -0.10028871148E+04  0.13106208191E+04  0.60006383561E+03 0.  0.
        -24    2    4    4    0    0 -0.24757909020E+03  0.21919152640E+03 -0.83379119837E+03  0.90029408667E+03  0.77339180685E+02 0.  0.
         24    2    4    4    0    0 -0.33941736551E+03 -0.13373439894E+03 -0.16909591638E+03  0.41032673240E+03  0.81765279434E+02 0.  0.
         11    1    5    5    0    0 -0.11550095853E+03  0.64247646278E+02 -0.39605498610E+03  0.41752578781E+03  0.00000000000E+00 0. -1.
        -12    1    5    5    0    0 -0.13207813167E+03  0.15494388012E+03 -0.43773621227E+03  0.48276829886E+03  0.00000000000E+00 0.  1.
         15    1    3    3    0    0  0.45953925132E+03 -0.35491298192E+02 -0.53911517186E+03  0.70928434497E+03  0.17770000000E+01 0. -1.
        -16    1    3    3    0    0  0.12745720439E+03 -0.49965829266E+02 -0.13525751067E+03  0.19244873925E+03  0.00000000000E+00 0.  1.
          2    1    6    6  502    0 -0.27401669414E+03 -0.72948100430E+02 -0.14128042438E+03  0.31680709010E+03  0.00000000000E+00 0. -1.
         -1    1    6    6    0  502 -0.65400671367E+02 -0.60786298507E+02 -0.27815492001E+02  0.93519642304E+02  0.00000000000E+00 0.  1.
<mgrwt>
<rscale>  0 0.65321291E+03</rscale>
<asrwt>0</asrwt>
<pdfrwt beam="1">  1        1 0.29920105E+00 0.65321291E+03</pdfrwt>
<pdfrwt beam="2">  1       -2 0.41161086E-01 0.65321291E+03</pdfrwt>
<totfact> 0.16790065E+01</totfact>
</mgrwt>
</event>
<event>
12    3  0.1176505E-007  0.5681497E+03  0.7818608E-02  0.9973781E-01
         -2   -1    0    0    0  501 -0.00000000000E+00  0.00000000000E+00  0.21493358271E+03  0.21493358271E+03  0.00000000000E+00 0.  1.
          1   -1    0    0  501    0  0.00000000000E+00 -0.00000000000E+00 -0.20715022492E+04  0.20715022492E+04  0.00000000000E+00 0. -1.
        -24    2    1    2    0    0  0.13925070739E+02 -0.49660704856E+03 -0.43411974434E+03  0.66452287677E+03  0.79487313804E+02 0.  0.
    5000000    2    1    2    0    0 -0.13925070739E+02  0.49660704856E+03 -0.14224489221E+04  0.16219129551E+04  0.60035675195E+03 0.  0.
        -24    2    4    4    0    0 -0.15415562505E+03  0.64979667574E+02 -0.93278194994E+03  0.95116543994E+03  0.81530448764E+02 0.  0.
         24    2    4    4    0    0  0.14023055431E+03  0.43162738099E+03 -0.48966697218E+03  0.67074751516E+03  0.64511092582E+02 0.  0.
         13    1    5    5    0    0 -0.83765058107E+02  0.72494978671E+02 -0.46230325122E+03  0.47539078975E+03  0.00000000000E+00 0. -1.
        -14    1    5    5    0    0 -0.70390566941E+02 -0.75153110966E+01 -0.47047869873E+03  0.47577465020E+03  0.00000000000E+00 0.  1.
         15    1    3    3    0    0 -0.12819535308E+02 -0.34118408224E+03 -0.25684458459E+03  0.42725076574E+03  0.17770000000E+01 0. -1.
        -16    1    3    3    0    0  0.26744606047E+02 -0.15542296632E+03 -0.17727515975E+03  0.23727211103E+03  0.00000000000E+00 0.  1.
          4    1    6    6  502    0  0.68845138769E+02  0.27463502392E+03 -0.33953198179E+03  0.44209276871E+03  0.00000000000E+00 0. -1.
         -3    1    6    6    0  502  0.71385415540E+02  0.15699235707E+03 -0.15013499039E+03  0.22865474644E+03  0.00000000000E+00 0.  1.
<mgrwt>
<rscale>  0 0.56814975E+03</rscale>
<asrwt>0</asrwt>
<pdfrwt beam="1">  1        1 0.31869264E+00 0.56814975E+03</pdfrwt>
<pdfrwt beam="2">  1       -2 0.33066707E-01 0.56814975E+03</pdfrwt>
<totfact> 0.21339797E+01</totfact>
</mgrwt>
</event>
<event>
12    3  0.1176505E-007  0.4583847E+03  0.7818608E-02  0.1025251E+00
          1   -1    0    0  501    0  0.00000000000E+00  0.00000000000E+00  0.50464456188E+03  0.50464456188E+03  0.00000000000E+00 0. -1.
         -2   -1    0    0    0  501 -0.00000000000E+00 -0.00000000000E+00 -0.64386605203E+03  0.64386605203E+03  0.00000000000E+00 0.  1.
        -24    2    1    2    0    0  0.36602683014E+03  0.17503152643E+03 -0.13535167162E+02  0.41344232765E+03  0.78356122422E+02 0.  0.
    5000000    2    1    2    0    0 -0.36602683014E+03 -0.17503152643E+03 -0.12568632299E+03  0.73506828625E+03  0.59993054435E+03 0.  0.
        -24    2    4    4    0    0  0.18273668224E+02 -0.47474687236E+02 -0.27767361693E+03  0.29485353529E+03  0.85136342745E+02 0.  0.
         24    2    4    4    0    0 -0.38430049836E+03 -0.12755683919E+03  0.15198729394E+03  0.44021475097E+03  0.82044312322E+02 0.  0.
         11    1    5    5    0    0  0.50498157267E+02 -0.14666942443E+02 -0.16423905812E+03  0.17245188112E+03  0.00000000000E+00 0. -1.
        -12    1    5    5    0    0 -0.32224489043E+02 -0.32807744792E+02 -0.11343455881E+03  0.12240165417E+03  0.00000000000E+00 0.  1.
         15    1    3    3    0    0  0.15899368171E+03  0.33808081185E+02 -0.21901998631E+01  0.16257285100E+03  0.17770000000E+01 0. -1.
        -16    1    3    3    0    0  0.20703314842E+03  0.14122344524E+03 -0.11344967299E+02  0.25086947665E+03  0.00000000000E+00 0.  1.
          2    1    6    6  502    0 -0.27631528379E+03 -0.87223713175E+02  0.14681446928E+03  0.32482703180E+03  0.00000000000E+00 0. -1.
         -3    1    6    6    0  502 -0.10798521457E+03 -0.40333126017E+02  0.51728246594E+01  0.11538771917E+03  0.00000000000E+00 0.  1.
<mgrwt>
<rscale>  0 0.45838474E+03</rscale>
<asrwt>0</asrwt>
<pdfrwt beam="1">  1        1 0.77637625E-01 0.45838474E+03</pdfrwt>
<pdfrwt beam="2">  1       -2 0.99056316E-01 0.45838474E+03</pdfrwt>
<totfact> 0.33841874E+01</totfact>
</mgrwt>
</event>
<event>
12    3  0.1176505E-007  0.6638245E+03  0.7818608E-02  0.9781179E-01
         -2   -1    0    0    0  501 -0.00000000000E+00  0.00000000000E+00  0.13659164616E+04  0.13659164616E+04  0.00000000000E+00 0.  1.
          1   -1    0    0  501    0  0.00000000000E+00 -0.00000000000E+00 -0.57979466039E+03  0.57979466039E+03  0.00000000000E+00 0. -1.
        -24    2    1    2    0    0 -0.44856010725E+03  0.30908093476E+03  0.96948161795E+03  0.11147990703E+04  0.78391106553E+02 0.  0.
    5000000    2    1    2    0    0  0.44856010725E+03 -0.30908093476E+03 -0.18335981671E+03  0.83091205171E+03  0.60004734916E+03 0.  0.
        -24    2    4    4    0    0  0.57038930600E+03 -0.24671001559E+03 -0.22734583145E+03  0.66649534974E+03  0.79499257649E+02 0.  0.
         24    2    4    4    0    0 -0.12182919874E+03 -0.62370919177E+02  0.43986014739E+02  0.16441670196E+03  0.79784692559E+02 0.  0.
         13    1    5    5    0    0  0.22018496858E+03 -0.13775856524E+03 -0.97617794965E+02  0.27746725317E+03  0.00000000000E+00 0. -1.
        -14    1    5    5    0    0  0.35020433741E+03 -0.10895145035E+03 -0.12972803648E+03  0.38902809658E+03  0.00000000000E+00 0.  1.
         15    1    3    3    0    0 -0.97153277967E+02  0.50741474252E+02  0.25728350003E+03  0.27966303607E+03  0.17770000000E+01 0. -1.
        -16    1    3    3    0    0 -0.35140682929E+03  0.25833946051E+03  0.71219811792E+03  0.83513603425E+03  0.00000000000E+00 0.  1.
          4    1    6    6  502    0 -0.44515009658E+02 -0.64118732597E+02  0.60812838496E+01  0.78292911352E+02  0.00000000000E+00 0. -1.
         -1    1    6    6    0  502 -0.77314189085E+02  0.17478134197E+01  0.37904730890E+02  0.86123790613E+02  0.00000000000E+00 0.  1.
<mgrwt>
<rscale>  0 0.66382448E+03</rscale>
<asrwt>0</asrwt>
<pdfrwt beam="1">  1        1 0.89199179E-01 0.66382448E+03</pdfrwt>
<pdfrwt beam="2">  1       -2 0.21014099E+00 0.66382448E+03</pdfrwt>
<totfact> 0.37449284E+00</totfact>
</mgrwt>
</event>
<event>
12    3  0.1176505E-007  0.1473471E+04  0.7818608E-02  0.8902289E-01
         -2   -1    0    0    0  501 -0.00000000000E+00  0.00000000000E+00  0.80844470161E+03  0.80844470161E+03  0.00000000000E+00 0.  1.
          1   -1    0    0  501    0  0.00000000000E+00 -0.00000000000E+00 -0.28716808693E+04  0.28716808693E+04  0.00000000000E+00 0. -1.
        -24    2    1    2    0    0 -0.94884980073E+03  0.10967310025E+04 -0.12291901611E+04  0.19028534898E+04  0.82511305400E+02 0.  0.
    5000000    2    1    2    0    0  0.94884980073E+03 -0.10967310025E+04 -0.83404600659E+03  0.17772720811E+04  0.59994039109E+03 0.  0.
        -24    2    4    4    0    0  0.26320746519E+03 -0.94752383598E+02 -0.38007393674E+03  0.47860438878E+03  0.79685504611E+02 0.  0.
         24    2    4    4    0    0  0.68564233554E+03 -0.10019786189E+04 -0.45397206986E+03  0.12986676923E+04  0.79878468847E+02 0.  0.
         13    1    5    5    0    0  0.11593020049E+03 -0.56500307753E+02 -0.11417043448E+03  0.17224106441E+03  0.00000000000E+00 0. -1.
        -14    1    5    5    0    0  0.14727726470E+03 -0.38252075845E+02 -0.26590350226E+03  0.30636332437E+03  0.00000000000E+00 0.  1.
         15    1    3    3    0    0 -0.57483896549E+03  0.65155104886E+03 -0.78782179852E+03  0.11728703890E+04  0.17770000000E+01 0. -1.
        -16    1    3    3    0    0 -0.37401083524E+03  0.44517995361E+03 -0.44136836255E+03  0.72998310078E+03  0.00000000000E+00 0.  1.
          4    1    6    6  502    0  0.81689535619E+02 -0.88804816081E+02 -0.27829801974E+02  0.12383042222E+03  0.00000000000E+00 0. -1.
         -3    1    6    6    0  502  0.60395279992E+03 -0.91317380279E+03 -0.42614226788E+03  0.11748372701E+04  0.00000000000E+00 0.  1.
<mgrwt>
<rscale>  0 0.14734706E+04</rscale>
<asrwt>0</asrwt>
<pdfrwt beam="1">  1        1 0.44179706E+00 0.14734706E+04</pdfrwt>
<pdfrwt beam="2">  1       -2 0.12437611E+00 0.14734706E+04</pdfrwt>
<totfact> 0.30121054E-01</totfact>
</mgrwt>
</event>
<event>
12    3  0.1176505E-007  0.7599214E+03  0.7818608E-02  0.9619913E-01
          1   -1    0    0  501    0  0.00000000000E+00  0.00000000000E+00  0.10877327810E+04  0.10877327810E+04  0.00000000000E+00 0. -1.
         -2   -1    0    0    0  501 -0.00000000000E+00 -0.00000000000E+00 -0.71095440293E+03  0.71095440293E+03  0.00000000000E+00 0.  1.
        -24    2    1    2    0    0 -0.25517645323E+03 -0.68812050418E+03  0.42067527094E+03  0.84967387651E+03  0.79706726742E+02 0.  0.
    5000000    2    1    2    0    0  0.25517645323E+03  0.68812050418E+03 -0.43896892860E+02  0.94901330743E+03  0.60006205507E+03 0.  0.
        -24    2    4    4    0    0  0.24261924175E+03  0.28317531015E+03 -0.28032104094E+03  0.47324228862E+03  0.79536312465E+02 0.  0.
         24    2    4    4    0    0  0.12557211483E+02  0.40494519403E+03  0.23642414808E+03  0.47577101881E+03  0.79519751155E+02 0.  0.
         13    1    5    5    0    0  0.78765422477E+02  0.14759530174E+03 -0.14302906738E+03  0.22010379141E+03  0.00000000000E+00 0. -1.
        -14    1    5    5    0    0  0.16385381927E+03  0.13558000841E+03 -0.13729197356E+03  0.25313849721E+03  0.00000000000E+00 0.  1.
         15    1    3    3    0    0 -0.44575405166E+02 -0.13750681550E+03  0.12016179545E+03  0.18798166365E+03  0.17770000000E+01 0. -1.
        -16    1    3    3    0    0 -0.21060104807E+03 -0.55061368867E+03  0.30051347549E+03  0.66169221286E+03  0.00000000000E+00 0.  1.
          4    1    6    6  502    0  0.18864075785E+02  0.24505639884E+03  0.99453077509E+02  0.26514035263E+03  0.00000000000E+00 0. -1.
         -3    1    6    6    0  502 -0.63068643021E+01  0.15988879519E+03  0.13697107057E+03  0.21063066618E+03  0.00000000000E+00 0.  1.
<mgrwt>
<rscale>  0 0.75992139E+03</rscale>
<asrwt>0</asrwt>
<pdfrwt beam="1">  1        1 0.16734350E+00 0.75992139E+03</pdfrwt>
<pdfrwt beam="2">  1       -2 0.10937760E+00 0.75992139E+03</pdfrwt>
<totfact> 0.77496859E+00</totfact>
</mgrwt>
</event>
<event>
12    3  0.1176505E-007  0.1131458E+04  0.7818608E-02  0.9175062E-01
         -2   -1    0    0    0  501 -0.00000000000E+00  0.00000000000E+00  0.99750299216E+03  0.99750299216E+03  0.00000000000E+00 0.  1.
          1   -1    0    0  501    0  0.00000000000E+00 -0.00000000000E+00 -0.15132655367E+04  0.15132655367E+04  0.00000000000E+00 0. -1.
        -24    2    1    2    0    0 -0.88944513643E+02 -0.10820722524E+04 -0.64237539694E+03  0.12638550610E+04  0.76759226586E+02 0.  0.
    5000000    2    1    2    0    0  0.88944513643E+02  0.10820722524E+04  0.12661285241E+03  0.12469134678E+04  0.59997574608E+03 0.  0.
        -24    2    4    4    0    0  0.26946303348E+03  0.61555134161E+03  0.25804841346E+03  0.72375043956E+03  0.75577341225E+02 0.  0.
         24    2    4    4    0    0 -0.18051851984E+03  0.46652091077E+03 -0.13143556104E+03  0.52316302823E+03  0.78711823821E+02 0.  0.
         11    1    5    5    0    0  0.23829572300E+03  0.58148608781E+03  0.25248684683E+03  0.67724480784E+03  0.00000000000E+00 0. -1.
        -12    1    5    5    0    0  0.31167310477E+02  0.34065253803E+02  0.55615666267E+01  0.46505631728E+02  0.00000000000E+00 0.  1.
         15    1    3    3    0    0 -0.30218939522E+02 -0.74974697028E+03 -0.42355254845E+03  0.86164588014E+03  0.17770000000E+01 0. -1.
        -16    1    3    3    0    0 -0.58725574122E+02 -0.33232528210E+03 -0.21882284849E+03  0.40220918091E+03  0.00000000000E+00 0.  1.
          4    1    6    6  502    0 -0.14902879712E+03  0.40101338120E+03 -0.82910087666E+02  0.43576988986E+03  0.00000000000E+00 0. -1.
         -3    1    6    6    0  502 -0.31489722715E+02  0.65507529565E+02 -0.48525473378E+02  0.87393138363E+02  0.00000000000E+00 0.  1.
<mgrwt>
<rscale>  0 0.11314581E+04</rscale>
<asrwt>0</asrwt>
<pdfrwt beam="1">  1        1 0.23281008E+00 0.11314581E+04</pdfrwt>
<pdfrwt beam="2">  1       -2 0.15346200E+00 0.11314581E+04</pdfrwt>
<totfact> 0.15567379E+00</totfact>
</mgrwt>
</event>
<event>
12    3  0.1176505E-007  0.6080291E+03  0.7818608E-02  0.9888887E-01
         -4   -1    0    0    0  501 -0.00000000000E+00  0.00000000000E+00  0.16121931501E+04  0.16121931501E+04  0.00000000000E+00 0.  1.
          1   -1    0    0  501    0  0.00000000000E+00 -0.00000000000E+00 -0.34724772557E+03  0.34724772557E+03  0.00000000000E+00 0. -1.
        -24    2    1    2    0    0 -0.40286853839E+03 -0.44157182186E+03  0.77164149047E+03  0.97940426978E+03  0.80705642667E+02 0.  0.
    5000000    2    1    2    0    0  0.40286853839E+03  0.44157182186E+03  0.49330393408E+03  0.98003660591E+03  0.59986185447E+03 0.  0.
        -24    2    4    4    0    0  0.19018885841E+03  0.24932796746E+03 -0.80089259271E+02  0.33321256196E+03  0.79246985908E+02 0.  0.
         24    2    4    4    0    0  0.21267967998E+03  0.19224385441E+03  0.57339319335E+03  0.64682404395E+03  0.86088581226E+02 0.  0.
         11    1    5    5    0    0  0.75265272009E+02  0.69690676610E+02 -0.60436563016E+02  0.11905557411E+03  0.00000000000E+00 0. -1.
        -12    1    5    5    0    0  0.11492358640E+03  0.17963729085E+03 -0.19652696254E+02  0.21415698785E+03  0.00000000000E+00 0.  1.
         15    1    3    3    0    0 -0.12147462825E+03 -0.18926170428E+03  0.27263781746E+03  0.35342695887E+03  0.17770000000E+01 0. -1.
        -16    1    3    3    0    0 -0.28139391014E+03 -0.25231011758E+03  0.49900367301E+03  0.62597731091E+03  0.00000000000E+00 0.  1.
          2    1    6    6  502    0  0.21927026018E+03  0.19074848373E+03  0.54511794500E+03  0.61775238163E+03  0.00000000000E+00 0. -1.
         -1    1    6    6    0  502 -0.65905802037E+01  0.14953706783E+01  0.28275248353E+02  0.29071662324E+02  0.00000000000E+00 0.  1.
<mgrwt>
<rscale>  0 0.60802907E+03</rscale>
<asrwt>0</asrwt>
<pdfrwt beam="1">  1        1 0.53422728E-01 0.60802907E+03</pdfrwt>
<pdfrwt beam="2">  1       -4 0.24802971E+00 0.60802907E+03</pdfrwt>
<totfact> 0.23123487E+00</totfact>
</mgrwt>
</event>
<event>
12    3  0.1176505E-007  0.8988616E+03  0.7818608E-02  0.9427006E-01
         -4   -1    0    0    0  501 -0.00000000000E+00  0.00000000000E+00  0.16182439105E+04  0.16182439105E+04  0.00000000000E+00 0.  1.
          1   -1    0    0  501    0  0.00000000000E+00 -0.00000000000E+00 -0.92424412153E+03  0.92424412153E+03  0.00000000000E+00 0. -1.
        -24    2    1    2    0    0 -0.45307558827E+03 -0.67627859295E+03  0.11677669459E+04  0.14256966294E+04  0.79378933685E+02 0.  0.
    5000000    2    1    2    0    0  0.45307558827E+03  0.67627859295E+03 -0.47376715697E+03  0.11167914026E+04  0.60011456736E+03 0.  0.
        -24    2    4    4    0    0  0.55107046617E+03  0.63982762173E+03 -0.30867938980E+03  0.90256933599E+03  0.79312019054E+02 0.  0.
         24    2    4    4    0    0 -0.97994877897E+02  0.36450971215E+02 -0.16508776717E+03  0.21422206662E+03  0.87780712928E+02 0.  0.
         13    1    5    5    0    0  0.33764606784E+03  0.43280965933E+03 -0.17136339490E+03  0.57506041548E+03  0.00000000000E+00 0. -1.
        -14    1    5    5    0    0  0.21342439834E+03  0.20701796240E+03 -0.13731599491E+03  0.32750892052E+03  0.00000000000E+00 0.  1.
         15    1    3    3    0    0 -0.24617426456E+03 -0.43674954451E+03  0.71975060972E+03  0.87715222799E+03  0.17770000000E+01 0. -1.
        -16    1    3    3    0    0 -0.20690132372E+03 -0.23952904844E+03  0.44801633618E+03  0.54854440138E+03  0.00000000000E+00 0.  1.
          2    1    6    6  502    0 -0.10599150754E+03  0.50511404277E+02 -0.15725038056E+03  0.19624801609E+03  0.00000000000E+00 0. -1.
         -1    1    6    6    0  502  0.79966296463E+01 -0.14060433062E+02 -0.78373866075E+01  0.17974050529E+02  0.00000000000E+00 0.  1.
<mgrwt>
<rscale>  0 0.89886163E+03</rscale>
<asrwt>0</asrwt>
<pdfrwt beam="1">  1        1 0.14219140E+00 0.89886163E+03</pdfrwt>
<pdfrwt beam="2">  1       -4 0.24896060E+00 0.89886163E+03</pdfrwt>
<totfact> 0.53463636E-01</totfact>
</mgrwt>
</event>
<event>
12    3  0.1176505E-007  0.5991990E+03  0.7818608E-02  0.9907069E-01
          1   -1    0    0  501    0  0.00000000000E+00  0.00000000000E+00  0.28685739354E+03  0.28685739354E+03  0.00000000000E+00 0. -1.
         -2   -1    0    0    0  501 -0.00000000000E+00 -0.00000000000E+00 -0.14252320865E+04  0.14252320865E+04  0.00000000000E+00 0.  1.
        -24    2    1    2    0    0 -0.49069086799E+03  0.62673686060E+02 -0.46407792684E+03  0.68292752303E+03  0.79474276875E+02 0.  0.
    5000000    2    1    2    0    0  0.49069086799E+03 -0.62673686060E+02 -0.67429676610E+03  0.10291619570E+04  0.59982721353E+03 0.  0.
        -24    2    4    4    0    0  0.53463040959E+03  0.70806281618E+02 -0.30157001444E+03  0.62300217446E+03  0.79649428106E+02 0.  0.
         24    2    4    4    0    0 -0.43939541605E+02 -0.13347996768E+03 -0.37272675166E+03  0.40615978253E+03  0.79328131521E+02 0.  0.
         11    1    5    5    0    0  0.86746395926E+02 -0.94934363741E+01 -0.73116965993E+02  0.11384706082E+03  0.00000000000E+00 0. -1.
        -12    1    5    5    0    0  0.44788401367E+03  0.80299717992E+02 -0.22845304844E+03  0.50915511365E+03  0.00000000000E+00 0.  1.
         15    1    3    3    0    0 -0.46329618389E+03  0.56802410963E+02 -0.40678118525E+03  0.61914776774E+03  0.17770000000E+01 0. -1.
        -16    1    3    3    0    0 -0.27394684096E+02  0.58712750973E+01 -0.57296741586E+02  0.63779755286E+02  0.00000000000E+00 0.  1.
          2    1    6    6  502    0  0.23128937307E+02 -0.41145862460E+02 -0.11361434473E+03  0.12302905782E+03  0.00000000000E+00 0. -1.
         -1    1    6    6    0  502 -0.67068478912E+02 -0.92334105218E+02 -0.25911240693E+03  0.28313072471E+03  0.00000000000E+00 0.  1.
<mgrwt>
<rscale>  0 0.59919896E+03</rscale>
<asrwt>0</asrwt>
<pdfrwt beam="1">  1        1 0.44131907E-01 0.59919896E+03</pdfrwt>
<pdfrwt beam="2">  1       -2 0.21926647E+00 0.59919896E+03</pdfrwt>
<totfact> 0.84636987E+00</totfact>
</mgrwt>
</event>
<event>
12    3  0.1176505E-007  0.1633126E+04  0.7818608E-02  0.8800452E-01
          1   -1    0    0  501    0  0.00000000000E+00  0.00000000000E+00  0.16447696225E+04  0.16447696225E+04  0.00000000000E+00 0. -1.
         -2   -1    0    0    0  501 -0.00000000000E+00 -0.00000000000E+00 -0.20916689317E+04  0.20916689317E+04  0.00000000000E+00 0.  1.
        -24    2    1    2    0    0 -0.15987826881E+04 -0.53423958652E+02 -0.10608241415E+04  0.19210088694E+04  0.77246450478E+02 0.  0.
    5000000    2    1    2    0    0  0.15987826881E+04  0.53423958652E+02  0.61392483235E+03  0.18154296847E+04  0.59993419424E+03 0.  0.
        -24    2    4    4    0    0  0.86631423322E+03  0.25308461751E+03  0.52635480247E+03  0.10475648015E+04  0.76095078727E+02 0.  0.
         24    2    4    4    0    0  0.73246845486E+03 -0.19966065885E+03  0.87570029881E+02  0.76786488323E+03  0.74656230144E+02 0.  0.
         13    1    5    5    0    0  0.35497631220E+03  0.85355136938E+02  0.25112161103E+03  0.44312046348E+03  0.00000000000E+00 0. -1.
        -14    1    5    5    0    0  0.51133792102E+03  0.16772948057E+03  0.27523319143E+03  0.60444433804E+03  0.00000000000E+00 0.  1.
         15    1    3    3    0    0 -0.15571219363E+03 -0.18396908778E+02 -0.82119063058E+02  0.17700686920E+03  0.17770000000E+01 0. -1.
        -16    1    3    3    0    0 -0.14430704944E+04 -0.35027049874E+02 -0.97870507848E+03  0.17440020002E+04  0.00000000000E+00 0.  1.
          4    1    6    6  502    0  0.17977630572E+03 -0.82197328135E+02  0.29203670499E+02  0.19982185872E+03  0.00000000000E+00 0. -1.
         -3    1    6    6    0  502  0.55269214914E+03 -0.11746333072E+03  0.58366359383E+02  0.56804302451E+03  0.00000000000E+00 0.  1.
<mgrwt>
<rscale>  0 0.16331262E+04</rscale>
<asrwt>0</asrwt>
<pdfrwt beam="1">  1        1 0.25304148E+00 0.16331262E+04</pdfrwt>
<pdfrwt beam="2">  1       -2 0.32179522E+00 0.16331262E+04</pdfrwt>
<totfact> 0.98737174E-02</totfact>
</mgrwt>
</event>
<event>
12    3  0.1176505E-007  0.2980014E+03  0.7818608E-02  0.1086244E+00
          1   -1    0    0  501    0  0.00000000000E+00  0.00000000000E+00  0.22902014169E+04  0.22902014169E+04  0.00000000000E+00 0. -1.
         -2   -1    0    0    0  501 -0.00000000000E+00 -0.00000000000E+00 -0.94668388483E+02  0.94668388483E+02  0.00000000000E+00 0.  1.
        -24    2    1    2    0    0  0.94419468262E+02  0.24565081770E+03  0.71770741132E+03  0.76844303425E+03  0.78367138530E+02 0.  0.
    5000000    2    1    2    0    0 -0.94419468262E+02 -0.24565081770E+03  0.14778256171E+04  0.16164267711E+04  0.59967290388E+03 0.  0.
        -24    2    4    4    0    0 -0.83869971117E+02 -0.51273923755E+02  0.13670591447E+04  0.13728823859E+04  0.79323091809E+02 0.  0.
         24    2    4    4    0    0 -0.10549497145E+02 -0.19437689395E+03  0.11076647231E+03  0.24354438522E+03  0.95660793390E+02 0.  0.
         13    1    5    5    0    0 -0.81399016974E+02 -0.72934355290E+01  0.94702278733E+03  0.95054255764E+03  0.00000000000E+00 0. -1.
        -14    1    5    5    0    0 -0.24709541436E+01 -0.43980488226E+02  0.42003635742E+03  0.42233982824E+03  0.00000000000E+00 0.  1.
         15    1    3    3    0    0  0.69455947259E+02  0.22233903109E+03  0.67305336143E+03  0.71222381203E+03  0.17770000000E+01 0. -1.
        -16    1    3    3    0    0  0.24963521003E+02  0.23311786616E+02  0.44654049885E+02  0.56219222222E+02  0.00000000000E+00 0.  1.
          2    1    6    6  502    0  0.22514844647E+02 -0.47337675290E+02 -0.61797542514E+01  0.52782223276E+02  0.00000000000E+00 0. -1.
         -1    1    6    6    0  502 -0.33064341792E+02 -0.14703921866E+03  0.11694622656E+03  0.19076216194E+03  0.00000000000E+00 0.  1.
<mgrwt>
<rscale>  0 0.29800139E+03</rscale>
<asrwt>0</asrwt>
<pdfrwt beam="1">  1        1 0.35233864E+00 0.29800139E+03</pdfrwt>
<pdfrwt beam="2">  1       -2 0.14564369E-01 0.29800139E+03</pdfrwt>
<totfact> 0.68685991E+01</totfact>
</mgrwt>
</event>
<event>
12    3  0.1176505E-007  0.1742074E+04  0.7818608E-02  0.8737725E-01
         -2   -1    0    0    0  501 -0.00000000000E+00  0.00000000000E+00  0.87446070628E+03  0.87446070628E+03  0.00000000000E+00 0.  1.
          1   -1    0    0  501    0  0.00000000000E+00 -0.00000000000E+00 -0.40888185161E+04  0.40888185161E+04  0.00000000000E+00 0. -1.
        -24    2    1    2    0    0  0.39439078231E+03  0.16927041329E+04 -0.76532542567E+03  0.19008397015E+04  0.81714092226E+02 0.  0.
    5000000    2    1    2    0    0 -0.39439078231E+03 -0.16927041329E+04 -0.24490323842E+04  0.30624395209E+04  0.59998735796E+03 0.  0.
        -24    2    4    4    0    0 -0.30104393047E+03 -0.13269226474E+04 -0.22443429299E+04  0.26257633984E+04  0.78785003760E+02 0.  0.
         24    2    4    4    0    0 -0.93346851833E+02 -0.36578148549E+03 -0.20468945428E+03  0.43667612255E+03  0.79237197343E+02 0.  0.
         13    1    5    5    0    0 -0.13922690571E+02 -0.75859267311E+02 -0.16518704882E+03  0.18230532315E+03  0.00000000000E+00 0. -1.
        -14    1    5    5    0    0 -0.28712123990E+03 -0.12510633801E+04 -0.20791558811E+04  0.24434580752E+04  0.00000000000E+00 0.  1.
         15    1    3    3    0    0  0.19888273943E+03  0.10117971113E+04 -0.43403034476E+03  0.11187820326E+04  0.17770000000E+01 0. -1.
        -16    1    3    3    0    0  0.19550804287E+03  0.68090702162E+03 -0.33129508091E+03  0.78205766894E+03  0.00000000000E+00 0.  1.
          4    1    6    6  502    0  0.11119955411E+02 -0.23755004319E+02 -0.25854443393E+02  0.36829415983E+02  0.00000000000E+00 0. -1.
         -3    1    6    6    0  502 -0.10446680724E+03 -0.34202648117E+03 -0.17883501089E+03  0.39984670657E+03  0.00000000000E+00 0.  1.
<mgrwt>
<rscale>  0 0.17420735E+04</rscale>
<asrwt>0</asrwt>
<pdfrwt beam="1">  1        1 0.62904900E+00 0.17420735E+04</pdfrwt>
<pdfrwt beam="2">  1       -2 0.13453242E+00 0.17420735E+04</pdfrwt>
<totfact> 0.26060524E-02</totfact>
</mgrwt>
</event>
<event>
12    3  0.1176505E-007  0.9864716E+03  0.7818608E-02  0.9323508E-01
          1   -1    0    0  501    0  0.00000000000E+00  0.00000000000E+00  0.13106233575E+04  0.13106233575E+04  0.00000000000E+00 0. -1.
         -2   -1    0    0    0  501 -0.00000000000E+00 -0.00000000000E+00 -0.10203343778E+04  0.10203343778E+04  0.00000000000E+00 0.  1.
        -24    2    1    2    0    0  0.35300641281E+03 -0.83685390892E+03  0.71878539458E+03  0.11610632507E+04  0.80482521318E+02 0.  0.
    5000000    2    1    2    0    0 -0.35300641281E+03  0.83685390892E+03 -0.42849641491E+03  0.11698944846E+04  0.60008827284E+03 0.  0.
        -24    2    4    4    0    0 -0.13079338633E+03  0.81607154451E+03 -0.23212844593E+03  0.86220856309E+03  0.80251574452E+02 0.  0.
         24    2    4    4    0    0 -0.22221302648E+03  0.20782364409E+02 -0.19636796898E+03  0.30768592153E+03  0.79370720401E+02 0.  0.
         13    1    5    5    0    0 -0.12721904733E+03  0.56236114929E+03 -0.15616600718E+03  0.59734627314E+03  0.00000000000E+00 0. -1.
        -14    1    5    5    0    0 -0.35743390071E+01  0.25371039521E+03 -0.75962438745E+02  0.26486228995E+03  0.00000000000E+00 0.  1.
         15    1    3    3    0    0  0.12665819160E+03 -0.39739384818E+03  0.31184446309E+03  0.52078238733E+03  0.17770000000E+01 0. -1.
        -16    1    3    3    0    0  0.22634822121E+03 -0.43946006074E+03  0.40694093149E+03  0.64028086333E+03  0.00000000000E+00 0.  1.
          4    1    6    6  502    0 -0.14995778275E+03  0.42326895179E+02 -0.99275521332E+02  0.18475532955E+03  0.00000000000E+00 0. -1.
         -3    1    6    6    0  502 -0.72255243729E+02 -0.21544530769E+02 -0.97092447652E+02  0.12293059198E+03  0.00000000000E+00 0.  1.
<mgrwt>
<rscale>  0 0.98647162E+03</rscale>
<asrwt>0</asrwt>
<pdfrwt beam="1">  1        1 0.20163436E+00 0.98647162E+03</pdfrwt>
<pdfrwt beam="2">  1       -2 0.15697452E+00 0.98647162E+03</pdfrwt>
<totfact> 0.20651618E+00</totfact>
</mgrwt>
</event>
<event>
12    3  0.1176505E-007  0.1131182E+04  0.7818608E-02  0.9175321E-01
          3   -1    0    0  501    0  0.00000000000E+00  0.00000000000E+00  0.14760960963E+04  0.14760960963E+04  0.00000000000E+00 0. -1.
         -4   -1    0    0    0  501 -0.00000000000E+00 -0.00000000000E+00 -0.14015653597E+04  0.14015653597E+04  0.00000000000E+00 0.  1.
        -24    2    1    2    0    0 -0.72259673833E+03  0.83325262941E+03 -0.78567013810E+03  0.13557102353E+04  0.64936009913E+02 0.  0.
    5000000    2    1    2    0    0  0.72259673833E+03 -0.83325262941E+03  0.86020087465E+03  0.15219512207E+04  0.59994498323E+03 0.  0.
        -24    2    4    4    0    0  0.11806058213E+02 -0.21212083568E+03  0.41960221249E+03  0.47719011134E+03  0.80683044626E+02 0.  0.
         24    2    4    4    0    0  0.71079068012E+03 -0.62113179373E+03  0.44059866216E+03  0.10447611094E+04  0.79815402642E+02 0.  0.
         13    1    5    5    0    0 -0.10757923262E+02 -0.73206478648E+02  0.76905667065E+02  0.10672114624E+03  0.00000000000E+00 0. -1.
        -14    1    5    5    0    0  0.22563981475E+02 -0.13891435703E+03  0.34269654543E+03  0.37046896509E+03  0.00000000000E+00 0.  1.
         15    1    3    3    0    0 -0.37786610383E+03  0.46680727221E+03 -0.45825314898E+03  0.75544088325E+03  0.17770000000E+01 0. -1.
        -16    1    3    3    0    0 -0.34473063451E+03  0.36644535721E+03 -0.32741698912E+03  0.60026935200E+03  0.00000000000E+00 0.  1.
          4    1    6    6  502    0  0.51456954326E+03 -0.45115020631E+03  0.27939840744E+03  0.73917642926E+03  0.00000000000E+00 0. -1.
         -3    1    6    6    0  502  0.19622113687E+03 -0.16998158742E+03  0.16120025473E+03  0.30558468015E+03  0.00000000000E+00 0.  1.
<mgrwt>
<rscale>  0 0.11311822E+04</rscale>
<asrwt>0</asrwt>
<pdfrwt beam="1">  1        3 0.22709171E+00 0.11311822E+04</pdfrwt>
<pdfrwt beam="2">  1       -4 0.21562544E+00 0.11311822E+04</pdfrwt>
<totfact> 0.22729576E-02</totfact>
</mgrwt>
</event>
<event>
12    3  0.1176505E-007  0.3090598E+03  0.7818608E-02  0.1080797E+00
         -2   -1    0    0    0  501 -0.00000000000E+00  0.00000000000E+00  0.28934737721E+03  0.28934737721E+03  0.00000000000E+00 0.  1.
          1   -1    0    0  501    0  0.00000000000E+00 -0.00000000000E+00 -0.73543936948E+03  0.73543936948E+03  0.00000000000E+00 0. -1.
        -24    2    1    2    0    0  0.79110366411E+02 -0.11167870721E+03 -0.37291390397E+03  0.40494352732E+03  0.78637756992E+02 0.  0.
    5000000    2    1    2    0    0 -0.79110366411E+02  0.11167870721E+03 -0.73178088299E+02  0.61984321937E+03  0.60009999190E+03 0.  0.
        -24    2    4    4    0    0  0.28687184604E+02 -0.16197465451E+03 -0.21601815020E+03  0.28323754623E+03  0.80628302190E+02 0.  0.
         24    2    4    4    0    0 -0.10779755102E+03  0.27365336172E+03  0.14284006190E+03  0.33660567314E+03  0.79960124554E+02 0.  0.
         11    1    5    5    0    0  0.12270590841E+01 -0.82686135314E+02 -0.16624486587E+03  0.18567675696E+03  0.00000000000E+00 0. -1.
        -12    1    5    5    0    0  0.27460125520E+02 -0.79288519199E+02 -0.49773284334E+02  0.97560789273E+02  0.00000000000E+00 0.  1.
         15    1    3    3    0    0  0.36125548604E+02 -0.67113615978E+01 -0.15466082886E+03  0.15897555583E+03  0.17770000000E+01 0. -1.
        -16    1    3    3    0    0  0.42984817807E+02 -0.10496734561E+03 -0.21825307511E+03  0.24596797150E+03  0.00000000000E+00 0.  1.
          4    1    6    6  502    0 -0.14534640955E+02  0.12480509943E+03  0.84904269083E+02  0.15164532153E+03  0.00000000000E+00 0. -1.
         -3    1    6    6    0  502 -0.93262910060E+02  0.14884826229E+03  0.57935792821E+02  0.18496035161E+03  0.00000000000E+00 0.  1.
<mgrwt>
<rscale>  0 0.30905980E+03</rscale>
<asrwt>0</asrwt>
<pdfrwt beam="1">  1        1 0.11314452E+00 0.30905980E+03</pdfrwt>
<pdfrwt beam="2">  1       -2 0.44514981E-01 0.30905980E+03</pdfrwt>
<totfact> 0.11206900E+02</totfact>
</mgrwt>
</event>
<event>
12    3  0.1176505E-007  0.7155948E+03  0.7818608E-02  0.9690929E-01
         -2   -1    0    0    0  501 -0.00000000000E+00  0.00000000000E+00  0.39795769081E+03  0.39795769081E+03  0.00000000000E+00 0.  1.
          1   -1    0    0  501    0  0.00000000000E+00 -0.00000000000E+00 -0.16463176483E+04  0.16463176483E+04  0.00000000000E+00 0. -1.
        -24    2    1    2    0    0 -0.66041178358E+03 -0.38056734563E+02 -0.26754356749E+03  0.71787607914E+03  0.78577767616E+02 0.  0.
    5000000    2    1    2    0    0  0.66041178358E+03  0.38056734563E+02 -0.98081638999E+03  0.13263992600E+04  0.59978510067E+03 0.  0.
        -24    2    4    4    0    0  0.45732986435E+03  0.19204128411E+03 -0.92577794259E+03  0.10532674672E+04  0.79228144190E+02 0.  0.
         24    2    4    4    0    0  0.20308191923E+03 -0.15398454954E+03 -0.55038447401E+02  0.27313179276E+03  0.81352554398E+02 0.  0.
         11    1    5    5    0    0  0.41848943513E+03  0.16116943613E+03 -0.78584562037E+03  0.90479960959E+03  0.00000000000E+00 0. -1.
        -12    1    5    5    0    0  0.38840429219E+02  0.30871847978E+02 -0.13993232221E+03  0.14846785760E+03  0.00000000000E+00 0.  1.
         15    1    3    3    0    0 -0.13976430172E+03 -0.39096494550E+02 -0.48540292142E+02  0.15304219553E+03  0.17770000000E+01 0. -1.
        -16    1    3    3    0    0 -0.52064748186E+03  0.10397599870E+01 -0.21900327535E+03  0.56483388361E+03  0.00000000000E+00 0.  1.
          2    1    6    6  502    0  0.40095376587E+02 -0.77577510343E+02 -0.22884944795E+02  0.90275301345E+02  0.00000000000E+00 0. -1.
         -1    1    6    6    0  502  0.16298654265E+03 -0.76407039201E+02 -0.32153502605E+02  0.18285649142E+03  0.00000000000E+00 0.  1.
<mgrwt>
<rscale>  0 0.71559479E+03</rscale>
<asrwt>0</asrwt>
<pdfrwt beam="1">  1        1 0.25327964E+00 0.71559479E+03</pdfrwt>
<pdfrwt beam="2">  1       -2 0.61224261E-01 0.71559479E+03</pdfrwt>
<totfact> 0.11740743E+01</totfact>
</mgrwt>
</event>
<event>
12    3  0.1176505E-007  0.5956191E+03  0.7818608E-02  0.9914537E-01
          1   -1    0    0  501    0  0.00000000000E+00  0.00000000000E+00  0.16442063098E+04  0.16442063098E+04  0.00000000000E+00 0. -1.
         -2   -1    0    0    0  501 -0.00000000000E+00 -0.00000000000E+00 -0.27814547274E+03  0.27814547274E+03  0.00000000000E+00 0.  1.
        -24    2    1    2    0    0 -0.37677976659E+03  0.36127485600E+03  0.35631976188E+03  0.63703204195E+03  0.79771772409E+02 0.  0.
    5000000    2    1    2    0    0  0.37677976659E+03 -0.36127485600E+03  0.10097410751E+04  0.12853197406E+04  0.59998940203E+03 0.  0.
        -24    2    4    4    0    0  0.33182840672E+03 -0.43113251669E+03  0.44382854468E+03  0.70682185404E+03  0.81412639210E+02 0.  0.
         24    2    4    4    0    0  0.44951359869E+02  0.69857660687E+02  0.56591253046E+03  0.57849788652E+03  0.86614635375E+02 0.  0.
         13    1    5    5    0    0  0.19450075357E+03 -0.23614948542E+03  0.29910169660E+03  0.42785388571E+03  0.00000000000E+00 0. -1.
        -14    1    5    5    0    0  0.13732765315E+03 -0.19498303126E+03  0.14472684808E+03  0.27896796833E+03  0.00000000000E+00 0.  1.
         15    1    3    3    0    0 -0.27393292673E+03  0.21567568756E+03  0.21566687749E+03  0.40996415737E+03  0.17770000000E+01 0. -1.
        -16    1    3    3    0    0 -0.10284683985E+03  0.14559916845E+03  0.14065288439E+03  0.22706788458E+03  0.00000000000E+00 0.  1.
          4    1    6    6  502    0  0.67086723971E+02  0.28293153713E+02  0.33135196403E+03  0.33925691613E+03  0.00000000000E+00 0. -1.
         -3    1    6    6    0  502 -0.22135364102E+02  0.41564506974E+02  0.23456056644E+03  0.23924097039E+03  0.00000000000E+00 0.  1.
<mgrwt>
<rscale>  0 0.59561914E+03</rscale>
<asrwt>0</asrwt>
<pdfrwt beam="1">  1        1 0.25295481E+00 0.59561914E+03</pdfrwt>
<pdfrwt beam="2">  1       -2 0.42791612E-01 0.59561914E+03</pdfrwt>
<totfact> 0.24913980E+01</totfact>
</mgrwt>
</event>
<event>
12    3  0.1176505E-007  0.1299140E+04  0.7818608E-02  0.9030248E-01
          1   -1    0    0  501    0  0.00000000000E+00  0.00000000000E+00  0.13287186342E+04  0.13287186342E+04  0.00000000000E+00 0. -1.
         -2   -1    0    0    0  501 -0.00000000000E+00 -0.00000000000E+00 -0.13124241088E+04  0.13124241088E+04  0.00000000000E+00 0.  1.
        -24    2    1    2    0    0  0.52817003750E+03 -0.11205069253E+04 -0.16889640094E+03  0.12522967874E+04  0.72262654720E+02 0.  0.
    5000000    2    1    2    0    0 -0.52817003750E+03  0.11205069253E+04  0.18519092629E+03  0.13888459556E+04  0.60008170360E+03 0.  0.
        -24    2    4    4    0    0 -0.37618836496E+03  0.20796700215E+03 -0.22482010166E+02  0.43737477584E+03  0.77609882383E+02 0.  0.
         24    2    4    4    0    0 -0.15198167254E+03  0.91253992315E+03  0.20767293646E+03  0.95147117975E+03  0.79635527343E+02 0.  0.
         13    1    5    5    0    0 -0.35181596935E+03  0.20258079006E+03 -0.38378348695E+02  0.40778223409E+03  0.00000000000E+00 0. -1.
        -14    1    5    5    0    0 -0.24372395605E+02  0.53862120913E+01  0.15896338530E+02  0.29592541744E+02  0.00000000000E+00 0.  1.
         15    1    3    3    0    0  0.10081093076E+03 -0.27646154331E+03 -0.24812047865E+02  0.29531783580E+03  0.17770000000E+01 0. -1.
        -16    1    3    3    0    0  0.42735910674E+03 -0.84404538199E+03 -0.14408435307E+03  0.95697895158E+03  0.00000000000E+00 0.  1.
          2    1    6    6  502    0 -0.15506528659E+03  0.82726287243E+03  0.17245441351E+03  0.85915634662E+03  0.00000000000E+00 0. -1.
         -1    1    6    6    0  502  0.30836140475E+01  0.85277050725E+02  0.35218522953E+02  0.92314833125E+02  0.00000000000E+00 0.  1.
<mgrwt>
<rscale>  0 0.12991398E+04</rscale>
<asrwt>0</asrwt>
<pdfrwt beam="1">  1        1 0.20441825E+00 0.12991398E+04</pdfrwt>
<pdfrwt beam="2">  1       -2 0.20191140E+00 0.12991398E+04</pdfrwt>
<totfact> 0.94232471E-01</totfact>
</mgrwt>
</event>
<event>
12    3  0.1176505E-007  0.7506492E+03  0.7818608E-02  0.9634332E-01
         -2   -1    0    0    0  501 -0.00000000000E+00  0.00000000000E+00  0.76079769156E+03  0.76079769156E+03  0.00000000000E+00 0.  1.
          1   -1    0    0  501    0  0.00000000000E+00 -0.00000000000E+00 -0.79920597607E+03  0.79920597607E+03  0.00000000000E+00 0. -1.
        -24    2    1    2    0    0  0.25903080375E+03  0.58603760936E+03 -0.18129963356E+03  0.67061236131E+03  0.79462853831E+02 0.  0.
    5000000    2    1    2    0    0 -0.25903080375E+03 -0.58603760936E+03  0.14289134905E+03  0.88939130632E+03  0.60005159882E+03 0.  0.
        -24    2    4    4    0    0 -0.11056830639E+03 -0.66870015379E+03  0.13931717258E+03  0.69743335557E+03  0.87285536221E+02 0.  0.
         24    2    4    4    0    0 -0.14846249736E+03  0.82662544428E+02  0.35741764701E+01  0.19195795075E+03  0.89223711785E+02 0.  0.
         13    1    5    5    0    0 -0.91736641875E+02 -0.54970302051E+03  0.79579101953E+02  0.56295812960E+03  0.00000000000E+00 0. -1.
        -14    1    5    5    0    0 -0.18831664516E+02 -0.11899713328E+03  0.59738070625E+02  0.13447522597E+03  0.00000000000E+00 0.  1.
         15    1    3    3    0    0  0.18066747770E+03  0.48580149400E+03 -0.14094503293E+03  0.53713358590E+03  0.17770000000E+01 0. -1.
        -16    1    3    3    0    0  0.78363326049E+02  0.10023611537E+03 -0.40354600634E+02  0.13347877541E+03  0.00000000000E+00 0.  1.
          2    1    6    6  502    0 -0.10093977049E+03  0.26421149608E+02 -0.33412235887E+02  0.10955953596E+03  0.00000000000E+00 0. -1.
         -1    1    6    6    0  502 -0.47522726869E+02  0.56241394820E+02  0.36986412357E+02  0.82398414787E+02  0.00000000000E+00 0.  1.
<mgrwt>
<rscale>  0 0.75064924E+03</rscale>
<asrwt>0</asrwt>
<pdfrwt beam="1">  1        1 0.12295477E+00 0.75064924E+03</pdfrwt>
<pdfrwt beam="2">  1       -2 0.11704580E+00 0.75064924E+03</pdfrwt>
<totfact> 0.11192818E+01</totfact>
</mgrwt>
</event>
<event>
12    3  0.1176505E-007  0.5314545E+03  0.7818608E-02  0.1005880E+00
          1   -1    0    0  501    0  0.00000000000E+00  0.00000000000E+00  0.72918846003E+03  0.72918846003E+03  0.00000000000E+00 0. -1.
         -2   -1    0    0    0  501 -0.00000000000E+00 -0.00000000000E+00 -0.63833141955E+03  0.63833141955E+03  0.00000000000E+00 0.  1.
        -24    2    1    2    0    0 -0.32535707029E+02  0.47476222052E+03  0.30666398897E+03  0.57188116669E+03  0.80916799360E+02 0.  0.
    5000000    2    1    2    0    0  0.32535707029E+02 -0.47476222052E+03 -0.21580694850E+03  0.79563871289E+03  0.60000882006E+03 0.  0.
        -24    2    4    4    0    0 -0.14058021392E+03 -0.27589337258E+03  0.13265804492E+03  0.35129991463E+03  0.99667063529E+02 0.  0.
         24    2    4    4    0    0  0.17311592094E+03 -0.19886884794E+03 -0.34846499342E+03  0.44433879826E+03  0.80567830012E+02 0.  0.
         11    1    5    5    0    0 -0.92077950565E+02 -0.23744875507E+03  0.13712820127E+03  0.28924799714E+03  0.00000000000E+00 0. -1.
        -12    1    5    5    0    0 -0.48502263351E+02 -0.38444617509E+02 -0.44701563475E+01  0.62051917483E+02  0.00000000000E+00 0.  1.
         15    1    3    3    0    0  0.25227005487E+02  0.21925987882E+03  0.13646065826E+03  0.25949174408E+03  0.17770000000E+01 0. -1.
        -16    1    3    3    0    0 -0.57762712515E+02  0.25550234171E+03  0.17020333071E+03  0.31238942261E+03  0.00000000000E+00 0.  1.
          4    1    6    6  502    0  0.11233996987E+03 -0.12698887010E+03 -0.15740605665E+03  0.23135061839E+03  0.00000000000E+00 0. -1.
         -3    1    6    6    0  502  0.60775951077E+02 -0.71879977839E+02 -0.19105893678E+03  0.21298817987E+03  0.00000000000E+00 0.  1.
<mgrwt>
<rscale>  0 0.53145451E+03</rscale>
<asrwt>0</asrwt>
<pdfrwt beam="1">  1        1 0.11218284E+00 0.53145451E+03</pdfrwt>
<pdfrwt beam="2">  1       -2 0.98204834E-01 0.53145451E+03</pdfrwt>
<totfact> 0.20207618E+01</totfact>
</mgrwt>
</event>
<event>
12    3  0.1176505E-007  0.7993242E+03  0.7818608E-02  0.9560996E-01
         -2   -1    0    0    0  501 -0.00000000000E+00  0.00000000000E+00  0.17151864088E+04  0.17151864088E+04  0.00000000000E+00 0.  1.
          1   -1    0    0  501    0  0.00000000000E+00 -0.00000000000E+00 -0.43943057462E+03  0.43943057462E+03  0.00000000000E+00 0. -1.
        -24    2    1    2    0    0  0.66750465681E+03 -0.30068459230E+03  0.82505752523E+03  0.11063213810E+04  0.85166820149E+02 0.  0.
    5000000    2    1    2    0    0 -0.66750465681E+03  0.30068459230E+03  0.45069830897E+03  0.10482956024E+04  0.59985082599E+03 0.  0.
        -24    2    4    4    0    0 -0.27553503432E+03  0.36975531281E+03  0.40492884995E+02  0.47076112176E+03  0.85661038616E+02 0.  0.
         24    2    4    4    0    0 -0.39196962249E+03 -0.69070720504E+02  0.41020542397E+03  0.57753448066E+03  0.82865174310E+02 0.  0.
         11    1    5    5    0    0 -0.24898598951E+03  0.29360021758E+03  0.11744372762E+02  0.38514028746E+03  0.00000000000E+00 0. -1.
        -12    1    5    5    0    0 -0.26549044803E+02  0.76155095231E+02  0.28748512233E+02  0.85620834294E+02  0.00000000000E+00 0.  1.
         15    1    3    3    0    0  0.20136544269E+03 -0.10650164677E+03  0.31338239965E+03  0.38743041751E+03  0.17770000000E+01 0. -1.
        -16    1    3    3    0    0  0.46613921412E+03 -0.19418294553E+03  0.51167512558E+03  0.71889096351E+03  0.00000000000E+00 0.  1.
          2    1    6    6  502    0 -0.17672420260E+03 -0.97321251479E+01  0.13189555305E+03  0.22073195274E+03  0.00000000000E+00 0. -1.
         -1    1    6    6    0  502 -0.21524541989E+03 -0.59338595356E+02  0.27830987092E+03  0.35680252793E+03  0.00000000000E+00 0.  1.
<mgrwt>
<rscale>  0 0.79932419E+03</rscale>
<asrwt>0</asrwt>
<pdfrwt beam="1">  1        1 0.67604704E-01 0.79932419E+03</pdfrwt>
<pdfrwt beam="2">  1       -2 0.26387483E+00 0.79932419E+03</pdfrwt>
<totfact> 0.25179337E+00</totfact>
</mgrwt>
</event>
<event>
12    3  0.1176505E-007  0.9761525E+03  0.7818608E-02  0.9335094E-01
          1   -1    0    0  501    0  0.00000000000E+00  0.00000000000E+00  0.62183975813E+03  0.62183975813E+03  0.00000000000E+00 0. -1.
         -2   -1    0    0    0  501 -0.00000000000E+00 -0.00000000000E+00 -0.24393254326E+04  0.24393254326E+04  0.00000000000E+00 0.  1.
        -24    2    1    2    0    0 -0.87884284835E+03 -0.22401122844E+03  0.37080406541E+02  0.91123080255E+03  0.80130121703E+02 0.  0.
    5000000    2    1    2    0    0  0.87884284835E+03  0.22401122844E+03 -0.18545660810E+04  0.21499343882E+04  0.60021391362E+03 0.  0.
        -24    2    4    4    0    0  0.30593807626E+03 -0.16430288435E+03 -0.39229663803E+03  0.53020492449E+03  0.81406789856E+02 0.  0.
         24    2    4    4    0    0  0.57290477209E+03  0.38831411279E+03 -0.14622694430E+04  0.16197294637E+04  0.79270950624E+02 0.  0.
         11    1    5    5    0    0  0.77227832743E+02 -0.56419839483E+02 -0.16226736886E+03  0.18835613989E+03  0.00000000000E+00 0. -1.
        -12    1    5    5    0    0  0.22871024352E+03 -0.10788304486E+03 -0.23002926917E+03  0.34184878460E+03  0.00000000000E+00 0.  1.
         15    1    3    3    0    0 -0.82164691444E+03 -0.20379980393E+03  0.53958658835E+02  0.84826452636E+03  0.17770000000E+01 0. -1.
        -16    1    3    3    0    0 -0.57195933907E+02 -0.20211424514E+02 -0.16878252294E+02  0.62966276187E+02  0.00000000000E+00 0.  1.
          2    1    6    6  502    0  0.17990209354E+03  0.79151585174E+02 -0.40375800664E+03  0.44905485703E+03  0.00000000000E+00 0. -1.
         -3    1    6    6    0  502  0.39300267855E+03  0.30916252761E+03 -0.10585114363E+04  0.11706746067E+04  0.00000000000E+00 0.  1.
<mgrwt>
<rscale>  0 0.97615253E+03</rscale>
<asrwt>0</asrwt>
<pdfrwt beam="1">  1        1 0.95667654E-01 0.97615253E+03</pdfrwt>
<pdfrwt beam="2">  1       -2 0.37528084E+00 0.97615253E+03</pdfrwt>
<totfact> 0.31314301E-01</totfact>
</mgrwt>
</event>
<event>
12    3  0.1176505E-007  0.1376922E+04  0.7818608E-02  0.8970695E-01
         -2   -1    0    0    0  501 -0.00000000000E+00  0.00000000000E+00  0.16140688266E+04  0.16140688266E+04  0.00000000000E+00 0.  1.
          1   -1    0    0  501    0  0.00000000000E+00 -0.00000000000E+00 -0.13701295070E+04  0.13701295070E+04  0.00000000000E+00 0. -1.
        -24    2    1    2    0    0 -0.13079121320E+04  0.36900902203E+03  0.54855627633E+03  0.14677788186E+04  0.81601890823E+02 0.  0.
    5000000    2    1    2    0    0  0.13079121320E+04 -0.36900902203E+03 -0.30461695674E+03  0.15164195150E+04  0.59994570727E+03 0.  0.
        -24    2    4    4    0    0  0.95816157708E+03 -0.39125757568E+03 -0.44672320508E+03  0.11301511585E+04  0.80770791601E+02 0.  0.
         24    2    4    4    0    0  0.34975055494E+03  0.22248553655E+02  0.14210624834E+03  0.38626835649E+03  0.78667709945E+02 0.  0.
         13    1    5    5    0    0  0.54289664472E+03 -0.24202897354E+03 -0.29458136737E+03  0.66339503532E+03  0.00000000000E+00 0. -1.
        -14    1    5    5    0    0  0.41526493236E+03 -0.14922860214E+03 -0.15214183771E+03  0.46675612318E+03  0.00000000000E+00 0.  1.
         15    1    3    3    0    0 -0.10352739538E+04  0.28332343266E+03  0.39798053646E+03  0.11447514980E+04  0.17770000000E+01 0. -1.
        -16    1    3    3    0    0 -0.27263817819E+03  0.85685589363E+02  0.15057573987E+03  0.32302732062E+03  0.00000000000E+00 0.  1.
          4    1    6    6  502    0  0.29174501349E+03  0.47848316876E+02  0.12097502682E+03  0.31943633393E+03  0.00000000000E+00 0. -1.
         -3    1    6    6    0  502  0.58005541457E+02 -0.25599763221E+02  0.21131221517E+02  0.66832022560E+02  0.00000000000E+00 0.  1.
<mgrwt>
<rscale>  0 0.13769216E+04</rscale>
<asrwt>0</asrwt>
<pdfrwt beam="1">  1        1 0.21078915E+00 0.13769216E+04</pdfrwt>
<pdfrwt beam="2">  1       -2 0.24831828E+00 0.13769216E+04</pdfrwt>
<totfact> 0.44476792E-01</totfact>
</mgrwt>
</event>
<event>
12    3  0.1176505E-007  0.9532924E+03  0.7818608E-02  0.9361311E-01
          1   -1    0    0  501    0  0.00000000000E+00  0.00000000000E+00  0.17809372243E+04  0.17809372243E+04  0.00000000000E+00 0. -1.
         -2   -1    0    0    0  501 -0.00000000000E+00 -0.00000000000E+00 -0.55403300391E+03  0.55403300391E+03  0.00000000000E+00 0.  1.
        -24    2    1    2    0    0 -0.81910257701E+03  0.37177352125E+03  0.61472447003E+03  0.10924897525E+04  0.80641816058E+02 0.  0.
    5000000    2    1    2    0    0  0.81910257701E+03 -0.37177352125E+03  0.61217975036E+03  0.12424804757E+04  0.59987423932E+03 0.  0.
        -24    2    4    4    0    0  0.32463808331E+03  0.74549181910E+02  0.42609004163E+03  0.54637814223E+03  0.77645895407E+02 0.  0.
         24    2    4    4    0    0  0.49446449370E+03 -0.44632270316E+03  0.18608970873E+03  0.69610233347E+03  0.78930273617E+02 0.  0.
         13    1    5    5    0    0  0.15539273737E+03  0.40327687449E+02  0.14412573553E+03  0.21574395205E+03  0.00000000000E+00 0. -1.
        -14    1    5    5    0    0  0.16924534594E+03  0.34221494460E+02  0.28196430610E+03  0.33063419018E+03  0.00000000000E+00 0.  1.
         15    1    3    3    0    0 -0.21981417043E+03  0.13781578417E+03  0.19041565452E+03  0.32182718826E+03  0.17770000000E+01 0. -1.
        -16    1    3    3    0    0 -0.59928840658E+03  0.23395773708E+03  0.42430881551E+03  0.77066256424E+03  0.00000000000E+00 0.  1.
          2    1    6    6  502    0  0.11847539354E+03 -0.65271062084E+02  0.44065442614E+02  0.14226205978E+03  0.00000000000E+00 0. -1.
         -1    1    6    6    0  502  0.37598910016E+03 -0.38105164107E+03  0.14202426611E+03  0.55384027370E+03  0.00000000000E+00 0.  1.
<mgrwt>
<rscale>  0 0.95329239E+03</rscale>
<asrwt>0</asrwt>
<pdfrwt beam="1">  1        1 0.27399034E+00 0.95329239E+03</pdfrwt>
<pdfrwt beam="2">  1       -2 0.85235848E-01 0.95329239E+03</pdfrwt>
<totfact> 0.44557611E+00</totfact>
</mgrwt>
</event>
<event>
12    3  0.1176505E-007  0.9674714E+03  0.7818608E-02  0.9344959E-01
         -2   -1    0    0    0  501 -0.00000000000E+00  0.00000000000E+00  0.23404798931E+03  0.23404798931E+03  0.00000000000E+00 0.  1.
          1   -1    0    0  501    0  0.00000000000E+00 -0.00000000000E+00 -0.43746969050E+04  0.43746969050E+04  0.00000000000E+00 0. -1.
        -24    2    1    2    0    0 -0.87166007698E+03  0.29478025792E+03 -0.19814496044E+04  0.21861712082E+04  0.80717573352E+02 0.  0.
    5000000    2    1    2    0    0  0.87166007698E+03 -0.29478025792E+03 -0.21591993112E+04  0.24225736860E+04  0.60002908962E+03 0.  0.
        -24    2    4    4    0    0  0.69104193832E+03 -0.39439432667E+03 -0.12210743264E+04  0.14587267879E+04  0.61444981903E+02 0.  0.
         24    2    4    4    0    0  0.18061813866E+03  0.99614068746E+02 -0.93812498487E+03  0.96384689815E+03  0.79852871689E+02 0.  0.
         13    1    5    5    0    0  0.35245714089E+03 -0.20632131451E+03 -0.57109110820E+03  0.70209655665E+03  0.00000000000E+00 0. -1.
        -14    1    5    5    0    0  0.33858479742E+03 -0.18807301216E+03 -0.64998321817E+03  0.75663023125E+03  0.00000000000E+00 0.  1.
         15    1    3    3    0    0 -0.38335847663E+03  0.17067026488E+03 -0.92448467494E+03  0.10152670254E+04  0.17770000000E+01 0. -1.
        -16    1    3    3    0    0 -0.48830160035E+03  0.12410999304E+03 -0.10569649295E+04  0.11709041829E+04  0.00000000000E+00 0.  1.
          4    1    6    6  502    0  0.15806578647E+02  0.35605573421E+02 -0.26683829606E+03  0.26966698172E+03  0.00000000000E+00 0. -1.
         -3    1    6    6    0  502  0.16481156002E+03  0.64008495325E+02 -0.67128668882E+03  0.69417991643E+03  0.00000000000E+00 0.  1.
<mgrwt>
<rscale>  0 0.96747145E+03</rscale>
<asrwt>0</asrwt>
<pdfrwt beam="1">  1        1 0.67303027E+00 0.96747145E+03</pdfrwt>
<pdfrwt beam="2">  1       -2 0.36007384E-01 0.96747145E+03</pdfrwt>
<totfact> 0.29402792E-01</totfact>
</mgrwt>
</event>
<event>
12    3  0.1176505E-007  0.1139606E+04  0.7818608E-02  0.9167426E-01
         -2   -1    0    0    0  501 -0.00000000000E+00  0.00000000000E+00  0.17314014287E+04  0.17314014287E+04  0.00000000000E+00 0.  1.
          1   -1    0    0  501    0  0.00000000000E+00 -0.00000000000E+00 -0.23684809877E+04  0.23684809877E+04  0.00000000000E+00 0. -1.
        -24    2    1    2    0    0  0.45074468218E+03  0.97342439175E+03  0.13727543893E+04  0.17440363580E+04  0.80513288918E+02 0.  0.
    5000000    2    1    2    0    0 -0.45074468218E+03 -0.97342439175E+03 -0.20098339483E+04  0.23558460583E+04  0.59987693401E+03 0.  0.
        -24    2    4    4    0    0 -0.56586901350E+03 -0.71470376827E+03 -0.16863715926E+04  0.19185683723E+04  0.77757534101E+02 0.  0.
         24    2    4    4    0    0  0.11512433133E+03 -0.25872062348E+03 -0.32346235570E+03  0.43727768604E+03  0.79961906386E+02 0.  0.
         13    1    5    5    0    0 -0.35909991095E+03 -0.42387169119E+03 -0.10953700802E+04  0.12281919920E+04  0.00000000000E+00 0. -1.
        -14    1    5    5    0    0 -0.20676910255E+03 -0.29083207708E+03 -0.59100151236E+03  0.69037638028E+03  0.00000000000E+00 0.  1.
         15    1    3    3    0    0  0.28604285323E+03  0.53068140314E+03  0.79559403315E+03  0.99820653616E+03  0.17770000000E+01 0. -1.
        -16    1    3    3    0    0  0.16470182895E+03  0.44274298861E+03  0.57716035616E+03  0.74582982184E+03  0.00000000000E+00 0.  1.
          2    1    6    6  502    0  0.66113399908E+02 -0.68706150805E+02 -0.79186749736E+02  0.12394377007E+03  0.00000000000E+00 0. -1.
         -1    1    6    6    0  502  0.49010931418E+02 -0.19001447267E+03 -0.24427560597E+03  0.31333391597E+03  0.00000000000E+00 0.  1.
<mgrwt>
<rscale>  0 0.11396060E+04</rscale>
<asrwt>0</asrwt>
<pdfrwt beam="1">  1        1 0.36438169E+00 0.11396060E+04</pdfrwt>
<pdfrwt beam="2">  1       -2 0.26636945E+00 0.11396060E+04</pdfrwt>
<totfact> 0.74057244E-02</totfact>
</mgrwt>
</event>
<event>
12    3  0.1176505E-007  0.3842875E+03  0.7818608E-02  0.1049360E+00
         -2   -1    0    0    0  501 -0.00000000000E+00  0.00000000000E+00  0.24034466115E+03  0.24034466115E+03  0.00000000000E+00 0.  1.
          1   -1    0    0  501    0  0.00000000000E+00 -0.00000000000E+00 -0.81545616367E+03  0.81545616367E+03  0.00000000000E+00 0. -1.
        -24    2    1    2    0    0  0.13229627149E+02  0.13398679422E+03 -0.37951334056E+03  0.41056742304E+03  0.80048417470E+02 0.  0.
    5000000    2    1    2    0    0 -0.13229627149E+02 -0.13398679422E+03 -0.19559816196E+03  0.64523340178E+03  0.59995001271E+03 0.  0.
        -24    2    4    4    0    0  0.16772311120E+03  0.17010808737E+03 -0.88031334666E+02  0.26673247859E+03  0.79554357717E+02 0.  0.
         24    2    4    4    0    0 -0.18095273835E+03 -0.30409488159E+03 -0.10756682729E+03  0.37850092319E+03  0.80465744240E+02 0.  0.
         11    1    5    5    0    0 -0.43488779776E+01  0.26860670386E+02 -0.15852232237E+02  0.31491294355E+02  0.00000000000E+00 0. -1.
        -12    1    5    5    0    0  0.17207198918E+03  0.14324741698E+03 -0.72179102429E+02  0.23524118423E+03  0.00000000000E+00 0.  1.
         15    1    3    3    0    0 -0.32341784742E+02  0.54409034145E+02 -0.12682004108E+03  0.14174912552E+03  0.17770000000E+01 0. -1.
        -16    1    3    3    0    0  0.45571411891E+02  0.79577760076E+02 -0.25269329949E+03  0.26881829753E+03  0.00000000000E+00 0.  1.
          4    1    6    6  502    0 -0.61584590584E+02 -0.42269821891E+02 -0.29848896739E+02  0.80438524829E+02  0.00000000000E+00 0. -1.
         -3    1    6    6    0  502 -0.11936814777E+03 -0.26182505970E+03 -0.77717930555E+02  0.29806239836E+03  0.00000000000E+00 0.  1.
<mgrwt>
<rscale>  0 0.38428750E+03</rscale>
<asrwt>0</asrwt>
<pdfrwt beam="1">  1        1 0.12545479E+00 0.38428750E+03</pdfrwt>
<pdfrwt beam="2">  1       -2 0.36976103E-01 0.38428750E+03</pdfrwt>
<totfact> 0.13551816E+02</totfact>
</mgrwt>
</event>
<event>
12    3  0.1176505E-007  0.2094236E+04  0.7818608E-02  0.8563787E-01
          1   -1    0    0  501    0  0.00000000000E+00  0.00000000000E+00  0.47755717325E+04  0.47755717325E+04  0.00000000000E+00 0. -1.
         -2   -1    0    0    0  501 -0.00000000000E+00 -0.00000000000E+00 -0.93394873619E+03  0.93394873619E+03  0.00000000000E+00 0.  1.
        -24    2    1    2    0    0  0.14168542510E+04 -0.14928975456E+04  0.16044161386E+04  0.26109414748E+04  0.81518027406E+02 0.  0.
    5000000    2    1    2    0    0 -0.14168542510E+04  0.14928975456E+04  0.22372068578E+04  0.30985789939E+04  0.59989849705E+03 0.  0.
        -24    2    4    4    0    0 -0.11432835096E+04  0.14585273911E+04  0.19803102240E+04  0.27133437725E+04  0.78781410102E+02 0.  0.
         24    2    4    4    0    0 -0.27357074144E+03  0.34370154507E+02  0.25689663371E+03  0.38523522138E+03  0.79925198073E+02 0.  0.
         11    1    5    5    0    0 -0.81739036124E+03  0.10671773078E+04  0.13890414316E+04  0.19329848700E+04  0.00000000000E+00 0. -1.
        -12    1    5    5    0    0 -0.32589314835E+03  0.39135008326E+03  0.59126879246E+03  0.78035890252E+03  0.00000000000E+00 0.  1.
         15    1    3    3    0    0  0.79104918485E+03 -0.79514610594E+03  0.83491313010E+03  0.13982486314E+04  0.17770000000E+01 0. -1.
        -16    1    3    3    0    0  0.62580506618E+03 -0.69775143967E+03  0.76950300850E+03  0.12126928434E+04  0.00000000000E+00 0.  1.
          4    1    6    6  502    0 -0.48588973745E+02  0.86204084198E+00  0.10158093636E+02  0.49646936968E+02  0.00000000000E+00 0. -1.
         -3    1    6    6    0  502 -0.22498176770E+03  0.33508113666E+02  0.24673854007E+03  0.33558828441E+03  0.00000000000E+00 0.  1.
<mgrwt>
<rscale>  0 0.20942361E+04</rscale>
<asrwt>0</asrwt>
<pdfrwt beam="1">  1        1 0.73470333E+00 0.20942361E+04</pdfrwt>
<pdfrwt beam="2">  1       -2 0.14368442E+00 0.20942361E+04</pdfrwt>
<totfact> 0.42886553E-03</totfact>
</mgrwt>
</event>
<event>
12    3  0.1176505E-007  0.1056570E+04  0.7818608E-02  0.9248587E-01
         -2   -1    0    0    0  501 -0.00000000000E+00  0.00000000000E+00  0.68850224405E+03  0.68850224405E+03  0.00000000000E+00 0.  1.
          1   -1    0    0  501    0  0.00000000000E+00 -0.00000000000E+00 -0.20978147450E+04  0.20978147450E+04  0.00000000000E+00 0. -1.
        -24    2    1    2    0    0 -0.12884389903E+03 -0.96240895868E+03 -0.20392748019E+01  0.97438692474E+03  0.81203241315E+02 0.  0.
    5000000    2    1    2    0    0  0.12884389903E+03  0.96240895868E+03 -0.14072732262E+04  0.18119300643E+04  0.59986737772E+03 0.  0.
        -24    2    4    4    0    0 -0.15081235899E+03  0.77864357917E+03 -0.10022843725E+04  0.12805974052E+04  0.79533387609E+02 0.  0.
         24    2    4    4    0    0  0.27965625802E+03  0.18376537951E+03 -0.40498885366E+03  0.53133265916E+03  0.79505256049E+02 0.  0.
         11    1    5    5    0    0 -0.88682420197E+02  0.29412558442E+03 -0.35039563323E+03  0.46599520474E+03  0.00000000000E+00 0. -1.
        -12    1    5    5    0    0 -0.62129938797E+02  0.48451799475E+03 -0.65188873930E+03  0.81460220044E+03  0.00000000000E+00 0.  1.
         15    1    3    3    0    0 -0.14003017210E+03 -0.89875226481E+03 -0.62367230250E+01  0.90961867673E+03  0.17770000000E+01 0. -1.
        -16    1    3    3    0    0  0.11186273074E+02 -0.63656693864E+02  0.41974482231E+01  0.64768248012E+02  0.00000000000E+00 0.  1.
          2    1    6    6  502    0  0.17335753901E+03  0.68436790624E+02 -0.20267940255E+03  0.27534591128E+03  0.00000000000E+00 0. -1.
         -1    1    6    6    0  502  0.10629871902E+03  0.11532858889E+03 -0.20230945112E+03  0.25598674788E+03  0.00000000000E+00 0.  1.
<mgrwt>
<rscale>  0 0.10565701E+04</rscale>
<asrwt>0</asrwt>
<pdfrwt beam="1">  1        1 0.32274073E+00 0.10565701E+04</pdfrwt>
<pdfrwt beam="2">  1       -2 0.10592342E+00 0.10565701E+04</pdfrwt>
<totfact> 0.16143679E+00</totfact>
</mgrwt>
</event>
<event>
12    3  0.1176505E-007  0.8550472E+03  0.7818608E-02  0.9483588E-01
          1   -1    0    0  501    0  0.00000000000E+00  0.00000000000E+00  0.24163411373E+04  0.24163411373E+04  0.00000000000E+00 0. -1.
         -2   -1    0    0    0  501 -0.00000000000E+00 -0.00000000000E+00 -0.67805636474E+03  0.67805636474E+03  0.00000000000E+00 0.  1.
        -24    2    1    2    0    0  0.63405604644E+03 -0.44009790604E+03  0.19458540683E+04  0.20949568744E+04  0.82359051762E+02 0.  0.
    5000000    2    1    2    0    0 -0.63405604644E+03  0.44009790604E+03 -0.20756929573E+03  0.99944062768E+03  0.60006942831E+03 0.  0.
        -24    2    4    4    0    0  0.92718077501E+02  0.60256500592E+02 -0.98851304704E+02  0.16840438290E+03  0.79755676775E+02 0.  0.
         24    2    4    4    0    0 -0.72677412394E+03  0.37984140545E+03 -0.10871799102E+03  0.83103624478E+03  0.79507974727E+02 0.  0.
         11    1    5    5    0    0  0.28528083786E+01 -0.28086081296E+01  0.11842140581E+02  0.12500523542E+02  0.00000000000E+00 0. -1.
        -12    1    5    5    0    0  0.89865269122E+02  0.63065108721E+02 -0.11069344528E+03  0.15590385935E+03  0.00000000000E+00 0.  1.
         15    1    3    3    0    0  0.25981304484E+03 -0.22970359326E+03  0.88424115912E+03  0.94981690038E+03  0.17770000000E+01 0. -1.
        -16    1    3    3    0    0  0.37424300160E+03 -0.21039431277E+03  0.10616129092E+04  0.11451399740E+04  0.00000000000E+00 0.  1.
          2    1    6    6  502    0 -0.20606959392E+03  0.11509090380E+03  0.42419517666E+01  0.23606903192E+03  0.00000000000E+00 0. -1.
         -1    1    6    6    0  502 -0.52070453002E+03  0.26475050165E+03 -0.11295994279E+03  0.59496721287E+03  0.00000000000E+00 0.  1.
<mgrwt>
<rscale>  0 0.85504717E+03</rscale>
<asrwt>0</asrwt>
<pdfrwt beam="1">  1        1 0.37174479E+00 0.85504717E+03</pdfrwt>
<pdfrwt beam="2">  1       -2 0.10431636E+00 0.85504717E+03</pdfrwt>
<totfact> 0.10503079E+00</totfact>
</mgrwt>
</event>
<event>
12    3  0.1176505E-007  0.5625835E+03  0.7818608E-02  0.9986226E-01
         -2   -1    0    0    0  501 -0.00000000000E+00  0.00000000000E+00  0.53624719574E+03  0.53624719574E+03  0.00000000000E+00 0.  1.
          1   -1    0    0  501    0  0.00000000000E+00 -0.00000000000E+00 -0.92169672464E+03  0.92169672464E+03  0.00000000000E+00 0. -1.
        -24    2    1    2    0    0 -0.28293227791E+03 -0.48296038837E+03 -0.37372269613E+02  0.56665537742E+03  0.80001372515E+02 0.  0.
    5000000    2    1    2    0    0  0.28293227791E+03  0.48296038837E+03 -0.34807725929E+03  0.89128854297E+03  0.59994672912E+03 0.  0.
        -24    2    4    4    0    0  0.15799302408E+03  0.25543123549E+03  0.13481388995E+03  0.33782741477E+03  0.75800168366E+02 0.  0.
         24    2    4    4    0    0  0.12493925382E+03  0.22752915288E+03 -0.48289114923E+03  0.55346112820E+03  0.75868477435E+02 0.  0.
         11    1    5    5    0    0  0.70897431482E+02  0.15233855863E+03  0.10938101326E+03  0.20049361161E+03  0.00000000000E+00 0. -1.
        -12    1    5    5    0    0  0.87095592598E+02  0.10309267686E+03  0.25432876686E+02  0.13733380316E+03  0.00000000000E+00 0.  1.
         15    1    3    3    0    0 -0.22528247552E+03 -0.37757181315E+03 -0.62011783194E+02  0.44402847526E+03  0.17770000000E+01 0. -1.
        -16    1    3    3    0    0 -0.57649802382E+02 -0.10538857522E+03  0.24639513581E+02  0.12262690216E+03  0.00000000000E+00 0.  1.
          2    1    6    6  502    0  0.35039080810E+02  0.33240119551E+02 -0.15081804545E+03  0.15836263943E+03  0.00000000000E+00 0. -1.
         -3    1    6    6    0  502  0.89900173015E+02  0.19428903333E+03 -0.33207310378E+03  0.39509848877E+03  0.00000000000E+00 0.  1.
<mgrwt>
<rscale>  0 0.56258347E+03</rscale>
<asrwt>0</asrwt>
<pdfrwt beam="1">  1        1 0.14179950E+00 0.56258347E+03</pdfrwt>
<pdfrwt beam="2">  1       -2 0.82499568E-01 0.56258347E+03</pdfrwt>
<totfact> 0.20638259E+01</totfact>
</mgrwt>
</event>
<event>
12    3  0.1363559E-007  0.6304072E+03  0.7818608E-02  0.9844255E-01
         -2   -1    0    0    0  501 -0.00000000000E+00  0.00000000000E+00  0.42749819876E+03  0.42749819876E+03  0.00000000000E+00 0.  1.
          1   -1    0    0  501    0  0.00000000000E+00 -0.00000000000E+00 -0.14403682929E+04  0.14403682929E+04  0.00000000000E+00 0. -1.
        -24    2    1    2    0    0 -0.63035001559E+01  0.61764024054E+03 -0.13328820227E+03  0.63693859190E+03  0.80036392590E+02 0.  0.
    5000000    2    1    2    0    0  0.63035001559E+01 -0.61764024054E+03 -0.87958189191E+03  0.12309278998E+04  0.59999999090E+03 0.  0.
        -24    2    4    4    0    0 -0.54592395868E+02 -0.10425760132E+03 -0.63961382336E+03  0.65520425541E+03  0.79603995901E+02 0.  0.
         24    2    4    4    0    0  0.60895896024E+02 -0.51338263922E+03 -0.23996806856E+03  0.57572364439E+03  0.81258823357E+02 0.  0.
         13    1    5    5    0    0 -0.37339893097E+02 -0.44163174998E+02 -0.48487488614E+03  0.48831169231E+03  0.00000000000E+00 0. -1.
        -14    1    5    5    0    0 -0.17252502771E+02 -0.60094426319E+02 -0.15473893722E+03  0.16689256310E+03  0.00000000000E+00 0.  1.
         15    1    3    3    0    0  0.31410945146E+02  0.24821200954E+03 -0.33612724519E+02  0.25244568155E+03  0.17770000000E+01 0. -1.
        -16    1    3    3    0    0 -0.37714445302E+02  0.36942823100E+03 -0.99675477751E+02  0.38449291035E+03  0.00000000000E+00 0.  1.
          4    1    6    6  502    0  0.45054808152E+02 -0.19502421654E+03 -0.56679088100E+02  0.20803100683E+03  0.00000000000E+00 0. -1.
         -3    1    6    6    0  502  0.15841087872E+02 -0.31835842268E+03 -0.18328898046E+03  0.36769263755E+03  0.00000000000E+00 0.  1.
<mgrwt>
<rscale>  0 0.63040718E+03</rscale>
<asrwt>0</asrwt>
<pdfrwt beam="1">  1        1 0.22159513E+00 0.63040718E+03</pdfrwt>
<pdfrwt beam="2">  1       -2 0.65768952E-01 0.63040718E+03</pdfrwt>
<totfact> 0.14086317E+01</totfact>
</mgrwt>
</event>
<event>
12    3  0.1176505E-007  0.7087211E+03  0.7818608E-02  0.9702433E-01
          1   -1    0    0  501    0  0.00000000000E+00  0.00000000000E+00  0.92800682787E+03  0.92800682787E+03  0.00000000000E+00 0. -1.
         -2   -1    0    0    0  501 -0.00000000000E+00 -0.00000000000E+00 -0.96808983574E+03  0.96808983574E+03  0.00000000000E+00 0.  1.
        -24    2    1    2    0    0 -0.51066593762E+03 -0.37420519525E+03  0.55053231298E+03  0.84268288509E+03  0.78863104120E+02 0.  0.
    5000000    2    1    2    0    0  0.51066593762E+03  0.37420519525E+03 -0.59061532085E+03  0.10534137785E+04  0.60003741846E+03 0.  0.
        -24    2    4    4    0    0  0.58063394901E+03  0.31592323853E+03 -0.63809548629E+03  0.92250605410E+03  0.83116152730E+02 0.  0.
         24    2    4    4    0    0 -0.69968011389E+02  0.58281956718E+02  0.47480165448E+02  0.13090772441E+03  0.81179782604E+02 0.  0.
         13    1    5    5    0    0  0.54052893435E+03  0.27539988223E+03 -0.55839774148E+03  0.82451480380E+03  0.00000000000E+00 0. -1.
        -14    1    5    5    0    0  0.40105014656E+02  0.40523356306E+02 -0.79697744817E+02  0.97991250302E+02  0.00000000000E+00 0.  1.
         15    1    3    3    0    0 -0.13936466041E+03 -0.72047416260E+02  0.16833489241E+03  0.23011547643E+03  0.17770000000E+01 0. -1.
        -16    1    3    3    0    0 -0.37130127720E+03 -0.30215777899E+03  0.38219742057E+03  0.61256740866E+03  0.00000000000E+00 0.  1.
          2    1    6    6  502    0  0.16364106233E+02  0.11333178734E+02  0.21415353665E+02  0.29237686051E+02  0.00000000000E+00 0. -1.
         -1    1    6    6    0  502 -0.86332117622E+02  0.46948777985E+02  0.26064811783E+02  0.10167003836E+03  0.00000000000E+00 0.  1.
<mgrwt>
<rscale>  0 0.70872107E+03</rscale>
<asrwt>0</asrwt>
<pdfrwt beam="1">  1        1 0.14277028E+00 0.70872107E+03</pdfrwt>
<pdfrwt beam="2">  1       -2 0.14893690E+00 0.70872107E+03</pdfrwt>
<totfact> 0.47620444E+00</totfact>
</mgrwt>
</event>
<event>
12    3  0.1176505E-007  0.1542159E+04  0.7818608E-02  0.8856892E-01
          1   -1    0    0  501    0  0.00000000000E+00  0.00000000000E+00  0.28893338073E+04  0.28893338073E+04  0.00000000000E+00 0. -1.
         -2   -1    0    0    0  501 -0.00000000000E+00 -0.00000000000E+00 -0.92955460924E+03  0.92955460924E+03  0.00000000000E+00 0.  1.
        -24    2    1    2    0    0  0.71473597276E+03 -0.13646205097E+04  0.52358260428E+03  0.16289984002E+04  0.80376602046E+02 0.  0.
    5000000    2    1    2    0    0 -0.71473597276E+03  0.13646205097E+04  0.14361965938E+04  0.21898900163E+04  0.59993414760E+03 0.  0.
        -24    2    4    4    0    0 -0.58735183123E+03  0.11797570953E+04  0.14366401789E+04  0.19512245283E+04  0.80828080367E+02 0.  0.
         24    2    4    4    0    0 -0.12738414153E+03  0.18486341437E+03 -0.44358507568E+00  0.23866548808E+03  0.80992696878E+02 0.  0.
         13    1    5    5    0    0 -0.46608375140E+02  0.84499692222E+02  0.13808034418E+03  0.16845984704E+03  0.00000000000E+00 0. -1.
        -14    1    5    5    0    0 -0.54074345609E+03  0.10952574031E+04  0.12985598347E+04  0.17827646812E+04  0.00000000000E+00 0.  1.
         15    1    3    3    0    0  0.61930078866E+03 -0.11824290161E+04  0.42424886247E+03  0.14005934813E+04  0.17770000000E+01 0. -1.
        -16    1    3    3    0    0  0.95435184100E+02 -0.18219149363E+03  0.99333741802E+02  0.22840491889E+03  0.00000000000E+00 0.  1.
          2    1    6    6  502    0 -0.12713849130E+02  0.77716514792E+01 -0.22021413015E+02  0.26589154886E+02  0.00000000000E+00 0. -1.
         -1    1    6    6    0  502 -0.11467029240E+03  0.17709176289E+03  0.21577827939E+02  0.21207633319E+03  0.00000000000E+00 0.  1.
<mgrwt>
<rscale>  0 0.15421586E+04</rscale>
<asrwt>0</asrwt>
<pdfrwt beam="1">  1        1 0.44451289E+00 0.15421586E+04</pdfrwt>
<pdfrwt beam="2">  1       -2 0.14300840E+00 0.15421586E+04</pdfrwt>
<totfact> 0.20249702E-01</totfact>
</mgrwt>
</event>
<event>
12    3  0.1176505E-007  0.5339765E+03  0.7818608E-02  0.1005272E+00
         -2   -1    0    0    0  501 -0.00000000000E+00  0.00000000000E+00  0.29060349419E+03  0.29060349419E+03  0.00000000000E+00 0.  1.
          1   -1    0    0  501    0  0.00000000000E+00 -0.00000000000E+00 -0.10763995750E+04  0.10763995750E+04  0.00000000000E+00 0. -1.
        -24    2    1    2    0    0  0.35575813626E+03 -0.11572682065E+03 -0.13381196413E+03  0.40516746512E+03  0.79362992108E+02 0.  0.
    5000000    2    1    2    0    0 -0.35575813626E+03  0.11572682065E+03 -0.65198411665E+03  0.96183560403E+03  0.60007323911E+03 0.  0.
        -24    2    4    4    0    0  0.84649807424E+02 -0.14665562633E+03 -0.20136474227E+03  0.27480893796E+03  0.79364540708E+02 0.  0.
         24    2    4    4    0    0 -0.44040794369E+03  0.26238244698E+03 -0.45061937438E+03  0.68702666608E+03  0.78384398903E+02 0.  0.
         11    1    5    5    0    0  0.91249547760E+02 -0.12880138678E+03 -0.20125576031E+03  0.25577364653E+03  0.00000000000E+00 0. -1.
        -12    1    5    5    0    0 -0.65997403363E+01 -0.17854239553E+02 -0.10898195476E+00  0.19035291424E+02  0.00000000000E+00 0.  1.
         15    1    3    3    0    0  0.75064226441E+02 -0.40078871818E+02 -0.63185157638E+02  0.10600224494E+03  0.17770000000E+01 0. -1.
        -16    1    3    3    0    0  0.28069390982E+03 -0.75647948830E+02 -0.70626806494E+02  0.29916522019E+03  0.00000000000E+00 0.  1.
          2    1    6    6  502    0 -0.39692112051E+03  0.25319390769E+03 -0.43154938543E+03  0.63866141488E+03  0.00000000000E+00 0. -1.
         -1    1    6    6    0  502 -0.43486823179E+02  0.91885392820E+01 -0.19069988951E+02  0.48365251193E+02  0.00000000000E+00 0.  1.
<mgrwt>
<rscale>  0 0.53397654E+03</rscale>
<asrwt>0</asrwt>
<pdfrwt beam="1">  1        1 0.16559994E+00 0.53397654E+03</pdfrwt>
<pdfrwt beam="2">  1       -2 0.44708230E-01 0.53397654E+03</pdfrwt>
<totfact> 0.57410750E+01</totfact>
</mgrwt>
</event>
<event>
12    3  0.1238223E-007  0.6793687E+03  0.7818608E-02  0.9753180E-01
         -2   -1    0    0    0  501 -0.00000000000E+00  0.00000000000E+00  0.95640505747E+03  0.95640505747E+03  0.00000000000E+00 0.  1.
          1   -1    0    0  501    0  0.00000000000E+00 -0.00000000000E+00 -0.97896187089E+03  0.97896187089E+03  0.00000000000E+00 0. -1.
        -24    2    1    2    0    0  0.20466699888E+03  0.51848861425E+03 -0.68165151436E+03  0.88416889474E+03  0.79917606731E+02 0.  0.
    5000000    2    1    2    0    0 -0.20466699888E+03 -0.51848861425E+03  0.65909470094E+03  0.10511980336E+04  0.59991037460E+03 0.  0.
        -24    2    4    4    0    0 -0.40183755226E+03 -0.31439617535E+03  0.50630021568E+03  0.72334208249E+03  0.81027689306E+02 0.  0.
         24    2    4    4    0    0  0.19717055338E+03 -0.20409243890E+03  0.15279448526E+03  0.32785595113E+03  0.60111722905E+02 0.  0.
         13    1    5    5    0    0 -0.28880172970E+03 -0.26002805393E+03  0.41243620947E+03  0.56667861684E+03  0.00000000000E+00 0. -1.
        -14    1    5    5    0    0 -0.11303582256E+03 -0.54368121423E+02  0.93864006213E+02  0.15666346566E+03  0.00000000000E+00 0.  1.
         15    1    3    3    0    0  0.16934109460E+03  0.37213497852E+03 -0.45112486684E+03  0.60883302454E+03  0.17770000000E+01 0. -1.
        -16    1    3    3    0    0  0.35325904279E+02  0.14635363573E+03 -0.23052664752E+03  0.27533587020E+03  0.00000000000E+00 0.  1.
          4    1    6    6  502    0  0.12130998438E+03 -0.10470443289E+03  0.11498647013E+03  0.19723341220E+03  0.00000000000E+00 0. -1.
         -3    1    6    6    0  502  0.75860568997E+02 -0.99388006010E+02  0.37808015130E+02  0.13062253893E+03  0.00000000000E+00 0.  1.
<mgrwt>
<rscale>  0 0.67936868E+03</rscale>
<asrwt>0</asrwt>
<pdfrwt beam="1">  1        1 0.15060952E+00 0.67936868E+03</pdfrwt>
<pdfrwt beam="2">  1       -2 0.14713924E+00 0.67936868E+03</pdfrwt>
<totfact> 0.45005195E+00</totfact>
</mgrwt>
</event>
<event>
12    3  0.1176505E-007  0.1182867E+04  0.7818608E-02  0.9127986E-01
         -2   -1    0    0    0  501 -0.00000000000E+00  0.00000000000E+00  0.81007646351E+03  0.81007646351E+03  0.00000000000E+00 0.  1.
          1   -1    0    0  501    0  0.00000000000E+00 -0.00000000000E+00 -0.22798295040E+04  0.22798295040E+04  0.00000000000E+00 0. -1.
        -24    2    1    2    0    0  0.27730056953E+03 -0.10894091604E+04  0.23289722537E+02  0.11270613685E+04  0.77569276926E+02 0.  0.
    5000000    2    1    2    0    0 -0.27730056953E+03  0.10894091604E+04 -0.14930427630E+04  0.19628445990E+04  0.59989524330E+03 0.  0.
        -24    2    4    4    0    0 -0.27506815399E+03  0.19116411444E+03 -0.61402181676E+03  0.70351107882E+03  0.75490652257E+02 0.  0.
         24    2    4    4    0    0 -0.22324155402E+01  0.89824504593E+03 -0.87902094627E+03  0.12593335202E+04  0.79962145979E+02 0.  0.
         11    1    5    5    0    0 -0.23578916028E+03  0.19007561820E+03 -0.52286582142E+03  0.60424658539E+03  0.00000000000E+00 0. -1.
        -12    1    5    5    0    0 -0.39278993702E+02  0.10884962399E+01 -0.91155995335E+02  0.99264493430E+02  0.00000000000E+00 0.  1.
         15    1    3    3    0    0  0.10105441291E+03 -0.43690875028E+03 -0.27370894563E+02  0.44928117481E+03  0.17770000000E+01 0. -1.
        -16    1    3    3    0    0  0.17624615661E+03 -0.65250041009E+03  0.50660617100E+02  0.67778019374E+03  0.00000000000E+00 0.  1.
          4    1    6    6  502    0 -0.16508136315E+02  0.15710287577E+03 -0.11992206301E+03  0.19833086834E+03  0.00000000000E+00 0. -1.
         -3    1    6    6    0  502  0.14275720775E+02  0.74114217016E+03 -0.75909888326E+03  0.10610026518E+04  0.00000000000E+00 0.  1.
<mgrwt>
<rscale>  0 0.11828671E+04</rscale>
<asrwt>0</asrwt>
<pdfrwt beam="1">  1        1 0.35074300E+00 0.11828671E+04</pdfrwt>
<pdfrwt beam="2">  1       -2 0.12462715E+00 0.11828671E+04</pdfrwt>
<totfact> 0.80121722E-01</totfact>
</mgrwt>
</event>
<event>
12    3  0.1176505E-007  0.3687295E+03  0.7818608E-02  0.1055180E+00
         -2   -1    0    0    0  501 -0.00000000000E+00  0.00000000000E+00  0.17447274666E+03  0.17447274666E+03  0.00000000000E+00 0.  1.
          1   -1    0    0  501    0  0.00000000000E+00 -0.00000000000E+00 -0.10550047499E+04  0.10550047499E+04  0.00000000000E+00 0. -1.
        -24    2    1    2    0    0 -0.20694795964E+03 -0.18903738586E+02 -0.25151959242E+03  0.33561514674E+03  0.78680442400E+02 0.  0.
    5000000    2    1    2    0    0  0.20694795964E+03  0.18903738586E+02 -0.62901241082E+03  0.89386234981E+03  0.60012371901E+03 0.  0.
        -24    2    4    4    0    0  0.11472711053E+03  0.24086662599E+03 -0.57203103201E+03  0.63593461968E+03  0.77551902089E+02 0.  0.
         24    2    4    4    0    0  0.92220849112E+02 -0.22196288740E+03 -0.56981378808E+02  0.25792773014E+03  0.74213395339E+02 0.  0.
         11    1    5    5    0    0  0.43374419339E+02  0.13114170090E+03 -0.37270667251E+03  0.39747924436E+03  0.00000000000E+00 0. -1.
        -12    1    5    5    0    0  0.71352691192E+02  0.10972492509E+03 -0.19932435950E+03  0.23845537532E+03  0.00000000000E+00 0.  1.
         15    1    3    3    0    0 -0.71421255086E+01 -0.15399027925E+02 -0.40641937672E+01  0.17544669213E+02  0.17770000000E+01 0. -1.
        -16    1    3    3    0    0 -0.19980583413E+03 -0.35047106609E+01 -0.24745539865E+03  0.31807047752E+03  0.00000000000E+00 0.  1.
          4    1    6    6  502    0  0.16440338468E+02 -0.13581693773E+03 -0.29692967932E+02  0.13999356288E+03  0.00000000000E+00 0. -1.
         -3    1    6    6    0  502  0.75780510644E+02 -0.86145949672E+02 -0.27288410876E+02  0.11793416726E+03  0.00000000000E+00 0.  1.
<mgrwt>
<rscale>  0 0.36872954E+03</rscale>
<asrwt>0</asrwt>
<pdfrwt beam="1">  1        1 0.16230843E+00 0.36872954E+03</pdfrwt>
<pdfrwt beam="2">  1       -2 0.26841961E-01 0.36872954E+03</pdfrwt>
<totfact> 0.15926696E+02</totfact>
</mgrwt>
</event>
<event>
12    3  0.1176505E-007  0.7861132E+03  0.7818608E-02  0.9580338E-01
         -2   -1    0    0    0  501 -0.00000000000E+00  0.00000000000E+00  0.65011722805E+03  0.65011722805E+03  0.00000000000E+00 0.  1.
          1   -1    0    0  501    0  0.00000000000E+00 -0.00000000000E+00 -0.10271536163E+04  0.10271536163E+04  0.00000000000E+00 0. -1.
        -24    2    1    2    0    0 -0.82773367327E+02 -0.66879288413E+03 -0.37351701641E+03  0.77512291685E+03  0.84647637148E+02 0.  0.
    5000000    2    1    2    0    0  0.82773367327E+02  0.66879288413E+03 -0.35193718473E+01  0.90214792751E+03  0.59976924307E+03 0.  0.
        -24    2    4    4    0    0 -0.24439537928E+03  0.37737563090E+03  0.13516778642E+01  0.45668539178E+03  0.80113992653E+02 0.  0.
         24    2    4    4    0    0  0.32716874661E+03  0.29141725323E+03 -0.48710497115E+01  0.44546253574E+03  0.80310269459E+02 0.  0.
         11    1    5    5    0    0 -0.17983710371E+03  0.31158888297E+03 -0.25547958370E+02  0.36066842673E+03  0.00000000000E+00 0. -1.
        -12    1    5    5    0    0 -0.64558275570E+02  0.65786747931E+02  0.26899636234E+02  0.96016965050E+02  0.00000000000E+00 0.  1.
         15    1    3    3    0    0 -0.29615875503E+02 -0.38550850923E+03 -0.25680108204E+03  0.46415930912E+03  0.17770000000E+01 0. -1.
        -16    1    3    3    0    0 -0.53157491824E+02 -0.28328437490E+03 -0.11671593436E+03  0.31096360773E+03  0.00000000000E+00 0.  1.
          2    1    6    6  502    0  0.23968744591E+03  0.25695150394E+03 -0.20714899166E+01  0.35139498883E+03  0.00000000000E+00 0. -1.
         -1    1    6    6    0  502  0.87481300699E+02  0.34465749295E+02 -0.27995597949E+01  0.94067546909E+02  0.00000000000E+00 0.  1.
<mgrwt>
<rscale>  0 0.78611315E+03</rscale>
<asrwt>0</asrwt>
<pdfrwt beam="1">  1        1 0.15802363E+00 0.78611315E+03</pdfrwt>
<pdfrwt beam="2">  1       -2 0.10001804E+00 0.78611315E+03</pdfrwt>
<totfact> 0.10643427E+01</totfact>
</mgrwt>
</event>
<event>
12    3  0.1176505E-007  0.6772798E+03  0.7818608E-02  0.9756896E-01
          1   -1    0    0  501    0  0.00000000000E+00  0.00000000000E+00  0.33893011303E+04  0.33893011303E+04  0.00000000000E+00 0. -1.
         -2   -1    0    0    0  501 -0.00000000000E+00 -0.00000000000E+00 -0.18273530973E+03  0.18273530973E+03  0.00000000000E+00 0.  1.
        -24    2    1    2    0    0  0.17890866918E+03  0.64562760135E+03  0.13626294626E+04  0.15204620379E+04  0.78755602110E+02 0.  0.
    5000000    2    1    2    0    0 -0.17890866918E+03 -0.64562760135E+03  0.18439363580E+04  0.20515744021E+04  0.60001076956E+03 0.  0.
        -24    2    4    4    0    0 -0.11965479033E+03 -0.43114546556E+03  0.45497999548E+03  0.64283375266E+03  0.77619301413E+02 0.  0.
         24    2    4    4    0    0 -0.59253878850E+02 -0.21448213579E+03  0.13889563625E+04  0.14087406495E+04  0.76399160676E+02 0.  0.
         13    1    5    5    0    0 -0.10818484965E+03 -0.30628615000E+03  0.36434135313E+03  0.48811862183E+03  0.00000000000E+00 0. -1.
        -14    1    5    5    0    0 -0.11469940676E+02 -0.12485931556E+03  0.90638642353E+02  0.15471513084E+03  0.00000000000E+00 0.  1.
         15    1    3    3    0    0  0.11665149265E+03  0.39959340371E+03  0.92947102496E+03  0.10184311479E+04  0.17770000000E+01 0. -1.
        -16    1    3    3    0    0  0.62257176532E+02  0.24603419764E+03  0.43315843759E+03  0.50203088998E+03  0.00000000000E+00 0.  1.
          2    1    6    6  502    0 -0.34123653537E+02 -0.22992034914E+02  0.19849946009E+03  0.20271924688E+03  0.00000000000E+00 0. -1.
         -1    1    6    6    0  502 -0.25130225313E+02 -0.19149010088E+03  0.11904569024E+04  0.12060214026E+04  0.00000000000E+00 0.  1.
<mgrwt>
<rscale>  0 0.67727980E+03</rscale>
<asrwt>0</asrwt>
<pdfrwt beam="1">  1        1 0.52143090E+00 0.67727980E+03</pdfrwt>
<pdfrwt beam="2">  1       -2 0.28113127E-01 0.67727980E+03</pdfrwt>
<totfact> 0.33856905E+00</totfact>
</mgrwt>
</event>
<event>
12    3  0.1176505E-007  0.6506363E+03  0.7818608E-02  0.9805586E-01
         -2   -1    0    0    0  501 -0.00000000000E+00  0.00000000000E+00  0.20841003012E+03  0.20841003012E+03  0.00000000000E+00 0.  1.
          1   -1    0    0  501    0  0.00000000000E+00 -0.00000000000E+00 -0.23833738074E+04  0.23833738074E+04  0.00000000000E+00 0. -1.
        -24    2    1    2    0    0  0.42647730108E+03  0.35905728007E+03 -0.11431978631E+04  0.12742539713E+04  0.77568102481E+02 0.  0.
    5000000    2    1    2    0    0 -0.42647730108E+03 -0.35905728007E+03 -0.10317659142E+04  0.13175298662E+04  0.60044902198E+03 0.  0.
        -24    2    4    4    0    0 -0.37838609039E+03 -0.46511936435E+03 -0.10058373372E+04  0.11736159815E+04  0.78445309745E+02 0.  0.
         24    2    4    4    0    0 -0.48091210692E+02  0.10606208428E+03 -0.25928576968E+02  0.14391388471E+03  0.80479716949E+02 0.  0.
         11    1    5    5    0    0 -0.28303147334E+03 -0.29050491719E+03 -0.68753030498E+03  0.79824673007E+03  0.00000000000E+00 0. -1.
        -12    1    5    5    0    0 -0.95354617051E+02 -0.17461444716E+03 -0.31830703225E+03  0.37536925144E+03  0.00000000000E+00 0.  1.
         15    1    3    3    0    0  0.31143108460E+03  0.25388248307E+03 -0.74142498710E+03  0.84330291408E+03  0.17770000000E+01 0. -1.
        -16    1    3    3    0    0  0.11504621647E+03  0.10517479700E+03 -0.40177287599E+03  0.43095105724E+03  0.00000000000E+00 0.  1.
          4    1    6    6  502    0 -0.57185627526E+02  0.34236983463E+02  0.10298626113E+01  0.66659040266E+02  0.00000000000E+00 0. -1.
         -3    1    6    6    0  502  0.90944168348E+01  0.71825100818E+02 -0.26958439579E+02  0.77254844441E+02  0.00000000000E+00 0.  1.
<mgrwt>
<rscale>  0 0.65063632E+03</rscale>
<asrwt>0</asrwt>
<pdfrwt beam="1">  1        1 0.36667291E+00 0.65063632E+03</pdfrwt>
<pdfrwt beam="2">  1       -2 0.32063080E-01 0.65063632E+03</pdfrwt>
<totfact> 0.13784368E+01</totfact>
</mgrwt>
</event>
<event>
12    3  0.1176505E-007  0.9259792E+03  0.7818608E-02  0.9393676E-01
         -2   -1    0    0    0  501 -0.00000000000E+00  0.00000000000E+00  0.86437639286E+03  0.86437639286E+03  0.00000000000E+00 0.  1.
          1   -1    0    0  501    0  0.00000000000E+00 -0.00000000000E+00 -0.25399415346E+04  0.25399415346E+04  0.00000000000E+00 0. -1.
        -24    2    1    2    0    0  0.68625666352E+03 -0.60751994027E+03 -0.20496601465E+04  0.22466711234E+04  0.79973334778E+02 0.  0.
    5000000    2    1    2    0    0 -0.68625666352E+03  0.60751994027E+03  0.37409500482E+03  0.11576468041E+04  0.60014195343E+03 0.  0.
        -24    2    4    4    0    0 -0.24612285131E+03  0.28653489686E+03  0.45994502748E+03  0.60074696227E+03  0.81662594391E+02 0.  0.
         24    2    4    4    0    0 -0.44013381221E+03  0.32098504341E+03 -0.85850022659E+02  0.55689984179E+03  0.77576005633E+02 0.  0.
         13    1    5    5    0    0 -0.99010168864E+02  0.16487503413E+03  0.19202962308E+03  0.27177594919E+03  0.00000000000E+00 0. -1.
        -14    1    5    5    0    0 -0.14711268244E+03  0.12165986273E+03  0.26791540439E+03  0.32897101308E+03  0.00000000000E+00 0.  1.
         15    1    3    3    0    0  0.42174414747E+03 -0.41664816212E+03 -0.13711200892E+04  0.14937996096E+04  0.17770000000E+01 0. -1.
        -16    1    3    3    0    0  0.26451251605E+03 -0.19087177815E+03 -0.67854005735E+03  0.75287151378E+03  0.00000000000E+00 0.  1.
          4    1    6    6  502    0 -0.41769498050E+03  0.32175208620E+03 -0.87174273813E+02  0.53440888440E+03  0.00000000000E+00 0. -1.
         -3    1    6    6    0  502 -0.22438831710E+02 -0.76704279206E+00  0.13242511542E+01  0.22490957389E+02  0.00000000000E+00 0.  1.
<mgrwt>
<rscale>  0 0.92597924E+03</rscale>
<asrwt>0</asrwt>
<pdfrwt beam="1">  1        1 0.39076024E+00 0.92597924E+03</pdfrwt>
<pdfrwt beam="2">  1       -2 0.13298098E+00 0.92597924E+03</pdfrwt>
<totfact> 0.46848141E-01</totfact>
</mgrwt>
</event>
<event>
12    3  0.1176505E-007  0.5828320E+03  0.7818608E-02  0.9941679E-01
         -2   -1    0    0    0  501 -0.00000000000E+00  0.00000000000E+00  0.75380117011E+03  0.75380117011E+03  0.00000000000E+00 0.  1.
          1   -1    0    0  501    0  0.00000000000E+00 -0.00000000000E+00 -0.58773346802E+03  0.58773346802E+03  0.00000000000E+00 0. -1.
        -24    2    1    2    0    0 -0.28843912441E+03 -0.33525004893E+03 -0.22161858150E+03  0.50130931014E+03  0.81280409502E+02 0.  0.
    5000000    2    1    2    0    0  0.28843912441E+03  0.33525004893E+03  0.38768628359E+03  0.84022532798E+03  0.60007351508E+03 0.  0.
        -24    2    4    4    0    0  0.11820857016E+03  0.47525542976E+03  0.33606584275E+03  0.60052289770E+03  0.88580530745E+02 0.  0.
         24    2    4    4    0    0  0.17023055425E+03 -0.14000538083E+03  0.51620440842E+02  0.23970243028E+03  0.78820282337E+02 0.  0.
         13    1    5    5    0    0 -0.37218113500E+01  0.15403077612E+03  0.10162426033E+03  0.18457199722E+03  0.00000000000E+00 0. -1.
        -14    1    5    5    0    0  0.12193038151E+03  0.32122465364E+03  0.23444158242E+03  0.41595090048E+03  0.00000000000E+00 0.  1.
         15    1    3    3    0    0 -0.40655800849E+02 -0.39430741992E+02 -0.71220577421E+00  0.56668708498E+02  0.17770000000E+01 0. -1.
        -16    1    3    3    0    0 -0.24778332356E+03 -0.29581930694E+03 -0.22090637573E+03  0.44464060164E+03  0.00000000000E+00 0.  1.
          2    1    6    6  502    0  0.83651815457E+02 -0.99136273921E+02  0.61310255971E+02  0.14347325369E+03  0.00000000000E+00 0. -1.
         -1    1    6    6    0  502  0.86578738795E+02 -0.40869106910E+02 -0.96898151284E+01  0.96229176595E+02  0.00000000000E+00 0.  1.
<mgrwt>
<rscale>  0 0.58283200E+03</rscale>
<asrwt>0</asrwt>
<pdfrwt beam="1">  1        1 0.90420534E-01 0.58283200E+03</pdfrwt>
<pdfrwt beam="2">  1       -2 0.11596941E+00 0.58283200E+03</pdfrwt>
<totfact> 0.18498694E+01</totfact>
</mgrwt>
</event>
<event>
12    3  0.1176505E-007  0.7792699E+03  0.7818608E-02  0.9590517E-01
         -2   -1    0    0    0  501 -0.00000000000E+00  0.00000000000E+00  0.80346613294E+03  0.80346613294E+03  0.00000000000E+00 0.  1.
          3   -1    0    0  501    0  0.00000000000E+00 -0.00000000000E+00 -0.97490600706E+03  0.97490600706E+03  0.00000000000E+00 0. -1.
        -24    2    1    2    0    0 -0.11542615033E+02 -0.66338041498E+03 -0.49044915371E+03  0.82867904730E+03  0.77212590516E+02 0.  0.
    5000000    2    1    2    0    0  0.11542615033E+02  0.66338041498E+03  0.31900927959E+03  0.94969309269E+03  0.59995270056E+03 0.  0.
        -24    2    4    4    0    0 -0.24409543330E+03  0.10271089493E+03  0.11594193860E+03  0.29858193025E+03  0.74676150505E+02 0.  0.
         24    2    4    4    0    0  0.25563804833E+03  0.56066952005E+03  0.20306734099E+03  0.65111116244E+03  0.54847774940E+02 0.  0.
         13    1    5    5    0    0 -0.14725847306E+03  0.98094673882E+02  0.61062748989E+02  0.18717981260E+03  0.00000000000E+00 0. -1.
        -14    1    5    5    0    0 -0.96836960242E+02  0.46162210472E+01  0.54879189611E+02  0.11140211765E+03  0.00000000000E+00 0.  1.
         15    1    3    3    0    0 -0.41737961296E+02 -0.49869452235E+03 -0.37323179294E+03  0.62429433204E+03  0.17770000000E+01 0. -1.
        -16    1    3    3    0    0  0.30195346263E+02 -0.16468589263E+03 -0.11721736077E+03  0.20438471526E+03  0.00000000000E+00 0.  1.
          4    1    6    6  502    0  0.83948705077E+02  0.15495559142E+03  0.81056270433E+02  0.19398128614E+03  0.00000000000E+00 0. -1.
         -3    1    6    6    0  502  0.17168934325E+03  0.40571392862E+03  0.12201107055E+03  0.45712987630E+03  0.00000000000E+00 0.  1.
<mgrwt>
<rscale>  0 0.77926990E+03</rscale>
<asrwt>0</asrwt>
<pdfrwt beam="1">  1        3 0.14998554E+00 0.77926990E+03</pdfrwt>
<pdfrwt beam="2">  1       -2 0.12361017E+00 0.77926990E+03</pdfrwt>
<totfact> 0.66213808E-01</totfact>
</mgrwt>
</event>
<event>
12    3  0.1176505E-007  0.5303382E+03  0.7818608E-02  0.1006150E+00
         -2   -1    0    0    0  501 -0.00000000000E+00  0.00000000000E+00  0.57632857674E+03  0.57632857674E+03  0.00000000000E+00 0.  1.
          1   -1    0    0  501    0  0.00000000000E+00 -0.00000000000E+00 -0.80635224887E+03  0.80635224887E+03  0.00000000000E+00 0. -1.
        -24    2    1    2    0    0  0.47494196526E+03  0.11507221373E+03  0.15408796613E+03  0.51873007114E+03  0.80785522630E+02 0.  0.
    5000000    2    1    2    0    0 -0.47494196526E+03 -0.11507221373E+03 -0.38411163826E+03  0.86395075447E+03  0.60004805705E+03 0.  0.
        -24    2    4    4    0    0  0.19184897101E+02 -0.40969423740E+02  0.11869453650E+03  0.15063515464E+03  0.80969147590E+02 0.  0.
         24    2    4    4    0    0 -0.49412686236E+03 -0.74102789985E+02 -0.50280617476E+03  0.71331559983E+03  0.79702672412E+02 0.  0.
         13    1    5    5    0    0  0.26298483709E+02 -0.49323567567E+01  0.39064297409E+00  0.26759876503E+02  0.00000000000E+00 0. -1.
        -14    1    5    5    0    0 -0.71135866076E+01 -0.36037066983E+02  0.11830389353E+03  0.12387527814E+03  0.00000000000E+00 0.  1.
         15    1    3    3    0    0  0.20520733932E+03  0.75348379543E+02  0.10165586571E+03  0.24109023865E+03  0.17770000000E+01 0. -1.
        -16    1    3    3    0    0  0.26973462594E+03  0.39723834182E+02  0.52432100426E+02  0.27763983249E+03  0.00000000000E+00 0.  1.
          4    1    6    6  502    0 -0.20345372354E+03  0.88756275478E+01 -0.20663305904E+03  0.29011965717E+03  0.00000000000E+00 0. -1.
         -3    1    6    6    0  502 -0.29067313882E+03 -0.82978417533E+02 -0.29617311571E+03  0.42319594265E+03  0.00000000000E+00 0.  1.
<mgrwt>
<rscale>  0 0.53033821E+03</rscale>
<asrwt>0</asrwt>
<pdfrwt beam="1">  1        1 0.12405419E+00 0.53033821E+03</pdfrwt>
<pdfrwt beam="2">  1       -2 0.88665935E-01 0.53033821E+03</pdfrwt>
<totfact> 0.21906161E+01</totfact>
</mgrwt>
</event>
<event>
12    3  0.1176505E-007  0.1220538E+04  0.7818608E-02  0.9095067E-01
          1   -1    0    0  501    0  0.00000000000E+00  0.00000000000E+00  0.19124072505E+04  0.19124072505E+04  0.00000000000E+00 0. -1.
         -2   -1    0    0    0  501 -0.00000000000E+00 -0.00000000000E+00 -0.81541457556E+03  0.81541457556E+03  0.00000000000E+00 0.  1.
        -24    2    1    2    0    0 -0.90624942195E+02 -0.11706613014E+04  0.46587005631E+03  0.12658755780E+04  0.82129816336E+02 0.  0.
    5000000    2    1    2    0    0  0.90624942195E+02  0.11706613014E+04  0.63112261859E+03  0.14619462480E+04  0.60025853567E+03 0.  0.
        -24    2    4    4    0    0  0.24360926736E+03  0.41443526339E+03  0.44562381769E+03  0.66413784807E+03  0.10675407092E+03 0.  0.
         24    2    4    4    0    0 -0.15298432517E+03  0.75622603804E+03  0.18549880090E+03  0.79780839997E+03  0.82500991324E+02 0.  0.
         11    1    5    5    0    0  0.16188276003E+03  0.18600235414E+03  0.26266240455E+03  0.36026995782E+03  0.00000000000E+00 0. -1.
        -12    1    5    5    0    0  0.81726507339E+02  0.22843290925E+03  0.18296141314E+03  0.30386789025E+03  0.00000000000E+00 0.  1.
         15    1    3    3    0    0 -0.10304250631E+03 -0.91326412518E+03  0.35245753163E+03  0.98432646504E+03  0.17770000000E+01 0. -1.
        -16    1    3    3    0    0  0.12417564110E+02 -0.25739717626E+03  0.11341252467E+03  0.28154911294E+03  0.00000000000E+00 0.  1.
          2    1    6    6  502    0 -0.72102266824E+02  0.19127801025E+03  0.32861230067E+02  0.20704075572E+03  0.00000000000E+00 0. -1.
         -1    1    6    6    0  502 -0.80882058346E+02  0.56494802779E+03  0.15263757083E+03  0.59076764425E+03  0.00000000000E+00 0.  1.
<mgrwt>
<rscale>  0 0.12205384E+04</rscale>
<asrwt>0</asrwt>
<pdfrwt beam="1">  1        1 0.29421650E+00 0.12205384E+04</pdfrwt>
<pdfrwt beam="2">  1       -2 0.12544840E+00 0.12205384E+04</pdfrwt>
<totfact> 0.13918792E+00</totfact>
</mgrwt>
</event>
<event>
12    3  0.1176505E-007  0.1348441E+04  0.7818608E-02  0.8992009E-01
          1   -1    0    0  501    0  0.00000000000E+00  0.00000000000E+00  0.14725812841E+04  0.14725812841E+04  0.00000000000E+00 0. -1.
         -2   -1    0    0    0  501 -0.00000000000E+00 -0.00000000000E+00 -0.14021992158E+04  0.14021992158E+04  0.00000000000E+00 0.  1.
        -24    2    1    2    0    0  0.98554958171E+03  0.89717943821E+03  0.36429971551E+03  0.13839298122E+04  0.79426192868E+02 0.  0.
    5000000    2    1    2    0    0 -0.98554958171E+03 -0.89717943821E+03 -0.29391764720E+03  0.14908506876E+04  0.60000772243E+03 0.  0.
        -24    2    4    4    0    0 -0.19715647143E+03 -0.34948835732E+03  0.14350568508E+03  0.43344462046E+03  0.79167993688E+02 0.  0.
         24    2    4    4    0    0 -0.78839311028E+03 -0.54769108090E+03 -0.43742333228E+03  0.10574060671E+04  0.72382337328E+02 0.  0.
         11    1    5    5    0    0 -0.82746246295E+01 -0.31301962497E+02  0.35349861087E+02  0.47936363523E+02  0.00000000000E+00 0. -1.
        -12    1    5    5    0    0 -0.18888184680E+03 -0.31818639482E+03  0.10815582399E+03  0.38550825693E+03  0.00000000000E+00 0.  1.
         15    1    3    3    0    0  0.52421668495E+03  0.43145133498E+03  0.16384655021E+03  0.69842840505E+03  0.17770000000E+01 0. -1.
        -16    1    3    3    0    0  0.46133289676E+03  0.46572810324E+03  0.20045316531E+03  0.68550140719E+03  0.00000000000E+00 0.  1.
          4    1    6    6  502    0 -0.56797499903E+03 -0.39929129646E+03 -0.35114425619E+03  0.77803047987E+03  0.00000000000E+00 0. -1.
         -3    1    6    6    0  502 -0.22041811124E+03 -0.14839978444E+03 -0.86279076089E+02  0.27937558726E+03  0.00000000000E+00 0.  1.
<mgrwt>
<rscale>  0 0.13484407E+04</rscale>
<asrwt>0</asrwt>
<pdfrwt beam="1">  1        1 0.22655097E+00 0.13484407E+04</pdfrwt>
<pdfrwt beam="2">  1       -2 0.21572296E+00 0.13484407E+04</pdfrwt>
<totfact> 0.60420959E-01</totfact>
</mgrwt>
</event>
<event>
12    3  0.1176505E-007  0.6760937E+03  0.7818608E-02  0.9759012E-01
          1   -1    0    0  501    0  0.00000000000E+00  0.00000000000E+00  0.13585962209E+04  0.13585962209E+04  0.00000000000E+00 0. -1.
         -2   -1    0    0    0  501 -0.00000000000E+00 -0.00000000000E+00 -0.34683377026E+03  0.34683377026E+03  0.00000000000E+00 0.  1.
        -24    2    1    2    0    0  0.32091098092E+03  0.44803704716E+03  0.37832006180E+03  0.67340939370E+03  0.81443778573E+02 0.  0.
    5000000    2    1    2    0    0 -0.32091098092E+03 -0.44803704716E+03  0.63344238887E+03  0.10320205975E+04  0.60008016160E+03 0.  0.
        -24    2    4    4    0    0  0.15125534451E+03 -0.22918098549E+03  0.17955370087E+03  0.33681242411E+03  0.76164126629E+02 0.  0.
         24    2    4    4    0    0 -0.47216632542E+03 -0.21885606167E+03  0.45388868800E+03  0.69520817339E+03  0.80376916234E+02 0.  0.
         13    1    5    5    0    0  0.10315951130E+03 -0.12571385882E+03  0.65002892078E+02  0.17513205032E+03  0.00000000000E+00 0. -1.
        -14    1    5    5    0    0  0.48095833210E+02 -0.10346712667E+03  0.11455080879E+03  0.16168037379E+03  0.00000000000E+00 0.  1.
         15    1    3    3    0    0  0.66514199499E+02  0.14221874845E+03  0.80277512573E+02  0.17634610259E+03  0.17770000000E+01 0. -1.
        -16    1    3    3    0    0  0.25439678142E+03  0.30581829871E+03  0.29804254923E+03  0.49706329111E+03  0.00000000000E+00 0.  1.
          2    1    6    6  502    0 -0.11557117324E+03 -0.61008876287E+02  0.16176649828E+03  0.20795956105E+03  0.00000000000E+00 0. -1.
         -3    1    6    6    0  502 -0.35659515219E+03 -0.15784718538E+03  0.29212218972E+03  0.48724861234E+03  0.00000000000E+00 0.  1.
<mgrwt>
<rscale>  0 0.67609367E+03</rscale>
<asrwt>0</asrwt>
<pdfrwt beam="1">  1        1 0.20901480E+00 0.67609367E+03</pdfrwt>
<pdfrwt beam="2">  1       -2 0.53359042E-01 0.67609367E+03</pdfrwt>
<totfact> 0.24749902E+01</totfact>
</mgrwt>
</event>
<event>
12    3  0.1176505E-007  0.7396237E+03  0.7818608E-02  0.9651771E-01
          1   -1    0    0  501    0  0.00000000000E+00  0.00000000000E+00  0.11735960726E+04  0.11735960726E+04  0.00000000000E+00 0. -1.
         -2   -1    0    0    0  501 -0.00000000000E+00 -0.00000000000E+00 -0.47780532940E+03  0.47780532940E+03  0.00000000000E+00 0.  1.
        -24    2    1    2    0    0 -0.13051675701E+03 -0.61078889802E+03  0.25156059480E+03  0.67803597663E+03  0.79701636970E+02 0.  0.
    5000000    2    1    2    0    0  0.13051675701E+03  0.61078889802E+03  0.44423014837E+03  0.97336542535E+03  0.60000177061E+03 0.  0.
        -24    2    4    4    0    0 -0.75944633153E+02  0.62705413335E+03  0.36564175752E+03  0.73453968084E+03  0.83007074562E+02 0.  0.
         24    2    4    4    0    0  0.20646139017E+03 -0.16265235329E+02  0.78588390851E+02  0.23882574451E+03  0.89278987198E+02 0.  0.
         13    1    5    5    0    0 -0.69008905873E+02  0.37576774242E+03  0.18176998200E+03  0.42308858611E+03  0.00000000000E+00 0. -1.
        -14    1    5    5    0    0 -0.69357272807E+01  0.25128639093E+03  0.18387177552E+03  0.31145109474E+03  0.00000000000E+00 0.  1.
         15    1    3    3    0    0 -0.97994037209E+01 -0.16458127001E+03  0.39949168422E+02  0.16965292965E+03  0.17770000000E+01 0. -1.
        -16    1    3    3    0    0 -0.12071735329E+03 -0.44620762801E+03  0.21161142638E+03  0.50838304698E+03  0.00000000000E+00 0.  1.
          2    1    6    6  502    0  0.16945091649E+03  0.15163350868E+02  0.84421095098E+02  0.18992225148E+03  0.00000000000E+00 0. -1.
         -1    1    6    6    0  502  0.37010473677E+02 -0.31428586197E+02 -0.58327042466E+01  0.48903493034E+02  0.00000000000E+00 0.  1.
<mgrwt>
<rscale>  0 0.73962374E+03</rscale>
<asrwt>0</asrwt>
<pdfrwt beam="1">  1        1 0.18055324E+00 0.73962374E+03</pdfrwt>
<pdfrwt beam="2">  1       -2 0.73508513E-01 0.73962374E+03</pdfrwt>
<totfact> 0.16807440E+01</totfact>
</mgrwt>
</event>
<event>
12    3  0.1176505E-007  0.5494713E+03  0.7818608E-02  0.1001616E+00
          1   -1    0    0  501    0  0.00000000000E+00  0.00000000000E+00  0.33791568941E+03  0.33791568941E+03  0.00000000000E+00 0. -1.
         -2   -1    0    0    0  501 -0.00000000000E+00 -0.00000000000E+00 -0.13715796136E+04  0.13715796136E+04  0.00000000000E+00 0.  1.
        -24    2    1    2    0    0 -0.24065974338E+03  0.43560507380E+03 -0.69652247168E+03  0.86016905499E+03  0.84132973301E+02 0.  0.
    5000000    2    1    2    0    0  0.24065974338E+03 -0.43560507380E+03 -0.33714145247E+03  0.84932624798E+03  0.60001818650E+03 0.  0.
        -24    2    4    4    0    0  0.28866579935E+03 -0.24153197056E+03 -0.46132303393E+03  0.60075399935E+03  0.80129829552E+02 0.  0.
         24    2    4    4    0    0 -0.48006055968E+02 -0.19407310324E+03  0.12418158147E+03  0.24857224863E+03  0.79988416673E+02 0.  0.
         13    1    5    5    0    0  0.57782391523E+02 -0.16123831914E+02 -0.97320089873E+02  0.11432402468E+03  0.00000000000E+00 0. -1.
        -14    1    5    5    0    0  0.23088340783E+03 -0.22540813864E+03 -0.36400294406E+03  0.48642997467E+03  0.00000000000E+00 0.  1.
         15    1    3    3    0    0 -0.60508238355E+02  0.18850478387E+03 -0.24838076843E+03  0.31763416741E+03  0.17770000000E+01 0. -1.
        -16    1    3    3    0    0 -0.18015150503E+03  0.24710028993E+03 -0.44814170324E+03  0.54253488757E+03  0.00000000000E+00 0.  1.
          4    1    6    6  502    0 -0.67266594018E+02 -0.15286116865E+03  0.11325727381E+03  0.20178835849E+03  0.00000000000E+00 0. -1.
         -3    1    6    6    0  502  0.19260538050E+02 -0.41211934592E+02  0.10924307658E+02  0.46783890140E+02  0.00000000000E+00 0.  1.
<mgrwt>
<rscale>  0 0.54947132E+03</rscale>
<asrwt>0</asrwt>
<pdfrwt beam="1">  1        1 0.51987029E-01 0.54947132E+03</pdfrwt>
<pdfrwt beam="2">  1       -2 0.21101225E+00 0.54947132E+03</pdfrwt>
<totfact> 0.77704548E+00</totfact>
</mgrwt>
</event>
<event>
12    3  0.1176505E-007  0.4934678E+03  0.7818608E-02  0.1015498E+00
          1   -1    0    0  501    0  0.00000000000E+00  0.00000000000E+00  0.68459055165E+03  0.68459055165E+03  0.00000000000E+00 0. -1.
         -2   -1    0    0    0  501 -0.00000000000E+00 -0.00000000000E+00 -0.39992275103E+03  0.39992275103E+03  0.00000000000E+00 0.  1.
        -24    2    1    2    0    0 -0.12752583820E+03 -0.30985242052E+03  0.97701446835E+01  0.34435244426E+03  0.78814898502E+02 0.  0.
    5000000    2    1    2    0    0  0.12752583820E+03  0.30985242052E+03  0.27489765593E+03  0.74016085842E+03  0.59999834432E+03 0.  0.
        -24    2    4    4    0    0  0.11062579652E+03  0.46497335444E+03  0.10638375163E+03  0.49684041181E+03  0.84229478199E+02 0.  0.
         24    2    4    4    0    0  0.16900041688E+02 -0.15512093392E+03  0.16851390431E+03  0.24332044661E+03  0.80372807860E+02 0.  0.
         13    1    5    5    0    0  0.97110777267E+02  0.45760218222E+03  0.94141890308E+02  0.47717183042E+03  0.00000000000E+00 0. -1.
        -14    1    5    5    0    0  0.13515019249E+02  0.73711722202E+01  0.12241861318E+02  0.19668581386E+02  0.00000000000E+00 0.  1.
         15    1    3    3    0    0 -0.88770936992E+02 -0.18380176304E+03  0.42446922404E+02  0.20849044655E+03  0.17770000000E+01 0. -1.
        -16    1    3    3    0    0 -0.38754901213E+02 -0.12605065748E+03 -0.32676777720E+02  0.13586199771E+03  0.00000000000E+00 0.  1.
          4    1    6    6  502    0 -0.19590431404E+01 -0.14733419790E+03  0.16722003444E+03  0.22287607238E+03  0.00000000000E+00 0. -1.
         -3    1    6    6    0  502  0.18859084829E+02 -0.77867360255E+01  0.12938698661E+01  0.20444374232E+02  0.00000000000E+00 0.  1.
<mgrwt>
<rscale>  0 0.49346785E+03</rscale>
<asrwt>0</asrwt>
<pdfrwt beam="1">  1        1 0.10532162E+00 0.49346785E+03</pdfrwt>
<pdfrwt beam="2">  1       -2 0.61526577E-01 0.49346785E+03</pdfrwt>
<totfact> 0.63099738E+01</totfact>
</mgrwt>
</event>
<event>
12    3  0.1176505E-007  0.4282893E+03  0.7818608E-02  0.1034402E+00
         -2   -1    0    0    0  501 -0.00000000000E+00  0.00000000000E+00  0.55536032400E+03  0.55536032400E+03  0.00000000000E+00 0.  1.
          1   -1    0    0  501    0  0.00000000000E+00 -0.00000000000E+00 -0.47406643967E+03  0.47406643967E+03  0.00000000000E+00 0. -1.
        -24    2    1    2    0    0  0.11917563515E+02 -0.24769355243E+03 -0.19302556062E+03  0.32455567243E+03  0.81138112003E+02 0.  0.
    5000000    2    1    2    0    0 -0.11917563515E+02  0.24769355243E+03  0.27431944495E+03  0.70487109124E+03  0.60008163874E+03 0.  0.
        -24    2    4    4    0    0  0.25672547393E+03  0.11133974617E+03  0.79963179585E+01  0.29188949116E+03  0.82650020622E+02 0.  0.
         24    2    4    4    0    0 -0.26864303744E+03  0.13635380626E+03  0.26632312699E+03  0.41298160008E+03  0.94150687677E+02 0.  0.
         13    1    5    5    0    0  0.15197279677E+03  0.26203126802E+02  0.23575671521E+02  0.15600688158E+03  0.00000000000E+00 0. -1.
        -14    1    5    5    0    0  0.10475267715E+03  0.85136619369E+02 -0.15579353562E+02  0.13588260958E+03  0.00000000000E+00 0.  1.
         15    1    3    3    0    0 -0.30389536274E+02 -0.10019257963E+03 -0.10177507556E+03  0.14602534253E+03  0.17770000000E+01 0. -1.
        -16    1    3    3    0    0  0.42307099788E+02 -0.14750097280E+03 -0.91250485060E+02  0.17853032990E+03  0.00000000000E+00 0.  1.
          2    1    6    6  502    0 -0.62336970070E+02  0.76849288475E+00  0.90517757947E+02  0.10990883915E+03  0.00000000000E+00 0. -1.
         -1    1    6    6    0  502 -0.20630606737E+03  0.13558531337E+03  0.17580536904E+03  0.30307276093E+03  0.00000000000E+00 0.  1.
<mgrwt>
<rscale>  0 0.42828926E+03</rscale>
<asrwt>0</asrwt>
<pdfrwt beam="1">  1        1 0.72933298E-01 0.42828926E+03</pdfrwt>
<pdfrwt beam="2">  1       -2 0.85440050E-01 0.42828926E+03</pdfrwt>
<totfact> 0.51927994E+01</totfact>
</mgrwt>
</event>
<event>
12    3  0.1176505E-007  0.1697583E+04  0.7818608E-02  0.8762744E-01
         -2   -1    0    0    0  501 -0.00000000000E+00  0.00000000000E+00  0.94749231489E+03  0.94749231489E+03  0.00000000000E+00 0.  1.
          1   -1    0    0  501    0  0.00000000000E+00 -0.00000000000E+00 -0.33652686128E+04  0.33652686128E+04  0.00000000000E+00 0. -1.
        -24    2    1    2    0    0  0.57577369071E+03 -0.15627524394E+04 -0.17598958953E+04  0.24242485670E+04  0.77698277344E+02 0.  0.
    5000000    2    1    2    0    0 -0.57577369071E+03  0.15627524394E+04 -0.65788040256E+03  0.18885123607E+04  0.59996815139E+03 0.  0.
        -24    2    4    4    0    0 -0.63388269983E+03  0.12390657035E+04 -0.36942882636E+03  0.14421400002E+04  0.78733905012E+02 0.  0.
         24    2    4    4    0    0  0.58109009129E+02  0.32368673592E+03 -0.28845157619E+03  0.44637236048E+03  0.88849380623E+02 0.  0.
         11    1    5    5    0    0 -0.32459667431E+03  0.56586500651E+03 -0.19761693543E+03  0.68162941525E+03  0.00000000000E+00 0. -1.
        -12    1    5    5    0    0 -0.30928602553E+03  0.67320069696E+03 -0.17181189093E+03  0.76051058496E+03  0.00000000000E+00 0.  1.
         15    1    3    3    0    0  0.39413786934E+03 -0.99620092748E+03 -0.10917260237E+04  0.15295848510E+04  0.17770000000E+01 0. -1.
        -16    1    3    3    0    0  0.18163582137E+03 -0.56655151192E+03 -0.66816987160E+03  0.89466371592E+03  0.00000000000E+00 0.  1.
          4    1    6    6  502    0  0.57145451336E+02  0.13030817454E+03 -0.85304223314E+02  0.16589946798E+03  0.00000000000E+00 0. -1.
         -3    1    6    6    0  502  0.96355779328E+00  0.19337856139E+03 -0.20314735288E+03  0.28047289250E+03  0.00000000000E+00 0.  1.
<mgrwt>
<rscale>  0 0.16975826E+04</rscale>
<asrwt>0</asrwt>
<pdfrwt beam="1">  1        1 0.51773364E+00 0.16975826E+04</pdfrwt>
<pdfrwt beam="2">  1       -2 0.14576805E+00 0.16975826E+04</pdfrwt>
<totfact> 0.83959541E-02</totfact>
</mgrwt>
</event>
<event>
12    3  0.1176505E-007  0.7308988E+03  0.7818608E-02  0.9665803E-01
          3   -1    0    0  501    0  0.00000000000E+00  0.00000000000E+00  0.98285686294E+03  0.98285686294E+03  0.00000000000E+00 0. -1.
         -4   -1    0    0    0  501 -0.00000000000E+00 -0.00000000000E+00 -0.80316437923E+03  0.80316437923E+03  0.00000000000E+00 0.  1.
        -24    2    1    2    0    0  0.61138920895E+03 -0.31689273121E+03 -0.29887910599E+03  0.75493663925E+03  0.79892686524E+02 0.  0.
    5000000    2    1    2    0    0 -0.61138920895E+03  0.31689273121E+03  0.47857158971E+03  0.10310846029E+04  0.59990576258E+03 0.  0.
        -24    2    4    4    0    0 -0.38182804407E+03  0.28159752668E+01 -0.22938485953E+02  0.39154850843E+03  0.83567190690E+02 0.  0.
         24    2    4    4    0    0 -0.22956116488E+03  0.31407675594E+03  0.50151007566E+03  0.63953609449E+03  0.78431646169E+02 0.  0.
         11    1    5    5    0    0 -0.13971345353E+03  0.16534386427E+02 -0.45836420589E+02  0.14796693038E+03  0.00000000000E+00 0. -1.
        -12    1    5    5    0    0 -0.24211459054E+03 -0.13718411160E+02  0.22897934636E+02  0.24358157805E+03  0.00000000000E+00 0.  1.
         15    1    3    3    0    0  0.72064539233E+02 -0.28917530852E+02 -0.86367204151E+01  0.78149037576E+02  0.17770000000E+01 0. -1.
        -16    1    3    3    0    0  0.53932466972E+03 -0.28797520036E+03 -0.29024238558E+03  0.67678760167E+03  0.00000000000E+00 0.  1.
          2    1    6    6  502    0 -0.31975947138E+02  0.56380861342E+02  0.43383089676E+02  0.77995866499E+02  0.00000000000E+00 0. -1.
         -1    1    6    6    0  502 -0.19758521775E+03  0.25769589460E+03  0.45812698599E+03  0.56154022799E+03  0.00000000000E+00 0.  1.
<mgrwt>
<rscale>  0 0.73089877E+03</rscale>
<asrwt>0</asrwt>
<pdfrwt beam="1">  1        3 0.15120875E+00 0.73089877E+03</pdfrwt>
<pdfrwt beam="2">  1       -4 0.12356375E+00 0.73089877E+03</pdfrwt>
<totfact> 0.35054541E-01</totfact>
</mgrwt>
</event>
<event>
12    3  0.1176505E-007  0.5899576E+03  0.7818608E-02  0.9926463E-01
          1   -1    0    0  501    0  0.00000000000E+00  0.00000000000E+00  0.11297479611E+04  0.11297479611E+04  0.00000000000E+00 0. -1.
         -2   -1    0    0    0  501 -0.00000000000E+00 -0.00000000000E+00 -0.35394987699E+03  0.35394987699E+03  0.00000000000E+00 0.  1.
        -24    2    1    2    0    0 -0.28136635293E+03 -0.39503102264E+03  0.33780446440E+03  0.59648410290E+03  0.80404573494E+02 0.  0.
    5000000    2    1    2    0    0  0.28136635293E+03  0.39503102264E+03  0.43799361972E+03  0.88721373521E+03  0.60007771798E+03 0.  0.
        -24    2    4    4    0    0  0.39758578812E+02  0.43561581614E+03  0.86807526024E+02  0.45317829159E+03  0.80579982206E+02 0.  0.
         24    2    4    4    0    0  0.24160777411E+03 -0.40584793494E+02  0.35118609370E+03  0.43403544362E+03  0.70948234203E+02 0.  0.
         11    1    5    5    0    0 -0.14231509108E+02  0.44518037718E+02 -0.73165785429E+01  0.47306699899E+02  0.00000000000E+00 0. -1.
        -12    1    5    5    0    0  0.53990087920E+02  0.39109777842E+03  0.94124104567E+02  0.40587159169E+03  0.00000000000E+00 0.  1.
         15    1    3    3    0    0 -0.26822387111E+03 -0.34610282931E+03  0.32162085338E+03  0.54329949801E+03  0.17770000000E+01 0. -1.
        -16    1    3    3    0    0 -0.13142481819E+02 -0.48928193336E+02  0.16183611021E+02  0.53184604889E+02  0.00000000000E+00 0.  1.
          2    1    6    6  502    0  0.13116490967E+03 -0.46677074716E+02  0.15145955810E+03  0.20572549811E+03  0.00000000000E+00 0. -1.
         -1    1    6    6    0  502  0.11044286445E+03  0.60922812222E+01  0.19972653560E+03  0.22830994551E+03  0.00000000000E+00 0.  1.
<mgrwt>
<rscale>  0 0.58995760E+03</rscale>
<asrwt>0</asrwt>
<pdfrwt beam="1">  1        1 0.17380738E+00 0.58995760E+03</pdfrwt>
<pdfrwt beam="2">  1       -2 0.54453828E-01 0.58995760E+03</pdfrwt>
<totfact> 0.34945026E+01</totfact>
</mgrwt>
</event>
<event>
12    3  0.1176505E-007  0.8668374E+03  0.7818608E-02  0.9468013E-01
         -2   -1    0    0    0  501 -0.00000000000E+00  0.00000000000E+00  0.43133109416E+03  0.43133109416E+03  0.00000000000E+00 0.  1.
          1   -1    0    0  501    0  0.00000000000E+00 -0.00000000000E+00 -0.21915018542E+04  0.21915018542E+04  0.00000000000E+00 0. -1.
        -24    2    1    2    0    0 -0.76216630138E+03  0.40421271093E+03 -0.10148729746E+04  0.13344380072E+04  0.80450318621E+02 0.  0.
    5000000    2    1    2    0    0  0.76216630138E+03 -0.40421271093E+03 -0.74529778545E+03  0.12883949412E+04  0.60017276585E+03 0.  0.
        -24    2    4    4    0    0  0.48182155025E+03 -0.20634915024E+03 -0.81189553673E+02  0.53639333679E+03  0.79963054210E+02 0.  0.
         24    2    4    4    0    0  0.28034475113E+03 -0.19786356070E+03 -0.66410823177E+03  0.75200160441E+03  0.81996959595E+02 0.  0.
         13    1    5    5    0    0  0.19310256217E+03 -0.97967823543E+02  0.35856913532E+01  0.21656211845E+03  0.00000000000E+00 0. -1.
        -14    1    5    5    0    0  0.28871898808E+03 -0.10838132670E+03 -0.84775245026E+02  0.31983121833E+03  0.00000000000E+00 0.  1.
         15    1    3    3    0    0 -0.47612187422E+03  0.28939555642E+03 -0.62146530020E+03  0.83466406671E+03  0.17770000000E+01 0. -1.
        -16    1    3    3    0    0 -0.28604442716E+03  0.11481715452E+03 -0.39340767439E+03  0.49977394045E+03  0.00000000000E+00 0.  1.
          2    1    6    6  502    0  0.22419846261E+03 -0.15224287392E+03 -0.44258457784E+03  0.51896430690E+03  0.00000000000E+00 0. -1.
         -1    1    6    6    0  502  0.56146288527E+02 -0.45620686774E+02 -0.22152365394E+03  0.23303729751E+03  0.00000000000E+00 0.  1.
<mgrwt>
<rscale>  0 0.86683740E+03</rscale>
<asrwt>0</asrwt>
<pdfrwt beam="1">  1        1 0.33715413E+00 0.86683740E+03</pdfrwt>
<pdfrwt beam="2">  1       -2 0.66358630E-01 0.86683740E+03</pdfrwt>
<totfact> 0.41649299E+00</totfact>
</mgrwt>
</event>
<event>
12    3  0.1176505E-007  0.8294634E+03  0.7818608E-02  0.9518323E-01
          1   -1    0    0  501    0  0.00000000000E+00  0.00000000000E+00  0.16313789399E+04  0.16313789399E+04  0.00000000000E+00 0. -1.
         -2   -1    0    0    0  501 -0.00000000000E+00 -0.00000000000E+00 -0.58125268616E+03  0.58125268616E+03  0.00000000000E+00 0.  1.
        -24    2    1    2    0    0 -0.80853565529E+03  0.17874709490E+02  0.86848169606E+03  0.11893928695E+04  0.79658838827E+02 0.  0.
    5000000    2    1    2    0    0  0.80853565529E+03 -0.17874709490E+02  0.18164455771E+03  0.10232387565E+04  0.59997782995E+03 0.  0.
        -24    2    4    4    0    0  0.64365425964E+03 -0.11596194693E+03  0.35916612416E+03  0.74993015889E+03  0.75212760757E+02 0.  0.
         24    2    4    4    0    0  0.16488139565E+03  0.98087237435E+02 -0.17752156646E+03  0.27330859765E+03  0.79854256087E+02 0.  0.
         11    1    5    5    0    0  0.23063710809E+03 -0.26425099166E+02  0.16523987301E+03  0.28494907813E+03  0.00000000000E+00 0. -1.
        -12    1    5    5    0    0  0.41301715154E+03 -0.89536847760E+02  0.19392625115E+03  0.46498108076E+03  0.00000000000E+00 0.  1.
         15    1    3    3    0    0 -0.45770193000E+03 -0.19570136521E+02  0.45230085019E+03  0.64378044688E+03  0.17770000000E+01 0. -1.
        -16    1    3    3    0    0 -0.35083372529E+03  0.37444846011E+02  0.41618084587E+03  0.54561242266E+03  0.00000000000E+00 0.  1.
          2    1    6    6  502    0  0.61621655738E+02  0.49792553159E+02 -0.25364828538E+02  0.83185944322E+02  0.00000000000E+00 0. -1.
         -1    1    6    6    0  502  0.10325973991E+03  0.48294684276E+02 -0.15215673792E+03  0.19012265333E+03  0.00000000000E+00 0.  1.
<mgrwt>
<rscale>  0 0.82946339E+03</rscale>
<asrwt>0</asrwt>
<pdfrwt beam="1">  1        1 0.25098137E+00 0.82946339E+03</pdfrwt>
<pdfrwt beam="2">  1       -2 0.89423491E-01 0.82946339E+03</pdfrwt>
<totfact> 0.51179134E+00</totfact>
</mgrwt>
</event>
<event>
12    3  0.1176505E-007  0.7748571E+03  0.7818608E-02  0.9597141E-01
         -2   -1    0    0    0  501 -0.00000000000E+00  0.00000000000E+00  0.56811681137E+03  0.56811681137E+03  0.00000000000E+00 0.  1.
          1   -1    0    0  501    0  0.00000000000E+00 -0.00000000000E+00 -0.13512820146E+04  0.13512820146E+04  0.00000000000E+00 0. -1.
        -24    2    1    2    0    0  0.43053091229E+03 -0.63738310474E+03 -0.40584461842E+03  0.87339044540E+03  0.80541462404E+02 0.  0.
    5000000    2    1    2    0    0 -0.43053091229E+03  0.63738310474E+03 -0.37732058479E+03  0.10460083806E+04  0.60012383708E+03 0.  0.
        -24    2    4    4    0    0 -0.27916660579E+03  0.32408562988E+03  0.10336965759E+03  0.44721959560E+03  0.79715690375E+02 0.  0.
         24    2    4    4    0    0 -0.15136430650E+03  0.31329747486E+03 -0.48069024239E+03  0.59878878496E+03  0.80115159774E+02 0.  0.
         13    1    5    5    0    0 -0.19971606634E+03  0.22154803249E+03  0.34253858919E+02  0.30023884609E+03  0.00000000000E+00 0. -1.
        -14    1    5    5    0    0 -0.79450539448E+02  0.10253759739E+03  0.69115798673E+02  0.14698074950E+03  0.00000000000E+00 0.  1.
         15    1    3    3    0    0  0.24872186193E+03 -0.36711299512E+03 -0.27856423183E+03  0.52367519014E+03  0.17770000000E+01 0. -1.
        -16    1    3    3    0    0  0.18180905036E+03 -0.27027010962E+03 -0.12728038659E+03  0.34971525526E+03  0.00000000000E+00 0.  1.
          2    1    6    6  502    0 -0.10218114691E+02  0.74194224506E+02 -0.14458136299E+03  0.16282801768E+03  0.00000000000E+00 0. -1.
         -1    1    6    6    0  502 -0.14114619181E+03  0.23910325036E+03 -0.33610887940E+03  0.43596076727E+03  0.00000000000E+00 0.  1.
<mgrwt>
<rscale>  0 0.77485705E+03</rscale>
<asrwt>0</asrwt>
<pdfrwt beam="1">  1        1 0.20788954E+00 0.77485705E+03</pdfrwt>
<pdfrwt beam="2">  1       -2 0.87402588E-01 0.77485705E+03</pdfrwt>
<totfact> 0.84659950E+00</totfact>
</mgrwt>
</event>
<event>
12    3  0.1176505E-007  0.8298526E+03  0.7818608E-02  0.9517784E-01
         -2   -1    0    0    0  501 -0.00000000000E+00  0.00000000000E+00  0.18281219313E+04  0.18281219313E+04  0.00000000000E+00 0.  1.
          1   -1    0    0  501    0  0.00000000000E+00 -0.00000000000E+00 -0.46181029005E+03  0.46181029005E+03  0.00000000000E+00 0. -1.
        -24    2    1    2    0    0 -0.80087632151E+03  0.15439193084E+03  0.70353807696E+03  0.10798909718E+04  0.77194135366E+02 0.  0.
    5000000    2    1    2    0    0  0.80087632151E+03 -0.15439193084E+03  0.66277356430E+03  0.12100412496E+04  0.59974267605E+03 0.  0.
        -24    2    4    4    0    0  0.17620611481E+03  0.45746492824E+02  0.48677607859E+03  0.52613244170E+03  0.81994262097E+02 0.  0.
         24    2    4    4    0    0  0.62467020670E+03 -0.20013842367E+03  0.17599748571E+03  0.68390880788E+03  0.80547419251E+02 0.  0.
         11    1    5    5    0    0  0.34940258277E+02  0.21954116729E+02  0.21487547077E+03  0.21880190316E+03  0.00000000000E+00 0. -1.
        -12    1    5    5    0    0  0.14126585653E+03  0.23792376094E+02  0.27190060782E+03  0.30733053853E+03  0.00000000000E+00 0.  1.
         15    1    3    3    0    0 -0.11699538509E+03  0.50045094548E+02  0.11828528204E+03  0.17374405687E+03  0.17770000000E+01 0. -1.
        -16    1    3    3    0    0 -0.68388093641E+03  0.10434683629E+03  0.58525279492E+03  0.90614691491E+03  0.00000000000E+00 0.  1.
          2    1    6    6  502    0  0.54859156982E+03 -0.17045797025E+03  0.12588251801E+03  0.58809441286E+03  0.00000000000E+00 0. -1.
         -1    1    6    6    0  502  0.76078636884E+02 -0.29680453419E+02  0.50114967697E+02  0.95814395017E+02  0.00000000000E+00 0.  1.
<mgrwt>
<rscale>  0 0.82985260E+03</rscale>
<asrwt>0</asrwt>
<pdfrwt beam="1">  1        1 0.71047738E-01 0.82985260E+03</pdfrwt>
<pdfrwt beam="2">  1       -2 0.28124953E+00 0.82985260E+03</pdfrwt>
<totfact> 0.18431709E+00</totfact>
</mgrwt>
</event>
<event>
12    3  0.1350484E-007  0.9389548E+03  0.7818608E-02  0.9378155E-01
          1   -1    0    0  501    0  0.00000000000E+00  0.00000000000E+00  0.18255531883E+04  0.18255531883E+04  0.00000000000E+00 0. -1.
         -2   -1    0    0    0  501 -0.00000000000E+00 -0.00000000000E+00 -0.51507498418E+03  0.51507498418E+03  0.00000000000E+00 0.  1.
        -24    2    1    2    0    0 -0.55142685869E+03  0.67874750756E+03  0.55100385840E+03  0.10362280306E+04  0.73440587150E+02 0.  0.
    5000000    2    1    2    0    0  0.55142685869E+03 -0.67874750756E+03  0.75947434573E+03  0.13044001419E+04  0.59990723359E+03 0.  0.
        -24    2    4    4    0    0 -0.66367130670E+02 -0.57103628264E+02 -0.27034051280E+02  0.12484611025E+03  0.84795583152E+02 0.  0.
         24    2    4    4    0    0  0.61779398936E+03 -0.62164387930E+03  0.78650839701E+03  0.11795540317E+04  0.68130236292E+02 0.  0.
         13    1    5    5    0    0 -0.53434177858E+02 -0.79486620265E+02 -0.17945194222E+02  0.97444159190E+02  0.00000000000E+00 0. -1.
        -14    1    5    5    0    0 -0.12932952812E+02  0.22382992001E+02 -0.90888570578E+01  0.27401951062E+02  0.00000000000E+00 0.  1.
         15    1    3    3    0    0 -0.27252836436E+03  0.28111169029E+03  0.26074454743E+03  0.47041085079E+03  0.17770000000E+01 0. -1.
        -16    1    3    3    0    0 -0.27889849433E+03  0.39763581728E+03  0.29025931097E+03  0.56581717977E+03  0.00000000000E+00 0.  1.
          4    1    6    6  502    0  0.41157178173E+03 -0.45829135242E+03  0.54859936090E+03  0.82485365611E+03  0.00000000000E+00 0. -1.
         -3    1    6    6    0  502  0.20622220763E+03 -0.16335252688E+03  0.23790903612E+03  0.35470037557E+03  0.00000000000E+00 0.  1.
<mgrwt>
<rscale>  0 0.93895481E+03</rscale>
<asrwt>0</asrwt>
<pdfrwt beam="1">  1        1 0.28085433E+00 0.93895481E+03</pdfrwt>
<pdfrwt beam="2">  1       -2 0.79242306E-01 0.93895481E+03</pdfrwt>
<totfact> 0.49142344E+00</totfact>
</mgrwt>
</event>
<event>
12    3  0.1176505E-007  0.5939191E+03  0.7818608E-02  0.9918103E-01
          1   -1    0    0  501    0  0.00000000000E+00  0.00000000000E+00  0.53977336804E+03  0.53977336804E+03  0.00000000000E+00 0. -1.
         -2   -1    0    0    0  501 -0.00000000000E+00 -0.00000000000E+00 -0.87555122931E+03  0.87555122931E+03  0.00000000000E+00 0.  1.
        -24    2    1    2    0    0  0.17362437751E+03 -0.51833561861E+03 -0.52841522955E+02  0.55565768946E+03  0.84534036459E+02 0.  0.
    5000000    2    1    2    0    0 -0.17362437751E+03  0.51833561861E+03 -0.28293633832E+03  0.85966690789E+03  0.60013080491E+03 0.  0.
        -24    2    4    4    0    0 -0.23554201742E+03  0.47813762576E+03 -0.42109826906E+03  0.68393004395E+03  0.79629904412E+02 0.  0.
         24    2    4    4    0    0  0.61917639911E+02  0.40197992843E+02  0.13816193074E+03  0.17573686394E+03  0.79655843984E+02 0.  0.
         11    1    5    5    0    0 -0.22081756141E+03  0.46425463217E+03 -0.41967752395E+03  0.66364296352E+03  0.00000000000E+00 0. -1.
        -12    1    5    5    0    0 -0.14724456008E+02  0.13882993597E+02 -0.14207451070E+01  0.20287080436E+02  0.00000000000E+00 0.  1.
         15    1    3    3    0    0  0.47748960566E+02 -0.25545238910E+03 -0.47220397036E+02  0.26413786165E+03  0.17770000000E+01 0. -1.
        -16    1    3    3    0    0  0.12587541694E+03 -0.26288322951E+03 -0.56211259193E+01  0.29151982781E+03  0.00000000000E+00 0.  1.
          4    1    6    6  502    0  0.77569926384E+02  0.37915695553E+02  0.88599965554E+02  0.12371195312E+03  0.00000000000E+00 0. -1.
         -3    1    6    6    0  502 -0.15652286473E+02  0.22822972906E+01  0.49561965187E+02  0.52024910821E+02  0.00000000000E+00 0.  1.
<mgrwt>
<rscale>  0 0.59391907E+03</rscale>
<asrwt>0</asrwt>
<pdfrwt beam="1">  1        1 0.83042057E-01 0.59391907E+03</pdfrwt>
<pdfrwt beam="2">  1       -2 0.13470019E+00 0.59391907E+03</pdfrwt>
<totfact> 0.14331864E+01</totfact>
</mgrwt>
</event>
<event>
12    3  0.1176505E-007  0.6206399E+03  0.7818608E-02  0.9863487E-01
          3   -1    0    0  501    0  0.00000000000E+00  0.00000000000E+00  0.20317467601E+03  0.20317467601E+03  0.00000000000E+00 0. -1.
         -4   -1    0    0    0  501 -0.00000000000E+00 -0.00000000000E+00 -0.21157073855E+04  0.21157073855E+04  0.00000000000E+00 0.  1.
        -24    2    1    2    0    0 -0.30984664043E+03 -0.37902679902E+03 -0.10401387877E+04  0.11523295471E+04  0.79425641088E+02 0.  0.
    5000000    2    1    2    0    0  0.30984664043E+03  0.37902679902E+03 -0.87239392180E+03  0.11665525144E+04  0.60008945930E+03 0.  0.
        -24    2    4    4    0    0 -0.56430756221E+02 -0.11749400092E+03 -0.15834919060E+03  0.21964315542E+03  0.78609026571E+02 0.  0.
         24    2    4    4    0    0  0.36627739665E+03  0.49652079994E+03 -0.71404473120E+03  0.94690935901E+03  0.78009101778E+02 0.  0.
         11    1    5    5    0    0 -0.47363783386E+02 -0.10910975362E+03 -0.87341653082E+02  0.14756974851E+03  0.00000000000E+00 0. -1.
        -12    1    5    5    0    0 -0.90669728360E+01 -0.83842472978E+01 -0.71007537517E+02  0.72073406909E+02  0.00000000000E+00 0.  1.
         15    1    3    3    0    0 -0.26610445118E+03 -0.29071629999E+03 -0.77476578472E+03  0.86924836779E+03  0.17770000000E+01 0. -1.
        -16    1    3    3    0    0 -0.43742189252E+02 -0.88310499034E+02 -0.26537300302E+03  0.28308117933E+03  0.00000000000E+00 0.  1.
          4    1    6    6  502    0  0.35599939582E+03  0.47640819762E+03 -0.66050857590E+03  0.88880364503E+03  0.00000000000E+00 0. -1.
         -3    1    6    6    0  502  0.10278000836E+02  0.20112602321E+02 -0.53536155295E+02  0.58105713979E+02  0.00000000000E+00 0.  1.
<mgrwt>
<rscale>  0 0.62063989E+03</rscale>
<asrwt>0</asrwt>
<pdfrwt beam="1">  1        3 0.31257642E-01 0.62063989E+03</pdfrwt>
<pdfrwt beam="2">  1       -4 0.32549345E+00 0.62063989E+03</pdfrwt>
<totfact> 0.50889545E-01</totfact>
</mgrwt>
</event>
<event>
12    3  0.1176505E-007  0.5976792E+03  0.7818608E-02  0.9910233E-01
         -2   -1    0    0    0  501 -0.00000000000E+00  0.00000000000E+00  0.77706189540E+03  0.77706189540E+03  0.00000000000E+00 0.  1.
          1   -1    0    0  501    0  0.00000000000E+00 -0.00000000000E+00 -0.66401287639E+03  0.66401287639E+03  0.00000000000E+00 0. -1.
        -24    2    1    2    0    0 -0.41338178008E+03  0.19556058973E+03  0.42048765017E+03  0.62647281903E+03  0.80807726639E+02 0.  0.
    5000000    2    1    2    0    0  0.41338178008E+03 -0.19556058973E+03 -0.30743863116E+03  0.81460195275E+03  0.59994115474E+03 0.  0.
        -24    2    4    4    0    0  0.40853305892E+03 -0.36375934406E+03 -0.15523863918E+03  0.57431236883E+03  0.80718902875E+02 0.  0.
         24    2    4    4    0    0  0.48487211559E+01  0.16819875433E+03 -0.15219999198E+03  0.24028958392E+03  0.79119627936E+02 0.  0.
         13    1    5    5    0    0  0.20941194416E+03 -0.16371052950E+03 -0.37327397968E+02  0.26841727676E+03  0.00000000000E+00 0. -1.
        -14    1    5    5    0    0  0.19912111476E+03 -0.20004881456E+03 -0.11791124121E+03  0.30589509208E+03  0.00000000000E+00 0.  1.
         15    1    3    3    0    0 -0.32832787319E+03  0.18178586652E+03  0.31282566011E+03  0.48857788011E+03  0.17770000000E+01 0. -1.
        -16    1    3    3    0    0 -0.85053906880E+02  0.13774723207E+02  0.10766199006E+03  0.13789493892E+03  0.00000000000E+00 0.  1.
          4    1    6    6  502    0 -0.21369794638E+02  0.15502452069E+03 -0.13110480390E+03  0.20415126682E+03  0.00000000000E+00 0. -1.
         -3    1    6    6    0  502  0.26218515794E+02  0.13174233638E+02 -0.21095188083E+02  0.36138317097E+02  0.00000000000E+00 0.  1.
<mgrwt>
<rscale>  0 0.59767919E+03</rscale>
<asrwt>0</asrwt>
<pdfrwt beam="1">  1        1 0.10215583E+00 0.59767919E+03</pdfrwt>
<pdfrwt beam="2">  1       -2 0.11954798E+00 0.59767919E+03</pdfrwt>
<totfact> 0.14366812E+01</totfact>
</mgrwt>
</event>
<event>
12    3  0.1176505E-007  0.4440533E+03  0.7818608E-02  0.1029510E+00
          1   -1    0    0  501    0  0.00000000000E+00  0.00000000000E+00  0.19958467394E+04  0.19958467394E+04  0.00000000000E+00 0. -1.
         -2   -1    0    0    0  501 -0.00000000000E+00 -0.00000000000E+00 -0.13792201657E+03  0.13792201657E+03  0.00000000000E+00 0.  1.
        -24    2    1    2    0    0 -0.18979364819E+03  0.24242513676E+03  0.95943705154E+03  0.10103165550E+04  0.73678420835E+02 0.  0.
    5000000    2    1    2    0    0  0.18979364819E+03 -0.24242513676E+03  0.89848767125E+03  0.11234522009E+04  0.60006097728E+03 0.  0.
        -24    2    4    4    0    0  0.33593412410E+03 -0.55807054550E+02  0.76276545885E+03  0.83897503206E+03  0.78113994500E+02 0.  0.
         24    2    4    4    0    0 -0.14614047591E+03 -0.18661808221E+03  0.13572221239E+03  0.28447716882E+03  0.79519766946E+02 0.  0.
         13    1    5    5    0    0  0.16583158026E+03 -0.20200906564E+02  0.28207308880E+03  0.32783138511E+03  0.00000000000E+00 0. -1.
        -14    1    5    5    0    0  0.17010254384E+03 -0.35606147986E+02  0.48069237006E+03  0.51114364696E+03  0.00000000000E+00 0.  1.
         15    1    3    3    0    0 -0.10231586677E+03  0.12226527940E+03  0.37939836044E+03  0.41153810124E+03  0.17770000000E+01 0. -1.
        -16    1    3    3    0    0 -0.87477781424E+02  0.12015985736E+03  0.58003869110E+03  0.59877845380E+03  0.00000000000E+00 0.  1.
          2    1    6    6  502    0 -0.69533350350E+02 -0.63380101770E+02  0.14088716671E+02  0.95133674631E+02  0.00000000000E+00 0. -1.
         -1    1    6    6    0  502 -0.76607125556E+02 -0.12323798044E+03  0.12163349572E+03  0.18934349419E+03  0.00000000000E+00 0.  1.
<mgrwt>
<rscale>  0 0.44405332E+03</rscale>
<asrwt>0</asrwt>
<pdfrwt beam="1">  1        1 0.30705332E+00 0.44405332E+03</pdfrwt>
<pdfrwt beam="2">  1       -2 0.21218773E-01 0.44405332E+03</pdfrwt>
<totfact> 0.54682279E+01</totfact>
</mgrwt>
</event>
<event>
12    3  0.1176505E-007  0.5501312E+03  0.7818608E-02  0.1001464E+00
         -2   -1    0    0    0  501 -0.00000000000E+00  0.00000000000E+00  0.43547260248E+03  0.43547260248E+03  0.00000000000E+00 0.  1.
          1   -1    0    0  501    0  0.00000000000E+00 -0.00000000000E+00 -0.71925533283E+03  0.71925533283E+03  0.00000000000E+00 0. -1.
        -24    2    1    2    0    0  0.34592232888E+03 -0.18444697281E+03 -0.14211660172E+03  0.42414317348E+03  0.77571642513E+02 0.  0.
    5000000    2    1    2    0    0 -0.34592232888E+03  0.18444697281E+03 -0.14166612863E+03  0.73058476184E+03  0.60000154903E+03 0.  0.
        -24    2    4    4    0    0 -0.49920448611E+03  0.12367586785E+03 -0.16298654276E+03  0.54538695172E+03  0.79884133229E+02 0.  0.
         24    2    4    4    0    0  0.15328215723E+03  0.60771104965E+02  0.21320414133E+02  0.18519781013E+03  0.81578930455E+02 0.  0.
         11    1    5    5    0    0 -0.43233760940E+03  0.13437806540E+03 -0.14090501350E+03  0.47415977875E+03  0.00000000000E+00 0. -1.
        -12    1    5    5    0    0 -0.66866876712E+02 -0.10702197549E+02 -0.22081529261E+02  0.71227172961E+02  0.00000000000E+00 0.  1.
         15    1    3    3    0    0  0.29210519234E+03 -0.18119612296E+03 -0.10787899480E+03  0.36027560785E+03  0.17770000000E+01 0. -1.
        -16    1    3    3    0    0  0.53817136546E+02 -0.32508498514E+01 -0.34237606924E+02  0.63867565623E+02  0.00000000000E+00 0.  1.
          2    1    6    6  502    0  0.53329563038E+02 -0.16480658985E+02 -0.53926188290E+01  0.56077934629E+02  0.00000000000E+00 0. -1.
         -1    1    6    6    0  502  0.99952594190E+02  0.77251763950E+02  0.26713032962E+02  0.12911987550E+03  0.00000000000E+00 0.  1.
<mgrwt>
<rscale>  0 0.55013117E+03</rscale>
<asrwt>0</asrwt>
<pdfrwt beam="1">  1        1 0.11065467E+00 0.55013117E+03</pdfrwt>
<pdfrwt beam="2">  1       -2 0.66995785E-01 0.55013117E+03</pdfrwt>
<totfact> 0.48580936E+01</totfact>
</mgrwt>
</event>
<event>
12    3  0.1176505E-007  0.5271579E+03  0.7818608E-02  0.1006924E+00
         -2   -1    0    0    0  501 -0.00000000000E+00  0.00000000000E+00  0.18801755231E+03  0.18801755231E+03  0.00000000000E+00 0.  1.
          1   -1    0    0  501    0  0.00000000000E+00 -0.00000000000E+00 -0.15624100013E+04  0.15624100013E+04  0.00000000000E+00 0. -1.
        -24    2    1    2    0    0  0.34524332075E+03 -0.13437080879E+03 -0.48916204985E+03  0.61869391301E+03  0.79083387636E+02 0.  0.
    5000000    2    1    2    0    0 -0.34524332075E+03  0.13437080879E+03 -0.88523039911E+03  0.11317336406E+04  0.59994975532E+03 0.  0.
        -24    2    4    4    0    0  0.10071799557E+03 -0.11841348278E+03 -0.32063131061E+03  0.36496118220E+03  0.78907285062E+02 0.  0.
         24    2    4    4    0    0 -0.44596131633E+03  0.25278429157E+03 -0.56459908850E+03  0.76677245836E+03  0.79915445585E+02 0.  0.
         11    1    5    5    0    0  0.57811957407E+02 -0.29126802688E+02 -0.69398625596E+02  0.94903963503E+02  0.00000000000E+00 0. -1.
        -12    1    5    5    0    0  0.42906038167E+02 -0.89286680096E+02 -0.25123268501E+03  0.27005721870E+03  0.00000000000E+00 0.  1.
         15    1    3    3    0    0  0.24393003622E+03 -0.12946861081E+03 -0.37904838590E+03  0.46898275057E+03  0.17770000000E+01 0. -1.
        -16    1    3    3    0    0  0.10131328453E+03 -0.49021979737E+01 -0.11011366396E+03  0.14971116244E+03  0.00000000000E+00 0.  1.
          2    1    6    6  502    0 -0.11907784979E+03  0.76526836370E+02 -0.10701694102E+03  0.17745003990E+03  0.00000000000E+00 0. -1.
         -1    1    6    6    0  502 -0.32688346654E+03  0.17625745520E+03 -0.45758214748E+03  0.58932241846E+03  0.00000000000E+00 0.  1.
<mgrwt>
<rscale>  0 0.52715789E+03</rscale>
<asrwt>0</asrwt>
<pdfrwt beam="1">  1        1 0.24037076E+00 0.52715789E+03</pdfrwt>
<pdfrwt beam="2">  1       -2 0.28925778E-01 0.52715789E+03</pdfrwt>
<totfact> 0.60084978E+01</totfact>
</mgrwt>
</event>
<event>
12    3  0.1176505E-007  0.7861703E+03  0.7818608E-02  0.9580254E-01
          1   -1    0    0  501    0  0.00000000000E+00  0.00000000000E+00  0.24719308750E+04  0.24719308750E+04  0.00000000000E+00 0. -1.
         -2   -1    0    0    0  501 -0.00000000000E+00 -0.00000000000E+00 -0.27734303414E+03  0.27734303414E+03  0.00000000000E+00 0.  1.
        -24    2    1    2    0    0 -0.28878808880E+01 -0.71653984519E+03  0.99201438141E+03  0.12263066788E+04  0.79358981306E+02 0.  0.
    5000000    2    1    2    0    0  0.28878808880E+01  0.71653984519E+03  0.12025734594E+04  0.15229672303E+04  0.59984045355E+03 0.  0.
        -24    2    4    4    0    0  0.20838542781E+03  0.52474301420E+03  0.48678506487E+03  0.74979090088E+03  0.80293076803E+02 0.  0.
         24    2    4    4    0    0 -0.20549754693E+03  0.19179683099E+03  0.71578839455E+03  0.77317632944E+03  0.80208132148E+02 0.  0.
         11    1    5    5    0    0  0.16324790720E+03  0.31305522983E+03  0.28262624128E+03  0.45225108998E+03  0.00000000000E+00 0. -1.
        -12    1    5    5    0    0  0.45137520611E+02  0.21168778437E+03  0.20415882359E+03  0.29753981090E+03  0.00000000000E+00 0.  1.
         15    1    3    3    0    0 -0.32811126485E+02 -0.19473288618E+03  0.24712312798E+03  0.31633916149E+03  0.17770000000E+01 0. -1.
        -16    1    3    3    0    0  0.29923245597E+02 -0.52180695902E+03  0.74489125344E+03  0.90996751731E+03  0.00000000000E+00 0.  1.
          2    1    6    6  502    0 -0.30223935497E+02  0.15053393325E+02  0.16979595931E+03  0.17312064789E+03  0.00000000000E+00 0. -1.
         -1    1    6    6    0  502 -0.17527361143E+03  0.17674343767E+03  0.54599243523E+03  0.60005568154E+03  0.00000000000E+00 0.  1.
<mgrwt>
<rscale>  0 0.78617028E+03</rscale>
<asrwt>0</asrwt>
<pdfrwt beam="1">  1        1 0.38029704E+00 0.78617028E+03</pdfrwt>
<pdfrwt beam="2">  1       -2 0.42668161E-01 0.78617028E+03</pdfrwt>
<totfact> 0.67781930E+00</totfact>
</mgrwt>
</event>
<event>
12    3  0.1176505E-007  0.2088608E+04  0.7818608E-02  0.8566278E-01
         -2   -1    0    0    0  501 -0.00000000000E+00  0.00000000000E+00  0.10088364265E+04  0.10088364265E+04  0.00000000000E+00 0.  1.
          1   -1    0    0  501    0  0.00000000000E+00 -0.00000000000E+00 -0.46937441677E+04  0.46937441677E+04  0.00000000000E+00 0. -1.
        -24    2    1    2    0    0  0.92277244809E+03 -0.18727398743E+04 -0.12290251561E+04  0.24238403424E+04  0.76390725459E+02 0.  0.
    5000000    2    1    2    0    0 -0.92277244809E+03  0.18727398743E+04 -0.24558825851E+04  0.32787402518E+04  0.60009560828E+03 0.  0.
        -24    2    4    4    0    0 -0.40658741756E+03  0.89069117563E+03 -0.15917528022E+04  0.18705024024E+04  0.80362650005E+02 0.  0.
         24    2    4    4    0    0 -0.51618503053E+03  0.98204869872E+03 -0.86412978285E+03  0.14082378494E+04  0.74477690907E+02 0.  0.
         13    1    5    5    0    0 -0.26224468717E+03  0.54466766285E+03 -0.91076427016E+03  0.10931270259E+04  0.00000000000E+00 0. -1.
        -14    1    5    5    0    0 -0.14434273039E+03  0.34602351278E+03 -0.68098853207E+03  0.77737537652E+03  0.00000000000E+00 0.  1.
         15    1    3    3    0    0  0.11997687259E+03 -0.25713607151E+03 -0.13808607247E+03  0.31556985022E+03  0.17770000000E+01 0. -1.
        -16    1    3    3    0    0  0.80279557550E+03 -0.16156038028E+04 -0.10909390837E+04  0.21082704921E+04  0.00000000000E+00 0.  1.
          2    1    6    6  502    0 -0.17287278865E+03  0.36384593884E+03 -0.35444555508E+03  0.53656362138E+03  0.00000000000E+00 0. -1.
         -1    1    6    6    0  502 -0.34331224188E+03  0.61820275988E+03 -0.50968422777E+03  0.87167422802E+03  0.00000000000E+00 0.  1.
<mgrwt>
<rscale>  0 0.20886079E+04</rscale>
<asrwt>0</asrwt>
<pdfrwt beam="1">  1        1 0.72211448E+00 0.20886079E+04</pdfrwt>
<pdfrwt beam="2">  1       -2 0.15520561E+00 0.20886079E+04</pdfrwt>
<totfact> 0.43115948E-03</totfact>
</mgrwt>
</event>
<event>
12    3  0.1176505E-007  0.7370342E+03  0.7818608E-02  0.9655914E-01
         -2   -1    0    0    0  501 -0.00000000000E+00  0.00000000000E+00  0.26624492734E+04  0.26624492734E+04  0.00000000000E+00 0.  1.
          1   -1    0    0  501    0  0.00000000000E+00 -0.00000000000E+00 -0.71683986326E+03  0.71683986326E+03  0.00000000000E+00 0. -1.
        -24    2    1    2    0    0 -0.42017400036E+03 -0.57270208273E+03 -0.42582769382E+03  0.83208533074E+03  0.80640601816E+02 0.  0.
    5000000    2    1    2    0    0  0.42017400036E+03  0.57270208273E+03  0.23714371039E+04  0.25472038059E+04  0.59999952060E+03 0.  0.
        -24    2    4    4    0    0  0.38422308371E+03  0.54321077891E+03  0.12184824684E+04  0.13905743262E+04  0.79322774119E+02 0.  0.
         24    2    4    4    0    0  0.35950916650E+02  0.29491303825E+02  0.11529546355E+04  0.11566294797E+04  0.79530851319E+02 0.  0.
         13    1    5    5    0    0  0.11313385639E+03  0.21537454981E+03  0.48709175704E+03  0.54446657009E+03  0.00000000000E+00 0. -1.
        -14    1    5    5    0    0  0.27108922732E+03  0.32783622910E+03  0.73139071136E+03  0.84610775610E+03  0.00000000000E+00 0.  1.
         15    1    3    3    0    0 -0.16588368573E+03 -0.28502006163E+03 -0.17352766336E+03  0.37265109742E+03  0.17770000000E+01 0. -1.
        -16    1    3    3    0    0 -0.25429031464E+03 -0.28768202110E+03 -0.25230003046E+03  0.45943423332E+03  0.00000000000E+00 0.  1.
          2    1    6    6  502    0 -0.24508781509E+02  0.17216391937E+02  0.32341369205E+03  0.32479763042E+03  0.00000000000E+00 0. -1.
         -1    1    6    6    0  502  0.60459698159E+02  0.12274911888E+02  0.82954094347E+03  0.83183184927E+03  0.00000000000E+00 0.  1.
<mgrwt>
<rscale>  0 0.73703418E+03</rscale>
<asrwt>0</asrwt>
<pdfrwt beam="1">  1        1 0.11028306E+00 0.73703418E+03</pdfrwt>
<pdfrwt beam="2">  1       -2 0.40960758E+00 0.73703418E+03</pdfrwt>
<totfact> 0.15911091E-01</totfact>
</mgrwt>
</event>
<event>
12    3  0.1176505E-007  0.1830132E+04  0.7818608E-02  0.8690438E-01
         -2   -1    0    0    0  501 -0.00000000000E+00  0.00000000000E+00  0.23219106967E+04  0.23219106967E+04  0.00000000000E+00 0.  1.
          1   -1    0    0  501    0  0.00000000000E+00 -0.00000000000E+00 -0.14602927485E+04  0.14602927485E+04  0.00000000000E+00 0. -1.
        -24    2    1    2    0    0  0.15193947178E+04 -0.94239389541E+03  0.30134917660E+03  0.18148483036E+04  0.78717700536E+02 0.  0.
    5000000    2    1    2    0    0 -0.15193947178E+04  0.94239389541E+03  0.56026877156E+03  0.19673551416E+04  0.59993215803E+03 0.  0.
        -24    2    4    4    0    0 -0.34632113014E+03 -0.18500124292E+02  0.19622297745E+03  0.40573405919E+03  0.76394306899E+02 0.  0.
         24    2    4    4    0    0 -0.11730735876E+04  0.96089401970E+03  0.36404579411E+03  0.15616210824E+04  0.81927441564E+02 0.  0.
         13    1    5    5    0    0 -0.13027573457E+03 -0.43775780128E+02  0.82223532507E+02  0.16015241253E+03  0.00000000000E+00 0. -1.
        -14    1    5    5    0    0 -0.21604539557E+03  0.25275655835E+02  0.11399944494E+03  0.24558164666E+03  0.00000000000E+00 0.  1.
         15    1    3    3    0    0  0.13392925970E+04 -0.80777673418E+03  0.24577208893E+03  0.15832292917E+04  0.17770000000E+01 0. -1.
        -16    1    3    3    0    0  0.18010212073E+03 -0.13461716122E+03  0.55577087673E+02  0.23161901188E+03  0.00000000000E+00 0.  1.
          4    1    6    6  502    0 -0.24161995041E+03  0.19234310274E+03  0.10811260233E+03  0.32720697485E+03  0.00000000000E+00 0. -1.
         -3    1    6    6    0  502 -0.93145363724E+03  0.76855091696E+03  0.25593319177E+03  0.12344141076E+04  0.00000000000E+00 0.  1.
<mgrwt>
<rscale>  0 0.18301316E+04</rscale>
<asrwt>0</asrwt>
<pdfrwt beam="1">  1        1 0.22466042E+00 0.18301316E+04</pdfrwt>
<pdfrwt beam="2">  1       -2 0.35721703E+00 0.18301316E+04</pdfrwt>
<totfact> 0.77965343E-02</totfact>
</mgrwt>
</event>
<event>
12    3  0.1176505E-007  0.6452211E+03  0.7818608E-02  0.9815788E-01
         -2   -1    0    0    0  501 -0.00000000000E+00  0.00000000000E+00  0.63339347038E+03  0.63339347038E+03  0.00000000000E+00 0.  1.
          1   -1    0    0  501    0  0.00000000000E+00 -0.00000000000E+00 -0.73453438712E+03  0.73453438712E+03  0.00000000000E+00 0. -1.
        -24    2    1    2    0    0 -0.13917452720E+03 -0.52848010828E+03 -0.60852604809E+02  0.55545533103E+03  0.78529048066E+02 0.  0.
    5000000    2    1    2    0    0  0.13917452720E+03  0.52848010828E+03 -0.40288311926E+02  0.81247252647E+03  0.59985638642E+03 0.  0.
        -24    2    4    4    0    0 -0.14804393199E+03  0.37330341361E+03  0.13820548401E+03  0.43203062732E+03  0.79229178494E+02 0.  0.
         24    2    4    4    0    0  0.28721845918E+03  0.15517669467E+03 -0.17849379594E+03  0.38044189915E+03  0.79383585051E+02 0.  0.
         13    1    5    5    0    0 -0.95892675188E+02  0.14181030753E+03  0.71655674904E+02  0.18558045215E+03  0.00000000000E+00 0. -1.
        -14    1    5    5    0    0 -0.52151256800E+02  0.23149310608E+03  0.66549809105E+02  0.24645017517E+03  0.00000000000E+00 0.  1.
         15    1    3    3    0    0 -0.65183063239E+02 -0.11720403793E+03 -0.19565230674E+02  0.13554178035E+03  0.17770000000E+01 0. -1.
        -16    1    3    3    0    0 -0.73991463957E+02 -0.41127607035E+03 -0.41287374136E+02  0.41991355068E+03  0.00000000000E+00 0.  1.
          4    1    6    6  502    0  0.16333707839E+03  0.61049945156E+02 -0.12991901399E+03  0.21745125242E+03  0.00000000000E+00 0. -1.
         -3    1    6    6    0  502  0.12388138079E+03  0.94126749514E+02 -0.48574781944E+02  0.16299064673E+03  0.00000000000E+00 0.  1.
<mgrwt>
<rscale>  0 0.64522111E+03</rscale>
<asrwt>0</asrwt>
<pdfrwt beam="1">  1        1 0.11300529E+00 0.64522111E+03</pdfrwt>
<pdfrwt beam="2">  1       -2 0.97445150E-01 0.64522111E+03</pdfrwt>
<totfact> 0.20069840E+01</totfact>
</mgrwt>
</event>
<event>
12    3  0.1176505E-007  0.6618415E+03  0.7818608E-02  0.9784810E-01
         -2   -1    0    0    0  501 -0.00000000000E+00  0.00000000000E+00  0.22835301153E+03  0.22835301153E+03  0.00000000000E+00 0.  1.
          1   -1    0    0  501    0  0.00000000000E+00 -0.00000000000E+00 -0.19506841333E+04  0.19506841333E+04  0.00000000000E+00 0. -1.
        -24    2    1    2    0    0 -0.41906983064E+03 -0.32097376230E+03 -0.74727311017E+03  0.91845926591E+03  0.80663764466E+02 0.  0.
    5000000    2    1    2    0    0  0.41906983064E+03  0.32097376230E+03 -0.97505801162E+03  0.12605778789E+04  0.59972892526E+03 0.  0.
        -24    2    4    4    0    0  0.48280214635E+03  0.36742256975E+02 -0.55222683471E+03  0.74125322863E+03  0.10026946700E+03 0.  0.
         24    2    4    4    0    0 -0.63732315703E+02  0.28423150533E+03 -0.42283117691E+03  0.51932465031E+03  0.77862260217E+02 0.  0.
         11    1    5    5    0    0  0.47800377084E+03  0.49741231132E+02 -0.53807061782E+03  0.72144423539E+03  0.00000000000E+00 0. -1.
        -12    1    5    5    0    0  0.47983755094E+01 -0.12998974157E+02 -0.14156216892E+02  0.19808993244E+02  0.00000000000E+00 0.  1.
         15    1    3    3    0    0 -0.36788955877E+03 -0.28791273840E+03 -0.69893350622E+03  0.84068286305E+03  0.17770000000E+01 0. -1.
        -16    1    3    3    0    0 -0.51180271873E+02 -0.33061023900E+02 -0.48339603957E+02  0.77776402855E+02  0.00000000000E+00 0.  1.
          2    1    6    6  502    0 -0.64615142139E+02  0.28908465784E+03 -0.41210990053E+03  0.50752303013E+03  0.00000000000E+00 0. -1.
         -1    1    6    6    0  502  0.88282643617E+00 -0.48531525106E+01 -0.10721276372E+02  0.11801620179E+02  0.00000000000E+00 0.  1.
<mgrwt>
<rscale>  0 0.66184151E+03</rscale>
<asrwt>0</asrwt>
<pdfrwt beam="1">  1        1 0.30010527E+00 0.66184151E+03</pdfrwt>
<pdfrwt beam="2">  1       -2 0.35131231E-01 0.66184151E+03</pdfrwt>
<totfact> 0.22555056E+01</totfact>
</mgrwt>
</event>
<event>
12    3  0.1176505E-007  0.1450651E+04  0.7818608E-02  0.8917949E-01
          1   -1    0    0  501    0  0.00000000000E+00  0.00000000000E+00  0.38772874458E+04  0.38772874458E+04  0.00000000000E+00 0. -1.
         -2   -1    0    0    0  501 -0.00000000000E+00 -0.00000000000E+00 -0.69109283003E+03  0.69109283003E+03  0.00000000000E+00 0.  1.
        -24    2    1    2    0    0 -0.45469040016E+03 -0.13688131566E+04  0.63741900355E+03  0.15789552447E+04  0.80024127702E+02 0.  0.
    5000000    2    1    2    0    0  0.45469040016E+03  0.13688131566E+04  0.25487756122E+04  0.29894250312E+04  0.60001006467E+03 0.  0.
        -24    2    4    4    0    0  0.21949247731E+02  0.22370517366E+03  0.92150448178E+03  0.95187138078E+03  0.79767420644E+02 0.  0.
         24    2    4    4    0    0  0.43274115243E+03  0.11451079829E+04  0.16272711305E+04  0.20375536504E+04  0.71248498820E+02 0.  0.
         11    1    5    5    0    0 -0.21798748917E+02  0.87439887857E+02  0.45774793974E+03  0.46653413142E+03  0.00000000000E+00 0. -1.
        -12    1    5    5    0    0  0.43747996648E+02  0.13626528580E+03  0.46375654204E+03  0.48533724935E+03  0.00000000000E+00 0.  1.
         15    1    3    3    0    0 -0.13587023173E+03 -0.49549997112E+03  0.19763321160E+03  0.55049340170E+03  0.17770000000E+01 0. -1.
        -16    1    3    3    0    0 -0.31882016843E+03 -0.87331318547E+03  0.43978579195E+03  0.10284618430E+04  0.00000000000E+00 0.  1.
          4    1    6    6  502    0  0.10010911105E+03  0.30574023502E+03  0.47480110677E+03  0.57352856635E+03  0.00000000000E+00 0. -1.
         -3    1    6    6    0  502  0.33263204139E+03  0.83936774791E+03  0.11524700237E+04  0.14640250840E+04  0.00000000000E+00 0.  1.
<mgrwt>
<rscale>  0 0.14506510E+04</rscale>
<asrwt>0</asrwt>
<pdfrwt beam="1">  1        1 0.59650575E+00 0.14506510E+04</pdfrwt>
<pdfrwt beam="2">  1       -2 0.10632198E+00 0.14506510E+04</pdfrwt>
<totfact> 0.74513193E-02</totfact>
</mgrwt>
</event>
<event>
12    3  0.1176505E-007  0.1744568E+04  0.7818608E-02  0.8736346E-01
         -2   -1    0    0    0  501 -0.00000000000E+00  0.00000000000E+00  0.13412833056E+04  0.13412833056E+04  0.00000000000E+00 0.  1.
          1   -1    0    0  501    0  0.00000000000E+00 -0.00000000000E+00 -0.23905062800E+04  0.23905062800E+04  0.00000000000E+00 0. -1.
        -24    2    1    2    0    0 -0.17019037983E+04  0.31933802054E+03 -0.68172867455E+03  0.18627289595E+04  0.80943689313E+02 0.  0.
    5000000    2    1    2    0    0  0.17019037983E+04 -0.31933802054E+03 -0.36749429983E+03  0.18690606261E+04  0.59990187017E+03 0.  0.
        -24    2    4    4    0    0  0.11753019616E+04 -0.35070338966E+03 -0.48794387639E+03  0.13223950412E+04  0.79447151711E+02 0.  0.
         24    2    4    4    0    0  0.52660183665E+03  0.31365369126E+02  0.12044957656E+03  0.54666558496E+03  0.77729534530E+02 0.  0.
         11    1    5    5    0    0  0.10752012114E+04 -0.33674354453E+03 -0.43051898039E+03  0.12061510902E+04  0.00000000000E+00 0. -1.
        -12    1    5    5    0    0  0.10010075016E+03 -0.13959845133E+02 -0.57424896006E+02  0.11624395099E+03  0.00000000000E+00 0.  1.
         15    1    3    3    0    0 -0.17598143692E+03  0.39246873191E+02 -0.97251789144E+02  0.20486788772E+03  0.17770000000E+01 0. -1.
        -16    1    3    3    0    0 -0.15259223613E+04  0.28009114735E+03 -0.58447688541E+03  0.16578610718E+04  0.00000000000E+00 0.  1.
          4    1    6    6  502    0  0.23874922204E+03 -0.92829949173E+01  0.22889756032E+02  0.24002355290E+03  0.00000000000E+00 0. -1.
         -3    1    6    6    0  502  0.28785261462E+03  0.40648364043E+02  0.97559820529E+02  0.30664203206E+03  0.00000000000E+00 0.  1.
<mgrwt>
<rscale>  0 0.17445685E+04</rscale>
<asrwt>0</asrwt>
<pdfrwt beam="1">  1        1 0.36777020E+00 0.17445685E+04</pdfrwt>
<pdfrwt beam="2">  1       -2 0.20635128E+00 0.17445685E+04</pdfrwt>
<totfact> 0.15680728E-01</totfact>
</mgrwt>
</event>
<event>
12    3  0.1176505E-007  0.3117238E+03  0.7818608E-02  0.1079523E+00
         -2   -1    0    0    0  501 -0.00000000000E+00  0.00000000000E+00  0.12536899778E+03  0.12536899778E+03  0.00000000000E+00 0.  1.
          1   -1    0    0  501    0  0.00000000000E+00 -0.00000000000E+00 -0.18049426254E+04  0.18049426254E+04  0.00000000000E+00 0. -1.
        -24    2    1    2    0    0  0.66318286672E+02  0.24624205402E+03 -0.74035734845E+03  0.78701309583E+03  0.78913530409E+02 0.  0.
    5000000    2    1    2    0    0 -0.66318286672E+02 -0.24624205402E+03 -0.93921627913E+03  0.11432985273E+04  0.59997586556E+03 0.  0.
        -24    2    4    4    0    0 -0.16310506424E+02 -0.29072550355E+03 -0.98574544118E+03  0.10292723088E+04  0.54037578073E+02 0.  0.
         24    2    4    4    0    0 -0.50007780248E+02  0.44483449525E+02  0.46529162047E+02  0.11402621850E+03  0.79733683087E+02 0.  0.
         13    1    5    5    0    0 -0.21618918040E+02 -0.27041556984E+03 -0.85953879315E+03  0.90133173414E+03  0.00000000000E+00 0. -1.
        -14    1    5    5    0    0  0.53084116165E+01 -0.20309933701E+02 -0.12620664803E+03  0.12794057467E+03  0.00000000000E+00 0.  1.
         15    1    3    3    0    0 -0.91451612063E+01  0.92049462677E+02 -0.31544413402E+03  0.32873225727E+03  0.17770000000E+01 0. -1.
        -16    1    3    3    0    0  0.75463447878E+02  0.15419259134E+03 -0.42491321443E+03  0.45828083856E+03  0.00000000000E+00 0.  1.
          2    1    6    6  502    0 -0.27806361128E+02  0.26598648743E+02 -0.18741516716E+02  0.42801007967E+02  0.00000000000E+00 0. -1.
         -3    1    6    6    0  502 -0.22201419119E+02  0.17884800782E+02  0.65270678763E+02  0.71225210537E+02  0.00000000000E+00 0.  1.
<mgrwt>
<rscale>  0 0.31172378E+03</rscale>
<asrwt>0</asrwt>
<pdfrwt beam="1">  1        1 0.27768345E+00 0.31172378E+03</pdfrwt>
<pdfrwt beam="2">  1       -2 0.19287541E-01 0.31172378E+03</pdfrwt>
<totfact> 0.88513735E+01</totfact>
</mgrwt>
</event>
<event>
12    3  0.1176505E-007  0.7244156E+03  0.7818608E-02  0.9676366E-01
         -2   -1    0    0    0  501 -0.00000000000E+00  0.00000000000E+00  0.29501093667E+03  0.29501093667E+03  0.00000000000E+00 0.  1.
          1   -1    0    0  501    0  0.00000000000E+00 -0.00000000000E+00 -0.26113513232E+04  0.26113513232E+04  0.00000000000E+00 0. -1.
        -24    2    1    2    0    0 -0.64759140330E+03  0.24996507871E+03 -0.15877022035E+04  0.17347035371E+04  0.80875882461E+02 0.  0.
    5000000    2    1    2    0    0  0.64759140330E+03 -0.24996507871E+03 -0.72863818306E+03  0.11716587228E+04  0.60001116220E+03 0.  0.
        -24    2    4    4    0    0  0.60718102105E+03 -0.12859854729E+03 -0.25647836851E+03  0.67624321741E+03  0.79481802256E+02 0.  0.
         24    2    4    4    0    0  0.40410382245E+02 -0.12136653142E+03 -0.47215981455E+03  0.49541550541E+03  0.78350485550E+02 0.  0.
         13    1    5    5    0    0  0.10564996558E+03 -0.16641576806E+02 -0.77545111010E+02  0.13210640237E+03  0.00000000000E+00 0. -1.
        -14    1    5    5    0    0  0.50153105548E+03 -0.11195697048E+03 -0.17893325750E+03  0.54413681504E+03  0.00000000000E+00 0.  1.
         15    1    3    3    0    0 -0.14008770657E+03  0.57626738625E+02 -0.43504712601E+03  0.46066752231E+03  0.17770000000E+01 0. -1.
        -16    1    3    3    0    0 -0.50750369673E+03  0.19233834008E+03 -0.11526550775E+04  0.12740360148E+04  0.00000000000E+00 0.  1.
          2    1    6    6  502    0  0.40107489664E+02 -0.58548729762E+02 -0.13565558915E+03  0.15309801877E+03  0.00000000000E+00 0. -1.
         -1    1    6    6    0  502  0.30289258119E+00 -0.62817801660E+02 -0.33650422540E+03  0.34231748665E+03  0.00000000000E+00 0.  1.
<mgrwt>
<rscale>  0 0.72441564E+03</rscale>
<asrwt>0</asrwt>
<pdfrwt beam="1">  1        1 0.40174634E+00 0.72441564E+03</pdfrwt>
<pdfrwt beam="2">  1       -2 0.45386299E-01 0.72441564E+03</pdfrwt>
<totfact> 0.48619808E+00</totfact>
</mgrwt>
</event>
<event>
12    3  0.1176505E-007  0.1275018E+04  0.7818608E-02  0.9049614E-01
          1   -1    0    0  501    0  0.00000000000E+00  0.00000000000E+00  0.12418269224E+04  0.12418269224E+04  0.00000000000E+00 0. -1.
         -2   -1    0    0    0  501 -0.00000000000E+00 -0.00000000000E+00 -0.16443311108E+04  0.16443311108E+04  0.00000000000E+00 0.  1.
        -24    2    1    2    0    0 -0.84120817070E+03  0.86403922591E+03 -0.83817034765E+03  0.14706401025E+04  0.77831928449E+02 0.  0.
    5000000    2    1    2    0    0  0.84120817070E+03 -0.86403922591E+03  0.43566615932E+03  0.14155179307E+04  0.59974247747E+03 0.  0.
        -24    2    4    4    0    0  0.35568595413E+03 -0.76635327655E+03  0.29132799266E+03  0.89729809306E+03  0.80386728054E+02 0.  0.
         24    2    4    4    0    0  0.48552221657E+03 -0.97685949358E+02  0.14433816666E+03  0.51821983760E+03  0.49436082455E+02 0.  0.
         11    1    5    5    0    0  0.93544757282E+02 -0.27769761619E+03  0.12285344459E+03  0.31774133584E+03  0.00000000000E+00 0. -1.
        -12    1    5    5    0    0  0.26214119685E+03 -0.48865566036E+03  0.16847454806E+03  0.57955675722E+03  0.00000000000E+00 0.  1.
         15    1    3    3    0    0 -0.38994140390E+03  0.44029082222E+03 -0.44154123939E+03  0.73544009302E+03  0.17770000000E+01 0. -1.
        -16    1    3    3    0    0 -0.45126676680E+03  0.42374840369E+03 -0.39662910825E+03  0.73520000950E+03  0.00000000000E+00 0.  1.
          4    1    6    6  502    0  0.69656307754E+02 -0.11580642916E+02  0.31629100355E+01  0.70683212294E+02  0.00000000000E+00 0. -1.
         -3    1    6    6    0  502  0.41586590881E+03 -0.86105306441E+02  0.14117525662E+03  0.44753662531E+03  0.00000000000E+00 0.  1.
<mgrwt>
<rscale>  0 0.12750185E+04</rscale>
<asrwt>0</asrwt>
<pdfrwt beam="1">  1        1 0.19105030E+00 0.12750185E+04</pdfrwt>
<pdfrwt beam="2">  1       -2 0.25297402E+00 0.12750185E+04</pdfrwt>
<totfact> 0.52063983E-01</totfact>
</mgrwt>
</event>
<event>
12    3  0.1176505E-007  0.1160384E+04  0.7818608E-02  0.9148257E-01
         -2   -1    0    0    0  501 -0.00000000000E+00  0.00000000000E+00  0.78185180776E+03  0.78185180776E+03  0.00000000000E+00 0.  1.
          1   -1    0    0  501    0  0.00000000000E+00 -0.00000000000E+00 -0.20417729075E+04  0.20417729075E+04  0.00000000000E+00 0. -1.
        -24    2    1    2    0    0 -0.10953430024E+04  0.29881445656E+03 -0.99684039963E+03  0.15128970235E+04  0.78104091269E+02 0.  0.
    5000000    2    1    2    0    0  0.10953430024E+04 -0.29881445656E+03 -0.26308070008E+03  0.13107276917E+04  0.59977433662E+03 0.  0.
        -24    2    4    4    0    0  0.45537661748E+03 -0.28830421711E+03  0.12337453602E+03  0.55864911161E+03  0.79877208334E+02 0.  0.
         24    2    4    4    0    0  0.63996638488E+03 -0.10510239450E+02 -0.38645523610E+03  0.75207858013E+03  0.81284083755E+02 0.  0.
         11    1    5    5    0    0  0.14803439522E+03 -0.13865860455E+03  0.53026992425E+02  0.20964792560E+03  0.00000000000E+00 0. -1.
        -12    1    5    5    0    0  0.30734222226E+03 -0.14964561256E+03  0.70347543593E+02  0.34900118600E+03  0.00000000000E+00 0.  1.
         15    1    3    3    0    0 -0.67065657901E+03  0.16378192341E+03 -0.56109969060E+03  0.88962957793E+03  0.17770000000E+01 0. -1.
        -16    1    3    3    0    0 -0.42468642335E+03  0.13503253315E+03 -0.43574070902E+03  0.62326744555E+03  0.00000000000E+00 0.  1.
          4    1    6    6  502    0  0.12463384693E+03 -0.49415903723E+01 -0.11471532949E+03  0.16946274498E+03  0.00000000000E+00 0. -1.
         -3    1    6    6    0  502  0.51533253796E+03 -0.55686490782E+01 -0.27173990661E+03  0.58261583515E+03  0.00000000000E+00 0.  1.
<mgrwt>
<rscale>  0 0.11603840E+04</rscale>
<asrwt>0</asrwt>
<pdfrwt beam="1">  1        1 0.31411890E+00 0.11603840E+04</pdfrwt>
<pdfrwt beam="2">  1       -2 0.12028490E+00 0.11603840E+04</pdfrwt>
<totfact> 0.12736088E+00</totfact>
</mgrwt>
</event>
<event>
12    3  0.1176505E-007  0.4580151E+03  0.7818608E-02  0.1025358E+00
         -2   -1    0    0    0  501 -0.00000000000E+00  0.00000000000E+00  0.12409313465E+04  0.12409313465E+04  0.00000000000E+00 0.  1.
          1   -1    0    0  501    0  0.00000000000E+00 -0.00000000000E+00 -0.20002847643E+03  0.20002847643E+03  0.00000000000E+00 0. -1.
        -24    2    1    2    0    0  0.12635713847E+03 -0.24940558952E+03  0.53035038049E+03  0.60479376843E+03  0.79590839403E+02 0.  0.
    5000000    2    1    2    0    0 -0.12635713847E+03  0.24940558952E+03  0.51055248961E+03  0.83616605453E+03  0.60028372589E+03 0.  0.
        -24    2    4    4    0    0  0.25245370810E+02 -0.17038250853E+03  0.67652826118E+02  0.20239492510E+03  0.81971170932E+02 0.  0.
         24    2    4    4    0    0 -0.15160250928E+03  0.41978809805E+03  0.44289966350E+03  0.63377112943E+03  0.79374835318E+02 0.  0.
         13    1    5    5    0    0  0.10780143206E+02 -0.11196105386E+03  0.83585944601E+02  0.14013600252E+03  0.00000000000E+00 0. -1.
        -14    1    5    5    0    0  0.14465227604E+02 -0.58421454676E+02 -0.15933118483E+02  0.62258922579E+02  0.00000000000E+00 0.  1.
         15    1    3    3    0    0  0.54020782664E+02 -0.18775022934E+03  0.34430626237E+03  0.39587668991E+03  0.17770000000E+01 0. -1.
        -16    1    3    3    0    0  0.72336355807E+02 -0.61655360186E+02  0.18604411812E+03  0.20891707852E+03  0.00000000000E+00 0.  1.
          2    1    6    6  502    0 -0.25927543667E+02  0.18340509968E+03  0.19401370460E+03  0.26823680896E+03  0.00000000000E+00 0. -1.
         -1    1    6    6    0  502 -0.12567496561E+03  0.23638299838E+03  0.24888595890E+03  0.36553432047E+03  0.00000000000E+00 0.  1.
<mgrwt>
<rscale>  0 0.45801509E+03</rscale>
<asrwt>0</asrwt>
<pdfrwt beam="1">  1        1 0.30773613E-01 0.45801509E+03</pdfrwt>
<pdfrwt beam="2">  1       -2 0.19091251E+00 0.45801509E+03</pdfrwt>
<totfact> 0.20781651E+01</totfact>
</mgrwt>
</event>
<event>
12    3  0.1225796E-007  0.1231883E+04  0.7818608E-02  0.9085399E-01
          1   -1    0    0  501    0  0.00000000000E+00  0.00000000000E+00  0.83451102812E+03  0.83451102812E+03  0.00000000000E+00 0. -1.
         -2   -1    0    0    0  501 -0.00000000000E+00 -0.00000000000E+00 -0.18807543186E+04  0.18807543186E+04  0.00000000000E+00 0.  1.
        -24    2    1    2    0    0 -0.16248273237E+03  0.11652913565E+04 -0.40217752296E+03  0.12458940359E+04  0.78743918892E+02 0.  0.
    5000000    2    1    2    0    0  0.16248273237E+03 -0.11652913565E+04 -0.64406576755E+03  0.14693713109E+04  0.59993895734E+03 0.  0.
        -24    2    4    4    0    0  0.10565103849E+03 -0.12080910442E+04 -0.62925258787E+03  0.13685694735E+04  0.79859073692E+02 0.  0.
         24    2    4    4    0    0  0.56831693873E+02  0.42799687674E+02 -0.14813179681E+02  0.10080183736E+03  0.69856463040E+02 0.  0.
         11    1    5    5    0    0  0.51546870259E+02 -0.45773778135E+03 -0.28096104979E+03  0.53955543534E+03  0.00000000000E+00 0. -1.
        -12    1    5    5    0    0  0.54104168236E+02 -0.75035326282E+03 -0.34829153808E+03  0.82901403821E+03  0.00000000000E+00 0.  1.
         15    1    3    3    0    0 -0.10216091232E+03  0.48321634105E+03 -0.18748343446E+03  0.52828787625E+03  0.17770000000E+01 0. -1.
        -16    1    3    3    0    0 -0.60321820043E+02  0.68207501544E+03 -0.21469408850E+03  0.71760615961E+03  0.00000000000E+00 0.  1.
          4    1    6    6  502    0  0.11702323453E+02  0.15603877264E+02 -0.38402716302E+02  0.43071962798E+02  0.00000000000E+00 0. -1.
         -3    1    6    6    0  502  0.45129370420E+02  0.27195810410E+02  0.23589536622E+02  0.57729874557E+02  0.00000000000E+00 0.  1.
<mgrwt>
<rscale>  0 0.12318826E+04</rscale>
<asrwt>0</asrwt>
<pdfrwt beam="1">  1        1 0.12838631E+00 0.12318826E+04</pdfrwt>
<pdfrwt beam="2">  1       -2 0.28934681E+00 0.12318826E+04</pdfrwt>
<totfact> 0.65351458E-01</totfact>
</mgrwt>
</event>
<event>
12    3  0.1176505E-007  0.5863861E+03  0.7818608E-02  0.9934060E-01
         -2   -1    0    0    0  501 -0.00000000000E+00  0.00000000000E+00  0.55125455386E+03  0.55125455386E+03  0.00000000000E+00 0.  1.
          1   -1    0    0  501    0  0.00000000000E+00 -0.00000000000E+00 -0.14350123329E+04  0.14350123329E+04  0.00000000000E+00 0. -1.
        -24    2    1    2    0    0 -0.47569602503E+03  0.42366523343E+02  0.30433126037E+03  0.57210473620E+03  0.81269198397E+02 0.  0.
    5000000    2    1    2    0    0  0.47569602503E+03 -0.42366523343E+02 -0.11880890395E+04  0.14141621506E+04  0.60018113268E+03 0.  0.
        -24    2    4    4    0    0  0.12960923048E+02  0.17017665908E+03 -0.10826636573E+03  0.21759889554E+03  0.80620050672E+02 0.  0.
         24    2    4    4    0    0  0.46273510198E+03 -0.21254318242E+03 -0.10798226737E+04  0.11965632551E+04  0.80300919733E+02 0.  0.
         13    1    5    5    0    0  0.23395033811E+02  0.68804499112E+02 -0.87241361084E+02  0.11354488887E+03  0.00000000000E+00 0. -1.
        -14    1    5    5    0    0 -0.10434110762E+02  0.10137215996E+03 -0.21025004650E+02  0.10405400667E+03  0.00000000000E+00 0.  1.
         15    1    3    3    0    0 -0.11517781519E+03 -0.24519472999E+02  0.73312872034E+02  0.13872659659E+03  0.17770000000E+01 0. -1.
        -16    1    3    3    0    0 -0.36051820984E+03  0.66885996342E+02  0.23101838834E+03  0.43337813960E+03  0.00000000000E+00 0.  1.
          2    1    6    6  502    0  0.28604966063E+03 -0.94484503156E+02 -0.68117066713E+03  0.74481219608E+03  0.00000000000E+00 0. -1.
         -1    1    6    6    0  502  0.17668544135E+03 -0.11805867926E+03 -0.39865200659E+03  0.45175105899E+03  0.00000000000E+00 0.  1.
<mgrwt>
<rscale>  0 0.58638607E+03</rscale>
<asrwt>0</asrwt>
<pdfrwt beam="1">  1        1 0.22077113E+00 0.58638607E+03</pdfrwt>
<pdfrwt beam="2">  1       -2 0.84808393E-01 0.58638607E+03</pdfrwt>
<totfact> 0.81619197E+00</totfact>
</mgrwt>
</event>
<event>
12    3  0.1176505E-007  0.1233973E+04  0.7818608E-02  0.9083629E-01
         -2   -1    0    0    0  501 -0.00000000000E+00  0.00000000000E+00  0.18323838466E+04  0.18323838466E+04  0.00000000000E+00 0.  1.
          1   -1    0    0  501    0  0.00000000000E+00 -0.00000000000E+00 -0.19122279268E+04  0.19122279268E+04  0.00000000000E+00 0. -1.
        -24    2    1    2    0    0 -0.45260546225E+03 -0.11080704401E+04  0.13362710877E+04  0.17956880892E+04  0.78762231912E+02 0.  0.
    5000000    2    1    2    0    0  0.45260546225E+03  0.11080704401E+04 -0.14161151678E+04  0.19489236842E+04  0.60020792536E+03 0.  0.
        -24    2    4    4    0    0  0.18407988296E+03  0.91189635638E+02 -0.51979088606E+03  0.56477680245E+03  0.81174616682E+02 0.  0.
         24    2    4    4    0    0  0.26852557929E+03  0.10168808045E+04 -0.89632428174E+03  0.13841468817E+04  0.79453225245E+02 0.  0.
         11    1    5    5    0    0  0.66212131896E+02  0.68750184928E+02 -0.29370055935E+03  0.30882139320E+03  0.00000000000E+00 0. -1.
        -12    1    5    5    0    0  0.11786775107E+03  0.22439450711E+02 -0.22609032671E+03  0.25595540925E+03  0.00000000000E+00 0.  1.
         15    1    3    3    0    0 -0.34271572009E+03 -0.74757972730E+03  0.93389188228E+03  0.12443820631E+04  0.17770000000E+01 0. -1.
        -16    1    3    3    0    0 -0.10988974216E+03 -0.36049071279E+03  0.40237920540E+03  0.55130602607E+03  0.00000000000E+00 0.  1.
          2    1    6    6  502    0  0.20261348798E+02  0.34746972787E+02 -0.49585443625E+02  0.63848183940E+02  0.00000000000E+00 0. -1.
         -1    1    6    6    0  502  0.24826423049E+03  0.98213383167E+03 -0.84673883812E+03  0.13202986978E+04  0.00000000000E+00 0.  1.
<mgrwt>
<rscale>  0 0.12339728E+04</rscale>
<asrwt>0</asrwt>
<pdfrwt beam="1">  1        1 0.29418891E+00 0.12339728E+04</pdfrwt>
<pdfrwt beam="2">  1       -2 0.28190521E+00 0.12339728E+04</pdfrwt>
<totfact> 0.11973882E-01</totfact>
</mgrwt>
</event>
<event>
12    3  0.1176505E-007  0.3719047E+03  0.7818608E-02  0.1053967E+00
         -2   -1    0    0    0  501 -0.00000000000E+00  0.00000000000E+00  0.68092718492E+03  0.68092718492E+03  0.00000000000E+00 0.  1.
          1   -1    0    0  501    0  0.00000000000E+00 -0.00000000000E+00 -0.49798910514E+03  0.49798910514E+03  0.00000000000E+00 0. -1.
        -24    2    1    2    0    0 -0.14938403923E+03  0.31149059960E+03  0.31487726013E+03  0.47407487692E+03  0.79103193085E+02 0.  0.
    5000000    2    1    2    0    0  0.14938403923E+03 -0.31149059960E+03 -0.13193918036E+03  0.70484141314E+03  0.60004290309E+03 0.  0.
        -24    2    4    4    0    0  0.40309060833E+02 -0.33896886980E+02  0.21777374958E+03  0.23785640734E+03  0.79852646639E+02 0.  0.
         24    2    4    4    0    0  0.10907497839E+03 -0.27759371262E+03 -0.34971292993E+03  0.46698500580E+03  0.82584756937E+02 0.  0.
         11    1    5    5    0    0  0.11567886324E+02 -0.52609727389E+02  0.17458825955E+03  0.18270922194E+03  0.00000000000E+00 0. -1.
        -12    1    5    5    0    0  0.28741174509E+02  0.18712840410E+02  0.43185490030E+02  0.55147185400E+02  0.00000000000E+00 0.  1.
         15    1    3    3    0    0 -0.13722733897E+03  0.20205303443E+03  0.21392364685E+03  0.32468947579E+03  0.17770000000E+01 0. -1.
        -16    1    3    3    0    0 -0.12156700259E+02  0.10943756518E+03  0.10095361329E+03  0.14938540112E+03  0.00000000000E+00 0.  1.
          4    1    6    6  502    0  0.59291113003E+02 -0.20392249913E+03 -0.19381591097E+03  0.28751422413E+03  0.00000000000E+00 0. -1.
         -3    1    6    6    0  502  0.49783865391E+02 -0.73671213495E+02 -0.15589701896E+03  0.17947078167E+03  0.00000000000E+00 0.  1.
<mgrwt>
<rscale>  0 0.37190468E+03</rscale>
<asrwt>0</asrwt>
<pdfrwt beam="1">  1        1 0.76613709E-01 0.37190468E+03</pdfrwt>
<pdfrwt beam="2">  1       -2 0.10475803E+00 0.37190468E+03</pdfrwt>
<totfact> 0.30550385E+01</totfact>
</mgrwt>
</event>
<event>
12    3  0.1176505E-007  0.1183922E+04  0.7818608E-02  0.9127047E-01
          1   -1    0    0  501    0  0.00000000000E+00  0.00000000000E+00  0.35296535414E+04  0.35296535414E+04  0.00000000000E+00 0. -1.
         -2   -1    0    0    0  501 -0.00000000000E+00 -0.00000000000E+00 -0.17402725406E+04  0.17402725406E+04  0.00000000000E+00 0.  1.
        -24    2    1    2    0    0  0.83793912906E+03 -0.80500526089E+03 -0.14010330415E+04  0.18218845522E+04  0.78703773795E+02 0.  0.
    5000000    2    1    2    0    0 -0.83793912906E+03  0.80500526089E+03  0.31904140424E+04  0.34480415298E+04  0.60006097630E+03 0.  0.
        -24    2    4    4    0    0 -0.55327978629E+03  0.70706740486E+03  0.28384631729E+04  0.29781293734E+04  0.79489268473E+02 0.  0.
         24    2    4    4    0    0 -0.28465934276E+03  0.97937856033E+02  0.35195086951E+03  0.46991215643E+03  0.79531472664E+02 0.  0.
         11    1    5    5    0    0 -0.42925649602E+03  0.59302372548E+03  0.22582956588E+04  0.23739919041E+04  0.00000000000E+00 0. -1.
        -12    1    5    5    0    0 -0.12402329028E+03  0.11404367938E+03  0.58016751412E+03  0.60413746927E+03  0.00000000000E+00 0.  1.
         15    1    3    3    0    0  0.43878081574E+03 -0.45896271719E+03 -0.72021083607E+03  0.96014696071E+03  0.17770000000E+01 0. -1.
        -16    1    3    3    0    0  0.39915831332E+03 -0.34604254370E+03 -0.68082220545E+03  0.86173759149E+03  0.00000000000E+00 0.  1.
          2    1    6    6  502    0 -0.28279831583E+03  0.91335143717E+02  0.35450566491E+03  0.46259189613E+03  0.00000000000E+00 0. -1.
         -1    1    6    6    0  502 -0.18610269354E+01  0.66027123166E+01 -0.25547954065E+01  0.73202602931E+01  0.00000000000E+00 0.  1.
<mgrwt>
<rscale>  0 0.11839216E+04</rscale>
<asrwt>0</asrwt>
<pdfrwt beam="1">  1        1 0.54302362E+00 0.11839216E+04</pdfrwt>
<pdfrwt beam="2">  1       -2 0.26773424E+00 0.11839216E+04</pdfrwt>
<totfact> 0.10392450E-02</totfact>
</mgrwt>
</event>
<event>
12    3  0.1176505E-007  0.1441848E+04  0.7818608E-02  0.8924072E-01
         -2   -1    0    0    0  501 -0.00000000000E+00  0.00000000000E+00  0.12392613507E+04  0.12392613507E+04  0.00000000000E+00 0.  1.
          1   -1    0    0  501    0  0.00000000000E+00 -0.00000000000E+00 -0.18738436833E+04  0.18738436833E+04  0.00000000000E+00 0. -1.
        -24    2    1    2    0    0  0.51057027630E+03 -0.13434464479E+04 -0.58816444051E+03  0.15549921452E+04  0.80825720057E+02 0.  0.
    5000000    2    1    2    0    0 -0.51057027630E+03  0.13434464479E+04 -0.46417892076E+02  0.15581128888E+04  0.60002565626E+03 0.  0.
        -24    2    4    4    0    0 -0.39161096929E+03  0.10632085513E+04 -0.27572411380E+03  0.11686859987E+04  0.77663386866E+02 0.  0.
         24    2    4    4    0    0 -0.11895930701E+03  0.28023789657E+03  0.22930622173E+03  0.38942689015E+03  0.79920986279E+02 0.  0.
         13    1    5    5    0    0 -0.30558749439E+03  0.73540556597E+03 -0.20796421196E+03  0.82307604548E+03  0.00000000000E+00 0. -1.
        -14    1    5    5    0    0 -0.86023474899E+02  0.32780298534E+03 -0.67759901844E+02  0.34560995317E+03  0.00000000000E+00 0.  1.
         15    1    3    3    0    0  0.38853624147E+03 -0.99842427732E+03 -0.40106194236E+03  0.11439690939E+04  0.17770000000E+01 0. -1.
        -16    1    3    3    0    0  0.12203403483E+03 -0.34502217057E+03 -0.18710249816E+03  0.41102305125E+03  0.00000000000E+00 0.  1.
          2    1    6    6  502    0 -0.11576784339E+03  0.20223227101E+03  0.19621846895E+03  0.30463383357E+03  0.00000000000E+00 0. -1.
         -1    1    6    6    0  502 -0.31914636186E+01  0.78005625561E+02  0.33087752782E+02  0.84793056575E+02  0.00000000000E+00 0.  1.
<mgrwt>
<rscale>  0 0.14418481E+04</rscale>
<asrwt>0</asrwt>
<pdfrwt beam="1">  1        1 0.28828364E+00 0.14418481E+04</pdfrwt>
<pdfrwt beam="2">  1       -2 0.19065559E+00 0.14418481E+04</pdfrwt>
<totfact> 0.46321781E-01</totfact>
</mgrwt>
</event>
<event>
12    3  0.1176505E-007  0.8341666E+03  0.7818608E-02  0.9511838E-01
          1   -1    0    0  501    0  0.00000000000E+00  0.00000000000E+00  0.58745477454E+03  0.58745477454E+03  0.00000000000E+00 0. -1.
         -2   -1    0    0    0  501 -0.00000000000E+00 -0.00000000000E+00 -0.12657612762E+04  0.12657612762E+04  0.00000000000E+00 0.  1.
        -24    2    1    2    0    0  0.21122895050E+03 -0.72530854550E+03 -0.32329733412E+03  0.82560388760E+03  0.80065331237E+02 0.  0.
    5000000    2    1    2    0    0 -0.21122895050E+03  0.72530854550E+03 -0.35500916755E+03  0.10276121632E+04  0.59938726473E+03 0.  0.
        -24    2    4    4    0    0  0.87961888515E+02  0.54166929551E+03 -0.37071137720E+03  0.66704875716E+03  0.79901187218E+02 0.  0.
         24    2    4    4    0    0 -0.29919083901E+03  0.18363924999E+03  0.15702209645E+02  0.36056340600E+03  0.80751953961E+02 0.  0.
         13    1    5    5    0    0  0.50729030068E+02  0.14641057413E+03 -0.13381076549E+03  0.20473107158E+03  0.00000000000E+00 0. -1.
        -14    1    5    5    0    0  0.37232858448E+02  0.39525872138E+03 -0.23690061170E+03  0.46231768558E+03  0.00000000000E+00 0.  1.
         15    1    3    3    0    0  0.55204558781E+02 -0.28791129229E+03 -0.15532508025E+03  0.33176722837E+03  0.17770000000E+01 0. -1.
        -16    1    3    3    0    0  0.15602439172E+03 -0.43739725322E+03 -0.16797225388E+03  0.49383665924E+03  0.00000000000E+00 0.  1.
          4    1    6    6  502    0 -0.16427254047E+03  0.57284266361E+02 -0.82568317880E+01  0.17416983090E+03  0.00000000000E+00 0. -1.
         -3    1    6    6    0  502 -0.13491829854E+03  0.12635498363E+03  0.23959041433E+02  0.18639357510E+03  0.00000000000E+00 0.  1.
<mgrwt>
<rscale>  0 0.83416661E+03</rscale>
<asrwt>0</asrwt>
<pdfrwt beam="1">  1        1 0.90377659E-01 0.83416661E+03</pdfrwt>
<pdfrwt beam="2">  1       -2 0.19473250E+00 0.83416661E+03</pdfrwt>
<totfact> 0.45221874E+00</totfact>
</mgrwt>
</event>
<event>
12    3  0.1176505E-007  0.4430865E+03  0.7818608E-02  0.1029804E+00
          1   -1    0    0  501    0  0.00000000000E+00  0.00000000000E+00  0.17431681186E+04  0.17431681186E+04  0.00000000000E+00 0. -1.
         -2   -1    0    0    0  501 -0.00000000000E+00 -0.00000000000E+00 -0.27232363977E+03  0.27232363977E+03  0.00000000000E+00 0.  1.
        -24    2    1    2    0    0  0.30899523426E+03 -0.27072290499E+02 -0.75081330625E+02  0.32834921507E+03  0.77233652776E+02 0.  0.
    5000000    2    1    2    0    0 -0.30899523426E+03  0.27072290499E+02  0.15459258094E+04  0.16871425433E+04  0.60029358598E+03 0.  0.
        -24    2    4    4    0    0 -0.10257627235E+03  0.24258069159E+03  0.31666801042E+03  0.41966401593E+03  0.80448578976E+02 0.  0.
         24    2    4    4    0    0 -0.20641896191E+03 -0.21550840109E+03  0.12292577990E+04  0.12674785273E+04  0.79839978019E+02 0.  0.
         13    1    5    5    0    0 -0.33807367245E+02  0.14917789626E+03  0.22380025412E+03  0.27107846938E+03  0.00000000000E+00 0. -1.
        -14    1    5    5    0    0 -0.68768905103E+02  0.93402795329E+02  0.92867756292E+02  0.14858554655E+03  0.00000000000E+00 0.  1.
         15    1    3    3    0    0  0.79290811552E+02  0.25188615865E+02 -0.91103512526E+01  0.83711739886E+02  0.17770000000E+01 0. -1.
        -16    1    3    3    0    0  0.22970442271E+03 -0.52260906365E+02 -0.65970979372E+02  0.24463747518E+03  0.00000000000E+00 0.  1.
          2    1    6    6  502    0 -0.37581835472E+02 -0.37416156155E+02  0.37290576059E+03  0.37665776160E+03  0.00000000000E+00 0. -1.
         -1    1    6    6    0  502 -0.16883712644E+03 -0.17809224494E+03  0.85635203841E+03  0.89082076573E+03  0.00000000000E+00 0.  1.
<mgrwt>
<rscale>  0 0.44308647E+03</rscale>
<asrwt>0</asrwt>
<pdfrwt beam="1">  1        1 0.26817970E+00 0.44308647E+03</pdfrwt>
<pdfrwt beam="2">  1       -2 0.41895946E-01 0.44308647E+03</pdfrwt>
<totfact> 0.22937867E+01</totfact>
</mgrwt>
</event>
<event>
12    3  0.1176505E-007  0.6711822E+03  0.7818608E-02  0.9767824E-01
         -2   -1    0    0    0  501 -0.00000000000E+00  0.00000000000E+00  0.39645549816E+03  0.39645549816E+03  0.00000000000E+00 0.  1.
          1   -1    0    0  501    0  0.00000000000E+00 -0.00000000000E+00 -0.12549538121E+04  0.12549538121E+04  0.00000000000E+00 0. -1.
        -24    2    1    2    0    0  0.37321400055E+01  0.56498269814E+03 -0.22959268721E+03  0.61485577778E+03  0.78201325904E+02 0.  0.
    5000000    2    1    2    0    0 -0.37321400055E+01 -0.56498269814E+03 -0.62890562669E+03  0.10365535325E+04  0.59975124868E+03 0.  0.
        -24    2    4    4    0    0 -0.66948416812E+02 -0.64376097686E+03 -0.62858701813E+03  0.90669891653E+03  0.89838744586E+02 0.  0.
         24    2    4    4    0    0  0.63216276806E+02  0.78778278717E+02 -0.31860856100E+00  0.12985461593E+03  0.81607627806E+02 0.  0.
         11    1    5    5    0    0 -0.87960461423E+02 -0.54311712271E+03 -0.54132499188E+03  0.77184583862E+03  0.00000000000E+00 0. -1.
        -12    1    5    5    0    0  0.21012044611E+02 -0.10064385415E+03 -0.87262026244E+02  0.13485307791E+03  0.00000000000E+00 0.  1.
         15    1    3    3    0    0 -0.28122828548E+02  0.43065639079E+03 -0.16026113405E+03  0.46037225072E+03  0.17770000000E+01 0. -1.
        -16    1    3    3    0    0  0.31854968553E+02  0.13432630735E+03 -0.69331553166E+02  0.15448352706E+03  0.00000000000E+00 0.  1.
          2    1    6    6  502    0  0.12076694294E+02  0.65891933886E+02 -0.25160303048E+02  0.71558607768E+02  0.00000000000E+00 0. -1.
         -1    1    6    6    0  502  0.51139582513E+02  0.12886344832E+02  0.24841694487E+02  0.58296008162E+02  0.00000000000E+00 0.  1.
<mgrwt>
<rscale>  0 0.67118224E+03</rscale>
<asrwt>0</asrwt>
<pdfrwt beam="1">  1        1 0.19306981E+00 0.67118224E+03</pdfrwt>
<pdfrwt beam="2">  1       -2 0.60993155E-01 0.67118224E+03</pdfrwt>
<totfact> 0.22162139E+01</totfact>
</mgrwt>
</event>
<event>
12    3  0.1176505E-007  0.8585564E+03  0.7818608E-02  0.9478924E-01
         -2   -1    0    0    0  501 -0.00000000000E+00  0.00000000000E+00  0.13158116535E+04  0.13158116535E+04  0.00000000000E+00 0.  1.
          1   -1    0    0  501    0  0.00000000000E+00 -0.00000000000E+00 -0.61455315854E+03  0.61455315854E+03  0.00000000000E+00 0. -1.
        -24    2    1    2    0    0  0.56844283484E+01  0.78891838576E+03  0.19128465950E+03  0.81571736398E+03  0.79877811908E+02 0.  0.
    5000000    2    1    2    0    0 -0.56844283484E+01 -0.78891838576E+03  0.50997383543E+03  0.11146474480E+04  0.59995090503E+03 0.  0.
        -24    2    4    4    0    0 -0.43724850939E+02  0.60615024270E+02  0.15743666704E+03  0.19062235537E+03  0.77230398689E+02 0.  0.
         24    2    4    4    0    0  0.38040422590E+02 -0.84953341003E+03  0.35253716839E+03  0.92402509265E+03  0.79911377478E+02 0.  0.
         13    1    5    5    0    0 -0.16151320195E+02  0.33625114055E+02  0.14554159718E+03  0.15024603139E+03  0.00000000000E+00 0. -1.
        -14    1    5    5    0    0 -0.27573530744E+02  0.26989910215E+02  0.11895069860E+02  0.40376323979E+02  0.00000000000E+00 0.  1.
         15    1    3    3    0    0 -0.16755162153E+02  0.54236411232E+03  0.16273824194E+03  0.56650371482E+03  0.17770000000E+01 0. -1.
        -16    1    3    3    0    0  0.22439590501E+02  0.24655427344E+03  0.28546417556E+02  0.24921364916E+03  0.00000000000E+00 0.  1.
          2    1    6    6  502    0  0.42643620755E+02 -0.62846380193E+03  0.29488129614E+03  0.69551434747E+03  0.00000000000E+00 0. -1.
         -1    1    6    6    0  502 -0.46031981650E+01 -0.22106960810E+03  0.57655872256E+02  0.22851074519E+03  0.00000000000E+00 0.  1.
<mgrwt>
<rscale>  0 0.85855645E+03</rscale>
<asrwt>0</asrwt>
<pdfrwt beam="1">  1        1 0.94546640E-01 0.85855645E+03</pdfrwt>
<pdfrwt beam="2">  1       -2 0.20243256E+00 0.85855645E+03</pdfrwt>
<totfact> 0.37622650E+00</totfact>
</mgrwt>
</event>
<event>
12    3  0.1176505E-007  0.4714867E+03  0.7818608E-02  0.1021501E+00
          1   -1    0    0  501    0  0.00000000000E+00  0.00000000000E+00  0.98739053805E+03  0.98739053805E+03  0.00000000000E+00 0. -1.
         -2   -1    0    0    0  501 -0.00000000000E+00 -0.00000000000E+00 -0.27596078706E+03  0.27596078706E+03  0.00000000000E+00 0.  1.
        -24    2    1    2    0    0  0.75010269001E+02 -0.32403614637E+03  0.33684870760E+03  0.48183696315E+03  0.89854563795E+02 0.  0.
    5000000    2    1    2    0    0 -0.75010269001E+02  0.32403614637E+03  0.37458104339E+03  0.78151436196E+03  0.59985646223E+03 0.  0.
        -24    2    4    4    0    0  0.44205415127E+02  0.42938975792E+03  0.93239811146E+02  0.44859747499E+03  0.78843828275E+02 0.  0.
         24    2    4    4    0    0 -0.11921568413E+03 -0.10535361155E+03  0.28134123225E+03  0.33291688697E+03  0.79806026448E+02 0.  0.
         11    1    5    5    0    0  0.57849214142E+02  0.20383314203E+03  0.30393593349E+02  0.21405198406E+03  0.00000000000E+00 0. -1.
        -12    1    5    5    0    0 -0.13643799015E+02  0.22555661589E+03  0.62846217797E+02  0.23454549093E+03  0.00000000000E+00 0.  1.
         15    1    3    3    0    0  0.26816038244E+02 -0.18981261430E+03  0.13409260826E+03  0.23394852805E+03  0.17770000000E+01 0. -1.
        -16    1    3    3    0    0  0.48194230757E+02 -0.13422353207E+03  0.20275609934E+03  0.24788843510E+03  0.00000000000E+00 0.  1.
          2    1    6    6  502    0 -0.10725983438E+02 -0.45804848022E+02  0.12474719507E+03  0.13332289188E+03  0.00000000000E+00 0. -1.
         -1    1    6    6    0  502 -0.10848970069E+03 -0.59548763528E+02  0.15659403718E+03  0.19959399508E+03  0.00000000000E+00 0.  1.
<mgrwt>
<rscale>  0 0.47148672E+03</rscale>
<asrwt>0</asrwt>
<pdfrwt beam="1">  1        1 0.15190623E+00 0.47148672E+03</pdfrwt>
<pdfrwt beam="2">  1       -2 0.42455506E-01 0.47148672E+03</pdfrwt>
<totfact> 0.74799661E+01</totfact>
</mgrwt>
</event>
<event>
12    3  0.1296919E-007  0.9001985E+03  0.7818608E-02  0.9425333E-01
          1   -1    0    0  501    0  0.00000000000E+00  0.00000000000E+00  0.10472695887E+04  0.10472695887E+04  0.00000000000E+00 0. -1.
         -2   -1    0    0    0  501 -0.00000000000E+00 -0.00000000000E+00 -0.11231598595E+04  0.11231598595E+04  0.00000000000E+00 0.  1.
        -24    2    1    2    0    0  0.13881887034E+02 -0.82568174844E+03 -0.59927516070E+03  0.10233312977E+04  0.78314559310E+02 0.  0.
    5000000    2    1    2    0    0 -0.13881887034E+02  0.82568174844E+03  0.52338488996E+03  0.11470981505E+04  0.59996613843E+03 0.  0.
        -24    2    4    4    0    0  0.14385799516E+03  0.77358185787E+03  0.54470666383E+03  0.96142345118E+03  0.92226293773E+02 0.  0.
         24    2    4    4    0    0 -0.15773988220E+03  0.52099890566E+02 -0.21321773865E+02  0.18567469928E+03  0.80151150215E+02 0.  0.
         13    1    5    5    0    0  0.10737811724E+03  0.41103283413E+03  0.25121526237E+03  0.49354549825E+03  0.00000000000E+00 0. -1.
        -14    1    5    5    0    0  0.36479877918E+02  0.36254902374E+03  0.29349140146E+03  0.46787795293E+03  0.00000000000E+00 0.  1.
         15    1    3    3    0    0  0.28250275108E+02 -0.53439444039E+03 -0.42687574357E+03  0.68454477877E+03  0.17770000000E+01 0. -1.
        -16    1    3    3    0    0 -0.14368388075E+02 -0.29128730805E+03 -0.17239941713E+03  0.33878651896E+03  0.00000000000E+00 0.  1.
          4    1    6    6  502    0 -0.10392055845E+03  0.72648638866E+02 -0.12837714941E+02  0.12744455313E+03  0.00000000000E+00 0. -1.
         -3    1    6    6    0  502 -0.53819323744E+02 -0.20548748300E+02 -0.84840589246E+01  0.58230146151E+02  0.00000000000E+00 0.  1.
<mgrwt>
<rscale>  0 0.90019847E+03</rscale>
<asrwt>0</asrwt>
<pdfrwt beam="1">  1        1 0.16111840E+00 0.90019847E+03</pdfrwt>
<pdfrwt beam="2">  1       -2 0.17279382E+00 0.90019847E+03</pdfrwt>
<totfact> 0.25021255E+00</totfact>
</mgrwt>
</event>
<event>
12    3  0.1176505E-007  0.6608850E+03  0.7818608E-02  0.9786566E-01
         -2   -1    0    0    0  501 -0.00000000000E+00  0.00000000000E+00  0.64378087119E+03  0.64378087119E+03  0.00000000000E+00 0.  1.
          1   -1    0    0  501    0  0.00000000000E+00 -0.00000000000E+00 -0.80627932238E+03  0.80627932238E+03  0.00000000000E+00 0. -1.
        -24    2    1    2    0    0  0.57597994791E+03  0.55594549786E+01 -0.20714637033E+03  0.61730980572E+03  0.79862191083E+02 0.  0.
    5000000    2    1    2    0    0 -0.57597994791E+03 -0.55594549786E+01  0.44647919134E+02  0.83275038785E+03  0.59974658303E+03 0.  0.
        -24    2    4    4    0    0 -0.61011400279E+03  0.89356290224E+02  0.17426986476E+03  0.64568437567E+03  0.79464987332E+02 0.  0.
         24    2    4    4    0    0  0.34134054881E+02 -0.94915745203E+02 -0.12962194563E+03  0.18706601219E+03  0.89541675978E+02 0.  0.
         11    1    5    5    0    0 -0.24288077998E+03  0.82980021414E+01  0.97525834002E+02  0.26186106702E+03  0.00000000000E+00 0. -1.
        -12    1    5    5    0    0 -0.36723322281E+03  0.81058288083E+02  0.76744030761E+02  0.38382330864E+03  0.00000000000E+00 0.  1.
         15    1    3    3    0    0  0.47360735649E+03  0.21161621060E+02 -0.19655760401E+03  0.51321515152E+03  0.17770000000E+01 0. -1.
        -16    1    3    3    0    0  0.10237259142E+03 -0.15602166081E+02 -0.10588766312E+02  0.10409465420E+03  0.00000000000E+00 0.  1.
          4    1    6    6  502    0  0.49886620117E+02 -0.97068938711E+02 -0.81003678416E+02  0.13591412600E+03  0.00000000000E+00 0. -1.
         -3    1    6    6    0  502 -0.15752565236E+02  0.21531935082E+01 -0.48618267213E+02  0.51151886188E+02  0.00000000000E+00 0.  1.
<mgrwt>
<rscale>  0 0.66088497E+03</rscale>
<asrwt>0</asrwt>
<pdfrwt beam="1">  1        1 0.12404297E+00 0.66088497E+03</pdfrwt>
<pdfrwt beam="2">  1       -2 0.99043211E-01 0.66088497E+03</pdfrwt>
<totfact> 0.16668693E+01</totfact>
</mgrwt>
</event>
<event>
12    3  0.1176505E-007  0.6074929E+03  0.7818608E-02  0.9889982E-01
          3   -1    0    0  501    0  0.00000000000E+00  0.00000000000E+00  0.26734737540E+03  0.26734737540E+03  0.00000000000E+00 0. -1.
         -4   -1    0    0    0  501 -0.00000000000E+00 -0.00000000000E+00 -0.17558688669E+04  0.17558688669E+04  0.00000000000E+00 0.  1.
        -24    2    1    2    0    0 -0.43097789819E+03 -0.17535369966E+03 -0.10380042706E+04  0.11403564448E+04  0.80430632829E+02 0.  0.
    5000000    2    1    2    0    0  0.43097789819E+03  0.17535369966E+03 -0.45051722083E+03  0.88285979744E+03  0.59998732233E+03 0.  0.
        -24    2    4    4    0    0  0.33508187493E+03  0.38399414854E+03 -0.31422859525E+03  0.60375991121E+03  0.77814210136E+02 0.  0.
         24    2    4    4    0    0  0.95896023259E+02 -0.20864044888E+03 -0.13628862559E+03  0.27909988622E+03  0.81211285176E+02 0.  0.
         13    1    5    5    0    0  0.91664574233E+02  0.10844482423E+03 -0.48241425406E+02  0.14996636022E+03  0.00000000000E+00 0. -1.
        -14    1    5    5    0    0  0.24341730070E+03  0.27554932431E+03 -0.26598716984E+03  0.45379355100E+03  0.00000000000E+00 0.  1.
         15    1    3    3    0    0 -0.26059795488E+03 -0.12705235589E+03 -0.72334397206E+03  0.77928380893E+03  0.17770000000E+01 0. -1.
        -16    1    3    3    0    0 -0.17037994331E+03 -0.48301343770E+02 -0.31466029857E+03  0.36107263589E+03  0.00000000000E+00 0.  1.
          4    1    6    6  502    0  0.20296048563E+02 -0.12043357794E+03 -0.40944237112E+02  0.12881229303E+03  0.00000000000E+00 0. -1.
         -3    1    6    6    0  502  0.75599974695E+02 -0.88206870945E+02 -0.95344388474E+02  0.15028759320E+03  0.00000000000E+00 0.  1.
<mgrwt>
<rscale>  0 0.60749286E+03</rscale>
<asrwt>0</asrwt>
<pdfrwt beam="1">  1        3 0.41130365E-01 0.60749286E+03</pdfrwt>
<pdfrwt beam="2">  1       -4 0.27013367E+00 0.60749286E+03</pdfrwt>
<totfact> 0.65012784E-01</totfact>
</mgrwt>
</event>
<event>
12    3  0.1176505E-007  0.7446717E+03  0.7818608E-02  0.9643747E-01
          3   -1    0    0  501    0  0.00000000000E+00  0.00000000000E+00  0.88236020056E+03  0.88236020056E+03  0.00000000000E+00 0. -1.
         -4   -1    0    0    0  501 -0.00000000000E+00 -0.00000000000E+00 -0.12106208660E+04  0.12106208660E+04  0.00000000000E+00 0.  1.
        -24    2    1    2    0    0 -0.63338892629E+03  0.11151321141E+03 -0.85117352137E+03  0.10697519070E+04  0.79095201377E+02 0.  0.
    5000000    2    1    2    0    0  0.63338892629E+03 -0.11151321141E+03  0.52291285588E+03  0.10232291596E+04  0.59995277303E+03 0.  0.
        -24    2    4    4    0    0  0.48430517986E+03  0.17609993448E+03  0.43306278419E+03  0.67777878543E+03  0.79233911706E+02 0.  0.
         24    2    4    4    0    0  0.14908374643E+03 -0.28761314589E+03  0.89850071690E+02  0.34545037413E+03  0.79471003937E+02 0.  0.
         11    1    5    5    0    0  0.13340158759E+03  0.34164373469E+02  0.75348881835E+02  0.15697337984E+03  0.00000000000E+00 0. -1.
        -12    1    5    5    0    0  0.35090359227E+03  0.14193556101E+03  0.35771390236E+03  0.52080540558E+03  0.00000000000E+00 0.  1.
         15    1    3    3    0    0 -0.18180955813E+03  0.49057598283E+01 -0.20217396579E+03  0.27194898801E+03  0.17770000000E+01 0. -1.
        -16    1    3    3    0    0 -0.45157936816E+03  0.10660745159E+03 -0.64899955558E+03  0.79780291903E+03  0.00000000000E+00 0.  1.
          2    1    6    6  502    0  0.13397637613E+01 -0.31774109660E+02 -0.10415789434E+02  0.33464573524E+02  0.00000000000E+00 0. -1.
         -1    1    6    6    0  502  0.14774398267E+03 -0.25583903623E+03  0.10026586112E+03  0.31198580061E+03  0.00000000000E+00 0.  1.
<mgrwt>
<rscale>  0 0.74467173E+03</rscale>
<asrwt>0</asrwt>
<pdfrwt beam="1">  1        3 0.13574772E+00 0.74467173E+03</pdfrwt>
<pdfrwt beam="2">  1       -4 0.18624936E+00 0.74467173E+03</pdfrwt>
<totfact> 0.15297923E-01</totfact>
</mgrwt>
</event>
<event>
12    3  0.1176505E-007  0.5727550E+03  0.7818608E-02  0.9963601E-01
         -2   -1    0    0    0  501 -0.00000000000E+00  0.00000000000E+00  0.30755544785E+03  0.30755544785E+03  0.00000000000E+00 0.  1.
          1   -1    0    0  501    0  0.00000000000E+00 -0.00000000000E+00 -0.12579697887E+04  0.12579697887E+04  0.00000000000E+00 0. -1.
        -24    2    1    2    0    0  0.22588092990E+03  0.41047292143E+03 -0.44907054976E+03  0.65395749016E+03  0.80534629524E+02 0.  0.
    5000000    2    1    2    0    0 -0.22588092990E+03 -0.41047292143E+03 -0.50134379105E+03  0.91156774636E+03  0.60008328226E+03 0.  0.
        -24    2    4    4    0    0  0.92878940424E+02  0.52002984541E+02  0.30169654388E+02  0.13400567226E+03  0.75607566934E+02 0.  0.
         24    2    4    4    0    0 -0.31875987033E+03 -0.46247590598E+03 -0.53151344544E+03  0.77756207409E+03  0.81267569434E+02 0.  0.
         11    1    5    5    0    0  0.66771665676E+02  0.47666894385E+02  0.54143990435E+02  0.98296286083E+02  0.00000000000E+00 0. -1.
        -12    1    5    5    0    0  0.26107274748E+02  0.43360901563E+01 -0.23974336046E+02  0.35709386182E+02  0.00000000000E+00 0.  1.
         15    1    3    3    0    0  0.90656220105E+02  0.10157579069E+03 -0.15735409171E+03  0.20808570207E+03  0.17770000000E+01 0. -1.
        -16    1    3    3    0    0  0.13522470980E+03  0.30889713074E+03 -0.29171645805E+03  0.44587178809E+03  0.00000000000E+00 0.  1.
          2    1    6    6  502    0 -0.19562302770E+03 -0.24267729101E+03 -0.24837062681E+03  0.39855815736E+03  0.00000000000E+00 0. -1.
         -3    1    6    6    0  502 -0.12313684263E+03 -0.21979861496E+03 -0.28314281864E+03  0.37900391673E+03  0.00000000000E+00 0.  1.
<mgrwt>
<rscale>  0 0.57275502E+03</rscale>
<asrwt>0</asrwt>
<pdfrwt beam="1">  1        1 0.19353381E+00 0.57275502E+03</pdfrwt>
<pdfrwt beam="2">  1       -2 0.47316223E-01 0.57275502E+03</pdfrwt>
<totfact> 0.37681677E+01</totfact>
</mgrwt>
</event>
<event>
12    3  0.1176505E-007  0.5784462E+03  0.7818608E-02  0.9951161E-01
          1   -1    0    0  501    0  0.00000000000E+00  0.00000000000E+00  0.81415620632E+03  0.81415620632E+03  0.00000000000E+00 0. -1.
         -2   -1    0    0    0  501 -0.00000000000E+00 -0.00000000000E+00 -0.52409070047E+03  0.52409070047E+03  0.00000000000E+00 0.  1.
        -24    2    1    2    0    0 -0.30931315563E+03 -0.31945690715E+03 -0.14415683484E+03  0.47443265055E+03  0.81103656567E+02 0.  0.
    5000000    2    1    2    0    0  0.30931315563E+03  0.31945690715E+03  0.43422234070E+03  0.86381425624E+03  0.59991556435E+03 0.  0.
        -24    2    4    4    0    0  0.38282666194E+03  0.42673475356E+03  0.27906613557E+03  0.64255234814E+03  0.79604077138E+02 0.  0.
         24    2    4    4    0    0 -0.73513506309E+02 -0.10727784641E+03  0.15515620513E+03  0.22126190809E+03  0.89278284262E+02 0.  0.
         13    1    5    5    0    0  0.19203012643E+03  0.16077576136E+03  0.13993935638E+03  0.28689272971E+03  0.00000000000E+00 0. -1.
        -14    1    5    5    0    0  0.19079653550E+03  0.26595899221E+03  0.13912677919E+03  0.35565961843E+03  0.00000000000E+00 0.  1.
         15    1    3    3    0    0 -0.21082257957E+03 -0.20911750357E+03 -0.55799303321E+02  0.30214733216E+03  0.17770000000E+01 0. -1.
        -16    1    3    3    0    0 -0.98490576061E+02 -0.11033940358E+03 -0.88357531523E+02  0.17228531839E+03  0.00000000000E+00 0.  1.
          2    1    6    6  502    0 -0.40824485692E+02 -0.86195850323E+02  0.47005938297E+02  0.10632930678E+03  0.00000000000E+00 0. -1.
         -1    1    6    6    0  502 -0.32689020618E+02 -0.21081996089E+02  0.10815026684E+03  0.11493260131E+03  0.00000000000E+00 0.  1.
<mgrwt>
<rscale>  0 0.57844619E+03</rscale>
<asrwt>0</asrwt>
<pdfrwt beam="1">  1        1 0.12525480E+00 0.57844619E+03</pdfrwt>
<pdfrwt beam="2">  1       -2 0.80629339E-01 0.57844619E+03</pdfrwt>
<totfact> 0.26588047E+01</totfact>
</mgrwt>
</event>
<event>
12    3  0.1176505E-007  0.5554338E+03  0.7818608E-02  0.1000244E+00
         -2   -1    0    0    0  501 -0.00000000000E+00  0.00000000000E+00  0.67607436173E+03  0.67607436173E+03  0.00000000000E+00 0.  1.
          1   -1    0    0  501    0  0.00000000000E+00 -0.00000000000E+00 -0.10517572523E+04  0.10517572523E+04  0.00000000000E+00 0. -1.
        -24    2    1    2    0    0  0.50377128894E+03  0.56674809849E+02  0.37937528178E+03  0.63823329166E+03  0.80116069066E+02 0.  0.
    5000000    2    1    2    0    0 -0.50377128894E+03 -0.56674809849E+02 -0.75505817235E+03  0.10895983224E+04  0.60009508817E+03 0.  0.
        -24    2    4    4    0    0 -0.67403306042E+02  0.97383553263E+02  0.56369538562E+02  0.15318885587E+03  0.79136202674E+02 0.  0.
         24    2    4    4    0    0 -0.43636798290E+03 -0.15405836311E+03 -0.81142771092E+03  0.93640946650E+03  0.65549699996E+02 0.  0.
         13    1    5    5    0    0 -0.74826910329E+02  0.10529760201E+03  0.43386167089E+02  0.13626815840E+03  0.00000000000E+00 0. -1.
        -14    1    5    5    0    0  0.74236042869E+01 -0.79140487464E+01  0.12983371473E+02  0.16920697473E+02  0.00000000000E+00 0.  1.
         15    1    3    3    0    0  0.94630728853E+02  0.46594520062E+01  0.11201828980E+03  0.14672402774E+03  0.17770000000E+01 0. -1.
        -16    1    3    3    0    0  0.40914056009E+03  0.52015357843E+02  0.26735699198E+03  0.49150926392E+03  0.00000000000E+00 0.  1.
          2    1    6    6  502    0 -0.28870435808E+03 -0.87496639781E+02 -0.46960051397E+03  0.55814918353E+03  0.00000000000E+00 0. -1.
         -1    1    6    6    0  502 -0.14766362482E+03 -0.66561723332E+02 -0.34182719694E+03  0.37826028298E+03  0.00000000000E+00 0.  1.
<mgrwt>
<rscale>  0 0.55543377E+03</rscale>
<asrwt>0</asrwt>
<pdfrwt beam="1">  1        1 0.16180881E+00 0.55543377E+03</pdfrwt>
<pdfrwt beam="2">  1       -2 0.10401144E+00 0.55543377E+03</pdfrwt>
<totfact> 0.95840227E+00</totfact>
</mgrwt>
</event>
<event>
12    3  0.1176505E-007  0.5870830E+03  0.7818608E-02  0.9932573E-01
          1   -1    0    0  501    0  0.00000000000E+00  0.00000000000E+00  0.15813419690E+04  0.15813419690E+04  0.00000000000E+00 0. -1.
         -2   -1    0    0    0  501 -0.00000000000E+00 -0.00000000000E+00 -0.25157788879E+03  0.25157788879E+03  0.00000000000E+00 0.  1.
        -24    2    1    2    0    0  0.28007903327E+03  0.39329275263E+03  0.46651280284E+03  0.67609915495E+03  0.79702057412E+02 0.  0.
    5000000    2    1    2    0    0 -0.28007903327E+03 -0.39329275263E+03  0.86325127741E+03  0.11568207029E+04  0.59992325886E+03 0.  0.
        -24    2    4    4    0    0 -0.23936457644E+03 -0.50147826660E+03  0.44747905639E+03  0.71802571539E+03  0.80917054683E+02 0.  0.
         24    2    4    4    0    0 -0.40714456836E+02  0.10818551397E+03  0.41577222103E+03  0.43879498749E+03  0.79452683042E+02 0.  0.
         11    1    5    5    0    0 -0.38335734974E+02 -0.40465360439E+02  0.68346617423E+02  0.88194864276E+02  0.00000000000E+00 0. -1.
        -12    1    5    5    0    0 -0.20102884146E+03 -0.46101290616E+03  0.37913243896E+03  0.62983085112E+03  0.00000000000E+00 0.  1.
         15    1    3    3    0    0  0.24272655672E+03  0.31462727269E+03  0.34277491486E+03  0.52478976938E+03  0.17770000000E+01 0. -1.
        -16    1    3    3    0    0  0.37352476548E+02  0.78665479934E+02  0.12373788798E+03  0.15130938557E+03  0.00000000000E+00 0.  1.
          4    1    6    6  502    0 -0.54704804455E+02  0.61594082738E+02  0.17857664026E+03  0.19666230728E+03  0.00000000000E+00 0. -1.
         -3    1    6    6    0  502  0.13990347619E+02  0.46591431232E+02  0.23719558077E+03  0.24213268021E+03  0.00000000000E+00 0.  1.
<mgrwt>
<rscale>  0 0.58708303E+03</rscale>
<asrwt>0</asrwt>
<pdfrwt beam="1">  1        1 0.24328337E+00 0.58708303E+03</pdfrwt>
<pdfrwt beam="2">  1       -2 0.38704291E-01 0.58708303E+03</pdfrwt>
<totfact> 0.33441177E+01</totfact>
</mgrwt>
</event>
<event>
12    3  0.1176505E-007  0.6921093E+03  0.7818608E-02  0.9730822E-01
          1   -1    0    0  501    0  0.00000000000E+00  0.00000000000E+00  0.23937286671E+04  0.23937286671E+04  0.00000000000E+00 0. -1.
         -2   -1    0    0    0  501 -0.00000000000E+00 -0.00000000000E+00 -0.10612906077E+04  0.10612906077E+04  0.00000000000E+00 0.  1.
        -24    2    1    2    0    0  0.47281989113E+03 -0.32485851919E+03 -0.90149805458E+03  0.10718493316E+04  0.84086504658E+02 0.  0.
    5000000    2    1    2    0    0 -0.47281989113E+03  0.32485851919E+03  0.22339361140E+04  0.23831699433E+04  0.59994725618E+03 0.  0.
        -24    2    4    4    0    0  0.12985019646E+03  0.75931290290E+02  0.40282643093E+03  0.43807264515E+03  0.83736936928E+02 0.  0.
         24    2    4    4    0    0 -0.60267008759E+03  0.24892722890E+03  0.18311096830E+04  0.19450972981E+04  0.72559134625E+02 0.  0.
         11    1    5    5    0    0  0.79719394024E+02  0.27808383583E+02  0.11929586396E+03  0.14615057694E+03  0.00000000000E+00 0. -1.
        -12    1    5    5    0    0  0.50130802436E+02  0.48122906706E+02  0.28353056697E+03  0.29192206821E+03  0.00000000000E+00 0.  1.
         15    1    3    3    0    0  0.33816070655E+03 -0.26763558904E+03 -0.63059811609E+03  0.76396244261E+03  0.17770000000E+01 0. -1.
        -16    1    3    3    0    0  0.13465918458E+03 -0.57222930150E+02 -0.27089993850E+03  0.30788688898E+03  0.00000000000E+00 0.  1.
          4    1    6    6  502    0 -0.31733186054E+03  0.14702504714E+03  0.88248454735E+03  0.94926015955E+03  0.00000000000E+00 0. -1.
         -1    1    6    6    0  502 -0.28533822705E+03  0.10190218176E+03  0.94862513569E+03  0.99583713855E+03  0.00000000000E+00 0.  1.
<mgrwt>
<rscale>  0 0.69210928E+03</rscale>
<asrwt>0</asrwt>
<pdfrwt beam="1">  1        1 0.36826595E+00 0.69210928E+03</pdfrwt>
<pdfrwt beam="2">  1       -2 0.16327548E+00 0.69210928E+03</pdfrwt>
<totfact> 0.35998325E-01</totfact>
</mgrwt>
</event>
<event>
12    3  0.1176505E-007  0.8645956E+03  0.7818608E-02  0.9470954E-01
          1   -1    0    0  501    0  0.00000000000E+00  0.00000000000E+00  0.16868956327E+04  0.16868956327E+04  0.00000000000E+00 0. -1.
         -2   -1    0    0    0  501 -0.00000000000E+00 -0.00000000000E+00 -0.49422166225E+03  0.49422166225E+03  0.00000000000E+00 0.  1.
        -24    2    1    2    0    0 -0.43430303758E+02  0.77138727904E+03  0.83234854990E+03  0.11383045109E+04  0.77514679026E+02 0.  0.
    5000000    2    1    2    0    0  0.43430303758E+02 -0.77138727904E+03  0.36032542054E+03  0.10428127840E+04  0.60058269066E+03 0.  0.
        -24    2    4    4    0    0  0.29999772293E+03 -0.41117099298E+03  0.10281728240E+03  0.52486156074E+03  0.76472512374E+02 0.  0.
         24    2    4    4    0    0 -0.25656741917E+03 -0.36021628606E+03  0.25750813814E+03  0.51795122330E+03  0.79877501145E+02 0.  0.
         11    1    5    5    0    0  0.25198529020E+03 -0.31182133088E+03  0.10523611502E+03  0.41449218180E+03  0.00000000000E+00 0. -1.
        -12    1    5    5    0    0  0.48012432730E+02 -0.99349662101E+02 -0.24188326169E+01  0.11036937894E+03  0.00000000000E+00 0.  1.
         15    1    3    3    0    0 -0.51648019515E+02  0.31401867171E+03  0.31619360913E+03  0.44861654036E+03  0.17770000000E+01 0. -1.
        -16    1    3    3    0    0  0.82177157572E+01  0.45736860733E+03  0.51615494078E+03  0.68968797054E+03  0.00000000000E+00 0.  1.
          4    1    6    6  502    0 -0.19911009413E+03 -0.28115276006E+03  0.23678617736E+03  0.41804233980E+03  0.00000000000E+00 0. -1.
         -3    1    6    6    0  502 -0.57457325038E+02 -0.79063526002E+02  0.20721960774E+02  0.99908883502E+02  0.00000000000E+00 0.  1.
<mgrwt>
<rscale>  0 0.86459564E+03</rscale>
<asrwt>0</asrwt>
<pdfrwt beam="1">  1        1 0.25952240E+00 0.86459564E+03</pdfrwt>
<pdfrwt beam="2">  1       -2 0.76034103E-01 0.86459564E+03</pdfrwt>
<totfact> 0.67482971E+00</totfact>
</mgrwt>
</event>
<event>
12    3  0.1176505E-007  0.5138811E+03  0.7818608E-02  0.1010218E+00
          1   -1    0    0  501    0  0.00000000000E+00  0.00000000000E+00  0.90314538871E+03  0.90314538871E+03  0.00000000000E+00 0. -1.
         -2   -1    0    0    0  501 -0.00000000000E+00 -0.00000000000E+00 -0.43161413927E+03  0.43161413927E+03  0.00000000000E+00 0.  1.
        -24    2    1    2    0    0 -0.45282560306E+03 -0.14714422732E+03  0.16943039600E+03  0.51134299533E+03  0.77862374545E+02 0.  0.
    5000000    2    1    2    0    0  0.45282560306E+03  0.14714422732E+03  0.30210085344E+03  0.82341653264E+03  0.60003950717E+03 0.  0.
        -24    2    4    4    0    0  0.80420746499E+02 -0.76740920369E+02 -0.14194075504E+03  0.19691466689E+03  0.79193072739E+02 0.  0.
         24    2    4    4    0    0  0.37240485656E+03  0.22388514769E+03  0.44404160847E+03  0.62650186575E+03  0.80757050424E+02 0.  0.
         11    1    5    5    0    0  0.11721127067E+02 -0.22178097896E+02 -0.93276028497E+02  0.96590218646E+02  0.00000000000E+00 0. -1.
        -12    1    5    5    0    0  0.68699619432E+02 -0.54562822473E+02 -0.48664726539E+02  0.10032444824E+03  0.00000000000E+00 0.  1.
         15    1    3    3    0    0 -0.10221905681E+03 -0.59983773712E+01  0.17002269475E+02  0.10381209468E+03  0.17770000000E+01 0. -1.
        -16    1    3    3    0    0 -0.35060654625E+03 -0.14114584995E+03  0.15242812652E+03  0.40753090065E+03  0.00000000000E+00 0.  1.
          2    1    6    6  502    0  0.12967245212E+03  0.73886023232E+02  0.10056384849E+03  0.17996437673E+03  0.00000000000E+00 0. -1.
         -1    1    6    6    0  502  0.24273240444E+03  0.14999912446E+03  0.34347775998E+03  0.44653748903E+03  0.00000000000E+00 0.  1.
<mgrwt>
<rscale>  0 0.51388114E+03</rscale>
<asrwt>0</asrwt>
<pdfrwt beam="1">  1        1 0.13894544E+00 0.51388114E+03</pdfrwt>
<pdfrwt beam="2">  1       -2 0.66402176E-01 0.51388114E+03</pdfrwt>
<totfact> 0.34654062E+01</totfact>
</mgrwt>
</event>
<event>
12    3  0.1176505E-007  0.6995195E+03  0.7818608E-02  0.9718054E-01
          1   -1    0    0  501    0  0.00000000000E+00  0.00000000000E+00  0.75138538650E+03  0.75138538650E+03  0.00000000000E+00 0. -1.
         -2   -1    0    0    0  501 -0.00000000000E+00 -0.00000000000E+00 -0.98380806952E+03  0.98380806952E+03  0.00000000000E+00 0.  1.
        -24    2    1    2    0    0 -0.57547477319E+03 -0.29831300972E+03  0.28340489775E+03  0.71217998887E+03  0.81976424294E+02 0.  0.
    5000000    2    1    2    0    0  0.57547477319E+03  0.29831300972E+03 -0.51582758077E+03  0.10230134672E+04  0.60026377081E+03 0.  0.
        -24    2    4    4    0    0  0.52022538243E+03  0.37066056530E+03 -0.59573711951E+03  0.87716795639E+03  0.80605241448E+02 0.  0.
         24    2    4    4    0    0  0.55249390751E+02 -0.72347555581E+02  0.79909538738E+02  0.14584551077E+03  0.81232472896E+02 0.  0.
         11    1    5    5    0    0  0.45507459237E+03  0.35163143229E+03 -0.54619636476E+03  0.79313808235E+03  0.00000000000E+00 0. -1.
        -12    1    5    5    0    0  0.65150790069E+02  0.19029133009E+02 -0.49540754751E+02  0.84029874038E+02  0.00000000000E+00 0.  1.
         15    1    3    3    0    0 -0.55596646025E+03 -0.29079785826E+03  0.28862870525E+03  0.69063144043E+03  0.17770000000E+01 0. -1.
        -16    1    3    3    0    0 -0.19508312939E+02 -0.75151514564E+01 -0.52238074979E+01  0.21548548441E+02  0.00000000000E+00 0.  1.
          4    1    6    6  502    0  0.66619784691E+02 -0.52335623626E+02  0.28273312840E+02  0.89311776556E+02  0.00000000000E+00 0. -1.
         -3    1    6    6    0  502 -0.11370393940E+02 -0.20011931955E+02  0.51636225898E+02  0.56533734212E+02  0.00000000000E+00 0.  1.
<mgrwt>
<rscale>  0 0.69951954E+03</rscale>
<asrwt>0</asrwt>
<pdfrwt beam="1">  1        1 0.11559775E+00 0.69951954E+03</pdfrwt>
<pdfrwt beam="2">  1       -2 0.15135509E+00 0.69951954E+03</pdfrwt>
<totfact> 0.64409719E+00</totfact>
</mgrwt>
</event>
<event>
12    3  0.1176505E-007  0.9626663E+03  0.7818608E-02  0.9350467E-01
          1   -1    0    0  501    0  0.00000000000E+00  0.00000000000E+00  0.56764382770E+03  0.56764382770E+03  0.00000000000E+00 0. -1.
         -2   -1    0    0    0  501 -0.00000000000E+00 -0.00000000000E+00 -0.18099008833E+04  0.18099008833E+04  0.00000000000E+00 0.  1.
        -24    2    1    2    0    0  0.78833780685E+03 -0.39746133337E+03 -0.88331522713E+03  0.12514209374E+04  0.79728056314E+02 0.  0.
    5000000    2    1    2    0    0 -0.78833780685E+03  0.39746133337E+03 -0.35894182843E+03  0.11261237735E+04  0.59988624575E+03 0.  0.
        -24    2    4    4    0    0 -0.37428320971E+03 -0.10555356338E+03 -0.48145182697E+02  0.39976904198E+03  0.79169770057E+02 0.  0.
         24    2    4    4    0    0 -0.41405459714E+03  0.50301489674E+03 -0.31079664573E+03  0.72635473153E+03  0.80817357478E+02 0.  0.
         13    1    5    5    0    0 -0.10239384941E+03 -0.19878723110E+02 -0.47712618896E+02  0.11470029656E+03  0.00000000000E+00 0. -1.
        -14    1    5    5    0    0 -0.27188936030E+03 -0.85674840266E+02 -0.43256380156E+00  0.28506874541E+03  0.00000000000E+00 0.  1.
         15    1    3    3    0    0  0.74638718771E+03 -0.36283452450E+03 -0.84822447840E+03  0.11866889439E+04  0.17770000000E+01 0. -1.
        -16    1    3    3    0    0  0.41950619143E+02 -0.34626808869E+02 -0.35090748729E+02  0.64731993521E+02  0.00000000000E+00 0.  1.
          2    1    6    6  502    0 -0.82369045464E+02  0.91573032692E+02 -0.94819145927E+02  0.15543793103E+03  0.00000000000E+00 0. -1.
         -1    1    6    6    0  502 -0.33168555167E+03  0.41144186405E+03 -0.21597749980E+03  0.57091680051E+03  0.00000000000E+00 0.  1.
<mgrwt>
<rscale>  0 0.96266626E+03</rscale>
<asrwt>0</asrwt>
<pdfrwt beam="1">  1        1 0.87329819E-01 0.96266626E+03</pdfrwt>
<pdfrwt beam="2">  1       -2 0.27844629E+00 0.96266626E+03</pdfrwt>
<totfact> 0.14136123E+00</totfact>
</mgrwt>
</event>
<event>
12    3  0.1176505E-007  0.4517790E+03  0.7818608E-02  0.1027193E+00
          1   -1    0    0  501    0  0.00000000000E+00  0.00000000000E+00  0.65022974590E+03  0.65022974590E+03  0.00000000000E+00 0. -1.
         -2   -1    0    0    0  501 -0.00000000000E+00 -0.00000000000E+00 -0.51090062656E+03  0.51090062656E+03  0.00000000000E+00 0.  1.
        -24    2    1    2    0    0 -0.22853881454E+03  0.22635385130E+03 -0.21334928974E+03  0.39433679816E+03  0.80731252954E+02 0.  0.
    5000000    2    1    2    0    0  0.22853881454E+03 -0.22635385130E+03  0.35267840907E+03  0.76679357430E+03  0.60010354908E+03 0.  0.
        -24    2    4    4    0    0 -0.92499607828E+02  0.68271118137E+02 -0.61748079814E+02  0.15948188446E+03  0.91676186059E+02 0.  0.
         24    2    4    4    0    0  0.32103842237E+03 -0.29462496944E+03  0.41442648889E+03  0.60731168984E+03  0.84903667032E+02 0.  0.
         13    1    5    5    0    0 -0.25526722758E+02  0.74173422159E+02 -0.22387651599E+02  0.81575223405E+02  0.00000000000E+00 0. -1.
        -14    1    5    5    0    0 -0.66972885070E+02 -0.59023040222E+01 -0.39360428216E+02  0.77906661055E+02  0.00000000000E+00 0.  1.
         15    1    3    3    0    0 -0.65867161250E+02  0.71914707701E+02 -0.11105412500E+03  0.14780522496E+03  0.17770000000E+01 0. -1.
        -16    1    3    3    0    0 -0.16267165329E+03  0.15443914360E+03 -0.10229516473E+03  0.24653157320E+03  0.00000000000E+00 0.  1.
          4    1    6    6  502    0  0.13641164185E+03 -0.13607178215E+03  0.12733190099E+03  0.23094821701E+03  0.00000000000E+00 0. -1.
         -3    1    6    6    0  502  0.18462678052E+03 -0.15855318729E+03  0.28709458790E+03  0.37636347284E+03  0.00000000000E+00 0.  1.
<mgrwt>
<rscale>  0 0.45177901E+03</rscale>
<asrwt>0</asrwt>
<pdfrwt beam="1">  1        1 0.10003535E+00 0.45177901E+03</pdfrwt>
<pdfrwt beam="2">  1       -2 0.78600096E-01 0.45177901E+03</pdfrwt>
<totfact> 0.40239783E+01</totfact>
</mgrwt>
</event>
<event>
12    3  0.1176505E-007  0.6960861E+03  0.7818608E-02  0.9723949E-01
         -2   -1    0    0    0  501 -0.00000000000E+00  0.00000000000E+00  0.15543984180E+04  0.15543984180E+04  0.00000000000E+00 0.  1.
          1   -1    0    0  501    0  0.00000000000E+00 -0.00000000000E+00 -0.74171650335E+03  0.74171650335E+03  0.00000000000E+00 0. -1.
        -24    2    1    2    0    0  0.11064997299E+03  0.68417310679E+03 -0.37805151005E+03  0.79350645892E+03  0.79958111000E+02 0.  0.
    5000000    2    1    2    0    0 -0.11064997299E+03 -0.68417310679E+03  0.11907334247E+04  0.15026084624E+04  0.59970813406E+03 0.  0.
        -24    2    4    4    0    0 -0.58637862496E+02 -0.22268159353E+03  0.25008724145E+02  0.24519133767E+03  0.80423036290E+02 0.  0.
         24    2    4    4    0    0 -0.52012110497E+02 -0.46149151326E+03  0.11657247006E+04  0.12574171248E+04  0.80647825132E+02 0.  0.
         13    1    5    5    0    0 -0.50775775169E+02 -0.14225954544E+03  0.52383457157E+02  0.15987490171E+03  0.00000000000E+00 0. -1.
        -14    1    5    5    0    0 -0.78620873266E+01 -0.80422048097E+02 -0.27374733013E+02  0.85316435959E+02  0.00000000000E+00 0.  1.
         15    1    3    3    0    0  0.81538640236E+02  0.31201019602E+03 -0.14636918696E+03  0.35415534571E+03  0.17770000000E+01 0. -1.
        -16    1    3    3    0    0  0.29111332757E+02  0.37216291077E+03 -0.23168232309E+03  0.43935111321E+03  0.00000000000E+00 0.  1.
          2    1    6    6  502    0 -0.28915525935E+02 -0.29978445186E+03  0.64876787332E+03  0.71526678845E+03  0.00000000000E+00 0. -1.
         -1    1    6    6    0  502 -0.23096584562E+02 -0.16170706140E+03  0.51695682723E+03  0.54215033630E+03  0.00000000000E+00 0.  1.
<mgrwt>
<rscale>  0 0.69608607E+03</rscale>
<asrwt>0</asrwt>
<pdfrwt beam="1">  1        1 0.11411023E+00 0.69608607E+03</pdfrwt>
<pdfrwt beam="2">  1       -2 0.23913822E+00 0.69608607E+03</pdfrwt>
<totfact> 0.17106723E+00</totfact>
</mgrwt>
</event>
<event>
12    3  0.1176505E-007  0.7808229E+03  0.7818608E-02  0.9588198E-01
          1   -1    0    0  501    0  0.00000000000E+00  0.00000000000E+00  0.11643211997E+04  0.11643211997E+04  0.00000000000E+00 0. -1.
         -2   -1    0    0    0  501 -0.00000000000E+00 -0.00000000000E+00 -0.80372169475E+03  0.80372169475E+03  0.00000000000E+00 0.  1.
        -24    2    1    2    0    0 -0.11093904258E+03 -0.65289183473E+03  0.74018239924E+03  0.99698020281E+03  0.86742847718E+02 0.  0.
    5000000    2    1    2    0    0  0.11093904258E+03  0.65289183473E+03 -0.37958289424E+03  0.97106269167E+03  0.60025357853E+03 0.  0.
        -24    2    4    4    0    0  0.34818893880E+03  0.34809432328E+03 -0.21362153170E+03  0.54320394303E+03  0.83852071575E+02 0.  0.
         24    2    4    4    0    0 -0.23724989622E+03  0.30479751144E+03 -0.16596136255E+03  0.42785874865E+03  0.79566944733E+02 0.  0.
         13    1    5    5    0    0  0.19227920872E+03  0.13313873368E+03 -0.10230284483E+03  0.25527061831E+03  0.00000000000E+00 0. -1.
        -14    1    5    5    0    0  0.15590973008E+03  0.21495558960E+03 -0.11131868687E+03  0.28793332472E+03  0.00000000000E+00 0.  1.
         15    1    3    3    0    0 -0.79361590041E+02 -0.22103169136E+03  0.25510579826E+03  0.34674976076E+03  0.17770000000E+01 0. -1.
        -16    1    3    3    0    0 -0.31577452539E+02 -0.43186014337E+03  0.48507660098E+03  0.65023044204E+03  0.00000000000E+00 0.  1.
          2    1    6    6  502    0 -0.17725420257E+03  0.16471857106E+03 -0.10164665691E+03  0.26245628749E+03  0.00000000000E+00 0. -1.
         -1    1    6    6    0  502 -0.59995693654E+02  0.14007894039E+03 -0.64314705641E+02  0.16540246116E+03  0.00000000000E+00 0.  1.
<mgrwt>
<rscale>  0 0.78082287E+03</rscale>
<asrwt>0</asrwt>
<pdfrwt beam="1">  1        1 0.17912634E+00 0.78082287E+03</pdfrwt>
<pdfrwt beam="2">  1       -2 0.12364949E+00 0.78082287E+03</pdfrwt>
<totfact> 0.50183513E+00</totfact>
</mgrwt>
</event>
<event>
12    3  0.1176505E-007  0.1212251E+04  0.7818608E-02  0.9102200E-01
          1   -1    0    0  501    0  0.00000000000E+00  0.00000000000E+00  0.12922983448E+04  0.12922983448E+04  0.00000000000E+00 0. -1.
         -2   -1    0    0    0  501 -0.00000000000E+00 -0.00000000000E+00 -0.17544095529E+04  0.17544095529E+04  0.00000000000E+00 0.  1.
        -24    2    1    2    0    0 -0.40197858255E+03 -0.11283262145E+04  0.59522680729E+03  0.13400818471E+04  0.82568623676E+02 0.  0.
    5000000    2    1    2    0    0  0.40197858255E+03  0.11283262145E+04 -0.10573380153E+04  0.17066260506E+04  0.59991830353E+03 0.  0.
        -24    2    4    4    0    0  0.18937575158E+03  0.80710688729E+03 -0.10128034771E+04  0.13111905933E+04  0.78518698632E+02 0.  0.
         24    2    4    4    0    0  0.21260283097E+03  0.32121932719E+03 -0.44534538240E+02  0.39543545730E+03  0.77485843203E+02 0.  0.
         11    1    5    5    0    0  0.35622284265E+02  0.31907981500E+03 -0.39035716763E+03  0.50543010773E+03  0.00000000000E+00 0. -1.
        -12    1    5    5    0    0  0.15375346732E+03  0.48802707229E+03 -0.62244630945E+03  0.80576048560E+03  0.00000000000E+00 0.  1.
         15    1    3    3    0    0 -0.27161478593E+03 -0.85161269072E+03  0.42101696364E+03  0.98806741082E+03  0.17770000000E+01 0. -1.
        -16    1    3    3    0    0 -0.13036379662E+03 -0.27671352376E+03  0.17420984365E+03  0.35201443625E+03  0.00000000000E+00 0.  1.
          2    1    6    6  502    0  0.17095813175E+03  0.29992706197E+03 -0.47930134408E+02  0.34854013126E+03  0.00000000000E+00 0. -1.
         -1    1    6    6    0  502  0.41644699217E+02  0.21292265221E+02  0.33955961672E+01  0.46895326041E+02  0.00000000000E+00 0.  1.
<mgrwt>
<rscale>  0 0.12122509E+04</rscale>
<asrwt>0</asrwt>
<pdfrwt beam="1">  1        1 0.19881513E+00 0.12122509E+04</pdfrwt>
<pdfrwt beam="2">  1       -2 0.26990916E+00 0.12122509E+04</pdfrwt>
<totfact> 0.38034794E-01</totfact>
</mgrwt>
</event>
<event>
12    3  0.1176505E-007  0.1047554E+04  0.7818608E-02  0.9257873E-01
          1   -1    0    0  501    0  0.00000000000E+00  0.00000000000E+00  0.43017133422E+04  0.43017133422E+04  0.00000000000E+00 0. -1.
         -2   -1    0    0    0  501 -0.00000000000E+00 -0.00000000000E+00 -0.33628413471E+03  0.33628413471E+03  0.00000000000E+00 0.  1.
        -24    2    1    2    0    0 -0.41268052476E+03 -0.89942862275E+03  0.28991226928E+04  0.30643666468E+04  0.78444216902E+02 0.  0.
    5000000    2    1    2    0    0  0.41268052476E+03  0.89942862275E+03  0.10663065146E+04  0.15736308300E+04  0.60002278555E+03 0.  0.
        -24    2    4    4    0    0  0.47836855627E+03  0.91806569285E+03  0.89662363240E+03  0.13718006602E+04  0.78879789530E+02 0.  0.
         24    2    4    4    0    0 -0.65688031512E+02 -0.18637070096E+02  0.16968288221E+03  0.20183016981E+03  0.85328067263E+02 0.  0.
         11    1    5    5    0    0  0.29673497864E+03  0.54350340347E+03  0.58430187129E+03  0.85138491526E+03  0.00000000000E+00 0. -1.
        -12    1    5    5    0    0  0.18163357763E+03  0.37456228938E+03  0.31232176111E+03  0.52041574497E+03  0.00000000000E+00 0.  1.
         15    1    3    3    0    0 -0.57344654776E+02 -0.12950605148E+03  0.33664339196E+03  0.36522891161E+03  0.17770000000E+01 0. -1.
        -16    1    3    3    0    0 -0.35533586998E+03 -0.76992257127E+03  0.25624793009E+04  0.26991377352E+04  0.00000000000E+00 0.  1.
          4    1    6    6  502    0 -0.51376293337E+01  0.26814510434E+01  0.12131737543E+03  0.12145571619E+03  0.00000000000E+00 0. -1.
         -3    1    6    6    0  502 -0.60550402178E+02 -0.21318521140E+02  0.48365506786E+02  0.80374453617E+02  0.00000000000E+00 0.  1.
<mgrwt>
<rscale>  0 0.10475544E+04</rscale>
<asrwt>0</asrwt>
<pdfrwt beam="1">  1        1 0.66180201E+00 0.10475544E+04</pdfrwt>
<pdfrwt beam="2">  1       -2 0.51736024E-01 0.10475544E+04</pdfrwt>
<totfact> 0.16540626E-01</totfact>
</mgrwt>
</event>
<event>
12    3  0.1176505E-007  0.5138087E+03  0.7818608E-02  0.1010236E+00
          1   -1    0    0  501    0  0.00000000000E+00  0.00000000000E+00  0.55602351170E+03  0.55602351170E+03  0.00000000000E+00 0. -1.
         -2   -1    0    0    0  501 -0.00000000000E+00 -0.00000000000E+00 -0.66346643371E+03  0.66346643371E+03  0.00000000000E+00 0.  1.
        -24    2    1    2    0    0 -0.26451126731E+03 -0.36630511467E+03 -0.86939126544E+02  0.46825309786E+03  0.86930457039E+02 0.  0.
    5000000    2    1    2    0    0  0.26451126731E+03  0.36630511467E+03 -0.20503795470E+02  0.75123684755E+03  0.59982559792E+03 0.  0.
        -24    2    4    4    0    0  0.29935168567E+03  0.14390627472E+03  0.22557774357E+03  0.40854419349E+03  0.75515508500E+02 0.  0.
         24    2    4    4    0    0 -0.34840418360E+02  0.22239883995E+03 -0.24608153904E+03  0.34269265406E+03  0.78784722638E+02 0.  0.
         11    1    5    5    0    0  0.84240604302E+02  0.20086033972E+02  0.27100999330E+02  0.90743552600E+02  0.00000000000E+00 0. -1.
        -12    1    5    5    0    0  0.21511108137E+03  0.12382024075E+03  0.19847674424E+03  0.31780064089E+03  0.00000000000E+00 0.  1.
         15    1    3    3    0    0 -0.12552637117E+03 -0.10346201527E+03 -0.35549122604E+02  0.16651773572E+03  0.17770000000E+01 0. -1.
        -16    1    3    3    0    0 -0.13898489614E+03 -0.26284309941E+03 -0.51390003941E+02  0.30173536214E+03  0.00000000000E+00 0.  1.
          4    1    6    6  502    0 -0.74848255146E+01 -0.11660347991E+01 -0.28646126202E+02  0.29630774484E+02  0.00000000000E+00 0. -1.
         -1    1    6    6    0  502 -0.27355592845E+02  0.22356487475E+03 -0.21743541284E+03  0.31306187957E+03  0.00000000000E+00 0.  1.
<mgrwt>
<rscale>  0 0.51380865E+03</rscale>
<asrwt>0</asrwt>
<pdfrwt beam="1">  1        1 0.85542079E-01 0.51380865E+03</pdfrwt>
<pdfrwt beam="2">  1       -2 0.10207176E+00 0.51380865E+03</pdfrwt>
<totfact> 0.27408357E+01</totfact>
</mgrwt>
</event>
<event>
12    3  0.1176505E-007  0.6646329E+03  0.7818608E-02  0.9779703E-01
          1   -1    0    0  501    0  0.00000000000E+00  0.00000000000E+00  0.11621414706E+04  0.11621414706E+04  0.00000000000E+00 0. -1.
         -2   -1    0    0    0  501 -0.00000000000E+00 -0.00000000000E+00 -0.10138846321E+04  0.10138846321E+04  0.00000000000E+00 0.  1.
        -24    2    1    2    0    0  0.44966451760E+03  0.46912174648E+03 -0.69433524133E+03  0.95444993975E+03  0.81239576159E+02 0.  0.
    5000000    2    1    2    0    0 -0.44966451760E+03 -0.46912174648E+03  0.84259207988E+03  0.12215761629E+04  0.60001126438E+03 0.  0.
        -24    2    4    4    0    0 -0.13447899485E+03 -0.26520500436E+03  0.12436275691E+02  0.30697746909E+03  0.75247665652E+02 0.  0.
         24    2    4    4    0    0 -0.31518552275E+03 -0.20391674212E+03  0.83015580419E+03  0.91459869385E+03  0.80050984353E+02 0.  0.
         11    1    5    5    0    0 -0.72468225044E+02 -0.90520031576E+02  0.32780819101E+02  0.12049938530E+03  0.00000000000E+00 0. -1.
        -12    1    5    5    0    0 -0.62010769804E+02 -0.17468497278E+03 -0.20344543410E+02  0.18647808379E+03  0.00000000000E+00 0.  1.
         15    1    3    3    0    0  0.18464406983E+03  0.18895046486E+03 -0.34129277068E+03  0.43160123232E+03  0.17770000000E+01 0. -1.
        -16    1    3    3    0    0  0.26502044777E+03  0.28017128162E+03 -0.35304247065E+03  0.52284870743E+03  0.00000000000E+00 0.  1.
          2    1    6    6  502    0 -0.30608709457E+03 -0.20575023216E+03  0.82565529749E+03  0.90428377060E+03  0.00000000000E+00 0. -1.
         -1    1    6    6    0  502 -0.90984281850E+01  0.18334900338E+01  0.45005066944E+01  0.10314923250E+02  0.00000000000E+00 0.  1.
<mgrwt>
<rscale>  0 0.66463286E+03</rscale>
<asrwt>0</asrwt>
<pdfrwt beam="1">  1        1 0.17879100E+00 0.66463286E+03</pdfrwt>
<pdfrwt beam="2">  1       -2 0.15598225E+00 0.66463286E+03</pdfrwt>
<totfact> 0.28140800E+00</totfact>
</mgrwt>
</event>
<event>
12    3  0.1190542E-007  0.9512271E+03  0.7818608E-02  0.9363717E-01
          1   -1    0    0  501    0  0.00000000000E+00  0.00000000000E+00  0.23047602677E+04  0.23047602677E+04  0.00000000000E+00 0. -1.
         -2   -1    0    0    0  501 -0.00000000000E+00 -0.00000000000E+00 -0.40439540609E+03  0.40439540609E+03  0.00000000000E+00 0.  1.
        -24    2    1    2    0    0 -0.55638915492E+03 -0.66042399366E+03  0.10109596474E+04  0.13319157560E+04  0.78939402456E+02 0.  0.
    5000000    2    1    2    0    0  0.55638915492E+03  0.66042399366E+03  0.88940521413E+03  0.13772399177E+04  0.60001617725E+03 0.  0.
        -24    2    4    4    0    0  0.57620205725E+03  0.73607336991E+03  0.76671484588E+03  0.12109241054E+04  0.68357277922E+02 0.  0.
         24    2    4    4    0    0 -0.19812902327E+02 -0.75649376248E+02  0.12269036825E+03  0.16631581235E+03  0.80576943047E+02 0.  0.
         13    1    5    5    0    0  0.32689254349E+03  0.38185301590E+03  0.44534361967E+03  0.67156637820E+03  0.00000000000E+00 0. -1.
        -14    1    5    5    0    0  0.24930951376E+03  0.35422035400E+03  0.32137122620E+03  0.53935772718E+03  0.00000000000E+00 0.  1.
         15    1    3    3    0    0 -0.38082072869E+03 -0.48618334053E+03  0.76384618430E+03  0.98227430945E+03  0.17770000000E+01 0. -1.
        -16    1    3    3    0    0 -0.17556842623E+03 -0.17424065313E+03  0.24711346314E+03  0.34964144657E+03  0.00000000000E+00 0.  1.
          2    1    6    6  502    0  0.85546739708E+01 -0.72674804075E+02  0.51100064406E+02  0.89252597589E+02  0.00000000000E+00 0. -1.
         -1    1    6    6    0  502 -0.28367576298E+02 -0.29745721726E+01  0.71590303846E+02  0.77063214761E+02  0.00000000000E+00 0.  1.
<mgrwt>
<rscale>  0 0.95122712E+03</rscale>
<asrwt>0</asrwt>
<pdfrwt beam="1">  1        1 0.35457849E+00 0.95122712E+03</pdfrwt>
<pdfrwt beam="2">  1       -2 0.62214679E-01 0.95122712E+03</pdfrwt>
<totfact> 0.39646027E+00</totfact>
</mgrwt>
</event>
<event>
12    3  0.1176505E-007  0.4261324E+03  0.7818608E-02  0.1035089E+00
          1   -1    0    0  501    0  0.00000000000E+00  0.00000000000E+00  0.19463333738E+04  0.19463333738E+04  0.00000000000E+00 0. -1.
         -2   -1    0    0    0  501 -0.00000000000E+00 -0.00000000000E+00 -0.11381239294E+03  0.11381239294E+03  0.00000000000E+00 0.  1.
        -24    2    1    2    0    0 -0.55982491067E+02  0.24425427668E+03  0.78006506861E+03  0.82301815577E+03  0.77866440039E+02 0.  0.
    5000000    2    1    2    0    0  0.55982491067E+02 -0.24425427668E+03  0.10524559123E+04  0.12371276110E+04  0.60002257257E+03 0.  0.
        -24    2    4    4    0    0  0.17651856848E+02 -0.40795488298E+03  0.47887386097E+03  0.63440020729E+03  0.80029205273E+02 0.  0.
         24    2    4    4    0    0  0.38330634218E+02  0.16370060629E+03  0.57358205131E+03  0.60272740370E+03  0.77568212327E+02 0.  0.
         11    1    5    5    0    0  0.45100361407E+02 -0.16011187880E+03  0.17801760820E+03  0.24363933418E+03  0.00000000000E+00 0. -1.
        -12    1    5    5    0    0 -0.27448504558E+02 -0.24784300418E+03  0.30085625277E+03  0.39076087311E+03  0.00000000000E+00 0.  1.
         15    1    3    3    0    0 -0.17410627343E+02  0.12884358559E+03  0.28570131902E+03  0.31389839266E+03  0.17770000000E+01 0. -1.
        -16    1    3    3    0    0 -0.38571863724E+02  0.11541069109E+03  0.49436374959E+03  0.50911976312E+03  0.00000000000E+00 0.  1.
          4    1    6    6  502    0  0.51678523171E+02  0.55516179012E+02  0.21842811667E+03  0.23122188054E+03  0.00000000000E+00 0. -1.
         -3    1    6    6    0  502 -0.13347888952E+02  0.10818442728E+03  0.35515393464E+03  0.37150552315E+03  0.00000000000E+00 0.  1.
<mgrwt>
<rscale>  0 0.42613241E+03</rscale>
<asrwt>0</asrwt>
<pdfrwt beam="1">  1        1 0.29943588E+00 0.42613241E+03</pdfrwt>
<pdfrwt beam="2">  1       -2 0.17509600E-01 0.42613241E+03</pdfrwt>
<totfact> 0.82386084E+01</totfact>
</mgrwt>
</event>
<event>
12    3  0.1176505E-007  0.6692865E+03  0.7818608E-02  0.9771248E-01
         -2   -1    0    0    0  501 -0.00000000000E+00  0.00000000000E+00  0.41623637026E+03  0.41623637026E+03  0.00000000000E+00 0.  1.
          1   -1    0    0  501    0  0.00000000000E+00 -0.00000000000E+00 -0.17621981805E+04  0.17621981805E+04  0.00000000000E+00 0. -1.
        -24    2    1    2    0    0  0.35440831546E+03  0.40769254429E+03 -0.12517970254E+04  0.13657946233E+04  0.81121485611E+02 0.  0.
    5000000    2    1    2    0    0 -0.35440831546E+03 -0.40769254429E+03 -0.94164784860E+02  0.81263992751E+03  0.59974843088E+03 0.  0.
        -24    2    4    4    0    0 -0.43685361088E+03 -0.72259554714E+02 -0.87781498686E+02  0.45843238079E+03  0.79950832760E+02 0.  0.
         24    2    4    4    0    0  0.82445295418E+02 -0.33543298958E+03 -0.63832861746E+01  0.35420754672E+03  0.78164714404E+02 0.  0.
         13    1    5    5    0    0 -0.27619050880E+03 -0.37013533197E+02 -0.93277163092E+02  0.29385681538E+03  0.00000000000E+00 0. -1.
        -14    1    5    5    0    0 -0.16066310208E+03 -0.35246021516E+02  0.54956644065E+01  0.16457556541E+03  0.00000000000E+00 0.  1.
         15    1    3    3    0    0  0.26708528358E+03  0.28354596509E+03 -0.97838147301E+03  0.10530747018E+04  0.17770000000E+01 0. -1.
        -16    1    3    3    0    0  0.87323031884E+02  0.12414657921E+03 -0.27341555238E+03  0.31271992151E+03  0.00000000000E+00 0.  1.
          4    1    6    6  502    0  0.74182267573E+02 -0.13941425676E+03 -0.53309755797E+01  0.15801190813E+03  0.00000000000E+00 0. -1.
         -3    1    6    6    0  502  0.82630278459E+01 -0.19601873282E+03 -0.10523105948E+01  0.19619563859E+03  0.00000000000E+00 0.  1.
<mgrwt>
<rscale>  0 0.66928649E+03</rscale>
<asrwt>0</asrwt>
<pdfrwt beam="1">  1        1 0.27110741E+00 0.66928649E+03</pdfrwt>
<pdfrwt beam="2">  1       -2 0.64036365E-01 0.66928649E+03</pdfrwt>
<totfact> 0.89833830E+00</totfact>
</mgrwt>
</event>
<event>
12    3  0.1176505E-007  0.1183310E+04  0.7818608E-02  0.9127592E-01
          1   -1    0    0  501    0  0.00000000000E+00  0.00000000000E+00  0.12666272728E+04  0.12666272728E+04  0.00000000000E+00 0. -1.
         -2   -1    0    0    0  501 -0.00000000000E+00 -0.00000000000E+00 -0.12073249373E+04  0.12073249373E+04  0.00000000000E+00 0.  1.
        -24    2    1    2    0    0 -0.10688461809E+04  0.33182012684E+03 -0.28612394452E+03  0.11579592408E+04  0.80411049057E+02 0.  0.
    5000000    2    1    2    0    0  0.10688461809E+04 -0.33182012684E+03  0.34542627999E+03  0.13159929692E+04  0.59998452078E+03 0.  0.
        -24    2    4    4    0    0  0.11206416507E+04 -0.28928047251E+03  0.28165203540E+03  0.11939848883E+04  0.82165341461E+02 0.  0.
         24    2    4    4    0    0 -0.51795469777E+02 -0.42539654330E+02  0.63774244595E+02  0.12200808098E+03  0.79538824928E+02 0.  0.
         11    1    5    5    0    0  0.75541518267E+03 -0.22216730980E+03  0.16254795707E+03  0.80401010572E+03  0.00000000000E+00 0. -1.
        -12    1    5    5    0    0  0.36522646801E+03 -0.67113162710E+02  0.11910407833E+03  0.38997478254E+03  0.00000000000E+00 0.  1.
         15    1    3    3    0    0 -0.41236020643E+03  0.10431606573E+03 -0.14154609197E+03  0.44828700104E+03  0.17770000000E+01 0. -1.
        -16    1    3    3    0    0 -0.65648597447E+03  0.22750406110E+03 -0.14457785255E+03  0.70967223980E+03  0.00000000000E+00 0.  1.
          2    1    6    6  502    0 -0.37539957313E+02  0.52066186934E+01 -0.37548700378E+01  0.38084856863E+02  0.00000000000E+00 0. -1.
         -1    1    6    6    0  502 -0.14255512464E+02 -0.47746273024E+02  0.67529114633E+02  0.83923224118E+02  0.00000000000E+00 0.  1.
<mgrwt>
<rscale>  0 0.11833101E+04</rscale>
<asrwt>0</asrwt>
<pdfrwt beam="1">  1        1 0.19486573E+00 0.11833101E+04</pdfrwt>
<pdfrwt beam="2">  1       -2 0.18574230E+00 0.11833101E+04</pdfrwt>
<totfact> 0.13550413E+00</totfact>
</mgrwt>
</event>
<event>
12    3  0.1176505E-007  0.1840284E+04  0.7818608E-02  0.8685166E-01
          1   -1    0    0  501    0  0.00000000000E+00  0.00000000000E+00  0.45512905543E+04  0.45512905543E+04  0.00000000000E+00 0. -1.
         -2   -1    0    0    0  501 -0.00000000000E+00 -0.00000000000E+00 -0.90960591062E+03  0.90960591062E+03  0.00000000000E+00 0.  1.
        -24    2    1    2    0    0 -0.64092903025E+03 -0.16960410060E+04  0.28814534855E+04  0.34053580250E+04  0.79649061456E+02 0.  0.
    5000000    2    1    2    0    0  0.64092903025E+03  0.16960410060E+04  0.76023115817E+03  0.20555384400E+04  0.59995145497E+03 0.  0.
        -24    2    4    4    0    0  0.48886311865E+03  0.15908888036E+04  0.52760240346E+03  0.17478215063E+04  0.81248921813E+02 0.  0.
         24    2    4    4    0    0  0.15206591159E+03  0.10515220241E+03  0.23262875471E+03  0.30771693371E+03  0.79953402866E+02 0.  0.
         11    1    5    5    0    0  0.83031206686E+02  0.33833373000E+03  0.83025555739E+02  0.35813005605E+03  0.00000000000E+00 0. -1.
        -12    1    5    5    0    0  0.40583191197E+03  0.12525550736E+04  0.44457684772E+03  0.13896914502E+04  0.00000000000E+00 0.  1.
         15    1    3    3    0    0 -0.42652656407E+03 -0.10193145577E+04  0.17471635297E+04  0.20672471151E+04  0.17770000000E+01 0. -1.
        -16    1    3    3    0    0 -0.21440246617E+03 -0.67672644833E+03  0.11342899558E+04  0.13381109099E+04  0.00000000000E+00 0.  1.
          2    1    6    6  502    0  0.12032560827E+03  0.11602014199E+03  0.18338697370E+03  0.24813243939E+03  0.00000000000E+00 0. -1.
         -1    1    6    6    0  502  0.31740303321E+02 -0.10867939583E+02  0.49241781018E+02  0.59584494321E+02  0.00000000000E+00 0.  1.
<mgrwt>
<rscale>  0 0.18402837E+04</rscale>
<asrwt>0</asrwt>
<pdfrwt beam="1">  1        1 0.70019853E+00 0.18402837E+04</pdfrwt>
<pdfrwt beam="2">  1       -2 0.13993937E+00 0.18402837E+04</pdfrwt>
<totfact> 0.83255808E-03</totfact>
</mgrwt>
</event>
<event>
12    3  0.1176505E-007  0.5126225E+03  0.7818608E-02  0.1010536E+00
          1   -1    0    0  501    0  0.00000000000E+00  0.00000000000E+00  0.15727336145E+04  0.15727336145E+04  0.00000000000E+00 0. -1.
         -2   -1    0    0    0  501 -0.00000000000E+00 -0.00000000000E+00 -0.26135053165E+03  0.26135053165E+03  0.00000000000E+00 0.  1.
        -24    2    1    2    0    0 -0.29474818844E+03 -0.17355693239E+03  0.10302183149E+04  0.10883877250E+04  0.78990887793E+02 0.  0.
    5000000    2    1    2    0    0  0.29474818844E+03  0.17355693239E+03  0.28116476795E+03  0.74569642108E+03  0.60000918519E+03 0.  0.
        -24    2    4    4    0    0  0.33975685239E+03  0.34616515526E+03  0.23537894334E+03  0.54503491225E+03  0.79967338010E+02 0.  0.
         24    2    4    4    0    0 -0.45008663947E+02 -0.17260822287E+03  0.45785824615E+02  0.20066150883E+03  0.79682626458E+02 0.  0.
         11    1    5    5    0    0  0.10358941380E+03  0.59384517208E+02  0.69692987401E+02  0.13825483727E+03  0.00000000000E+00 0. -1.
        -12    1    5    5    0    0  0.23616743859E+03  0.28678063805E+03  0.16568595594E+03  0.40678007499E+03  0.00000000000E+00 0.  1.
         15    1    3    3    0    0 -0.10480252807E+03 -0.21083096527E+02  0.28652784858E+03  0.30582582067E+03  0.17770000000E+01 0. -1.
        -16    1    3    3    0    0 -0.18994566037E+03 -0.15247383586E+03  0.74369046628E+03  0.78256190436E+03  0.00000000000E+00 0.  1.
          4    1    6    6  502    0 -0.17211681006E+02 -0.13974526301E+03  0.63065983227E+02  0.15427993627E+03  0.00000000000E+00 0. -1.
         -3    1    6    6    0  502 -0.27796982940E+02 -0.32862959857E+02 -0.17280158611E+02  0.46381572556E+02  0.00000000000E+00 0.  1.
<mgrwt>
<rscale>  0 0.51262250E+03</rscale>
<asrwt>0</asrwt>
<pdfrwt beam="1">  1        1 0.24195901E+00 0.51262250E+03</pdfrwt>
<pdfrwt beam="2">  1       -2 0.40207775E-01 0.51262250E+03</pdfrwt>
<totfact> 0.31850360E+01</totfact>
</mgrwt>
</event>
<event>
12    3  0.1176505E-007  0.1008671E+04  0.7818608E-02  0.9299085E-01
          1   -1    0    0  501    0  0.00000000000E+00  0.00000000000E+00  0.74981457721E+03  0.74981457721E+03  0.00000000000E+00 0. -1.
         -2   -1    0    0    0  501 -0.00000000000E+00 -0.00000000000E+00 -0.14353930773E+04  0.14353930773E+04  0.00000000000E+00 0.  1.
        -24    2    1    2    0    0 -0.71320931066E+03 -0.61518584038E+03 -0.19265018358E+03  0.96470141486E+03  0.80084877337E+02 0.  0.
    5000000    2    1    2    0    0  0.71320931066E+03  0.61518584038E+03 -0.49292831655E+03  0.12205062397E+04  0.59961322270E+03 0.  0.
        -24    2    4    4    0    0  0.39505457543E+03  0.14551690839E+02 -0.53949167561E+02  0.40694271075E+03  0.80074889188E+02 0.  0.
         24    2    4    4    0    0  0.31815473523E+03  0.60063414954E+03 -0.43897914899E+03  0.81356352894E+03  0.84847541017E+02 0.  0.
         13    1    5    5    0    0  0.15211391865E+02  0.34238756855E+01  0.13945935515E+02  0.20918854762E+02  0.00000000000E+00 0. -1.
        -14    1    5    5    0    0  0.37984318356E+03  0.11127815153E+02 -0.67895103075E+02  0.38602385599E+03  0.00000000000E+00 0.  1.
         15    1    3    3    0    0 -0.33903827014E+03 -0.29068589281E+03 -0.13214933200E+03  0.46573795268E+03  0.17770000000E+01 0. -1.
        -16    1    3    3    0    0 -0.37417104052E+03 -0.32449994758E+03 -0.60500851579E+02  0.49896346217E+03  0.00000000000E+00 0.  1.
          2    1    6    6  502    0  0.31051237001E+03  0.58049397316E+03 -0.44027919019E+03  0.79198292287E+03  0.00000000000E+00 0. -1.
         -1    1    6    6    0  502  0.76423652251E+01  0.20140176385E+02  0.13000412009E+01  0.21580606066E+02  0.00000000000E+00 0.  1.
<mgrwt>
<rscale>  0 0.10086712E+04</rscale>
<asrwt>0</asrwt>
<pdfrwt beam="1">  1        1 0.11535609E+00 0.10086712E+04</pdfrwt>
<pdfrwt beam="2">  1       -2 0.22082970E+00 0.10086712E+04</pdfrwt>
<totfact> 0.20915469E+00</totfact>
</mgrwt>
</event>
<event>
12    3  0.1176505E-007  0.1308230E+04  0.7818608E-02  0.9023064E-01
         -2   -1    0    0    0  501 -0.00000000000E+00  0.00000000000E+00  0.13566492745E+04  0.13566492745E+04  0.00000000000E+00 0.  1.
          1   -1    0    0  501    0  0.00000000000E+00 -0.00000000000E+00 -0.14375085427E+04  0.14375085427E+04  0.00000000000E+00 0. -1.
        -24    2    1    2    0    0  0.10091000854E+04  0.75472683591E+03 -0.46684328120E+03  0.13461230675E+04  0.78797743691E+02 0.  0.
    5000000    2    1    2    0    0 -0.10091000854E+04 -0.75472683591E+03  0.38598401303E+03  0.14480347498E+04  0.59993782924E+03 0.  0.
        -24    2    4    4    0    0 -0.26949256729E+03 -0.50851959955E+03  0.13895455179E+02  0.58127834744E+03  0.80454997271E+02 0.  0.
         24    2    4    4    0    0 -0.73960751812E+03 -0.24620723636E+03  0.37208855786E+03  0.86675640231E+03  0.71968617840E+02 0.  0.
         11    1    5    5    0    0 -0.12773403519E+03 -0.26739894495E+03 -0.31133999852E+02  0.29797232330E+03  0.00000000000E+00 0. -1.
        -12    1    5    5    0    0 -0.14175853209E+03 -0.24112065460E+03  0.45029455031E+02  0.28330602414E+03  0.00000000000E+00 0.  1.
         15    1    3    3    0    0  0.70390996408E+03  0.55166350326E+03 -0.29936523809E+03  0.94310368564E+03  0.17770000000E+01 0. -1.
        -16    1    3    3    0    0  0.30519012133E+03  0.20306333265E+03 -0.16747804311E+03  0.40301938185E+03  0.00000000000E+00 0.  1.
          4    1    6    6  502    0 -0.56205750614E+03 -0.18712002266E+03  0.24786238671E+03  0.64215131070E+03  0.00000000000E+00 0. -1.
         -3    1    6    6    0  502 -0.17755001198E+03 -0.59087213705E+02  0.12422617115E+03  0.22460509160E+03  0.00000000000E+00 0.  1.
<mgrwt>
<rscale>  0 0.13082296E+04</rscale>
<asrwt>0</asrwt>
<pdfrwt beam="1">  1        1 0.22115516E+00 0.13082296E+04</pdfrwt>
<pdfrwt beam="2">  1       -2 0.20871527E+00 0.13082296E+04</pdfrwt>
<totfact> 0.71222384E-01</totfact>
</mgrwt>
</event>
<event>
12    3  0.1176505E-007  0.5891852E+03  0.7818608E-02  0.9928101E-01
          1   -1    0    0  501    0  0.00000000000E+00  0.00000000000E+00  0.80869796374E+03  0.80869796374E+03  0.00000000000E+00 0. -1.
         -2   -1    0    0    0  501 -0.00000000000E+00 -0.00000000000E+00 -0.10556599452E+04  0.10556599452E+04  0.00000000000E+00 0.  1.
        -24    2    1    2    0    0  0.93600142953E+02  0.51525570774E+03 -0.75309333495E+03  0.92073434888E+03  0.79704071057E+02 0.  0.
    5000000    2    1    2    0    0 -0.93600142953E+02 -0.51525570774E+03  0.50613135350E+03  0.94362356005E+03  0.60000587078E+03 0.  0.
        -24    2    4    4    0    0 -0.66462830753E+02  0.47039610996E+02 -0.70353878507E+02  0.13412946386E+03  0.80068795303E+02 0.  0.
         24    2    4    4    0    0 -0.27137312199E+02 -0.56229531874E+03  0.57648523201E+03  0.80949409619E+03  0.77672452322E+02 0.  0.
         11    1    5    5    0    0 -0.69061262872E+02  0.45859514650E+02 -0.22106465099E+02  0.85797720905E+02  0.00000000000E+00 0. -1.
        -12    1    5    5    0    0  0.25984321189E+01  0.11800963469E+01 -0.48247413409E+02  0.48331742959E+02  0.00000000000E+00 0.  1.
         15    1    3    3    0    0  0.34747618445E+02  0.28945589855E+03 -0.35584795071E+03  0.46002503839E+03  0.17770000000E+01 0. -1.
        -16    1    3    3    0    0  0.58852524508E+02  0.22579980919E+03 -0.39724538425E+03  0.46070931049E+03  0.00000000000E+00 0.  1.
          2    1    6    6  502    0  0.25619367368E+02 -0.18824410382E+03  0.17628783119E+03  0.25917097452E+03  0.00000000000E+00 0. -1.
         -1    1    6    6    0  502 -0.52756679567E+02 -0.37405121491E+03  0.40019740082E+03  0.55032312167E+03  0.00000000000E+00 0.  1.
<mgrwt>
<rscale>  0 0.58918523E+03</rscale>
<asrwt>0</asrwt>
<pdfrwt beam="1">  1        1 0.12441507E+00 0.58918523E+03</pdfrwt>
<pdfrwt beam="2">  1       -2 0.16240922E+00 0.58918523E+03</pdfrwt>
<totfact> 0.48281686E+00</totfact>
</mgrwt>
</event>
<event>
12    3  0.1203964E-007  0.7432506E+03  0.7818608E-02  0.9645999E-01
         -2   -1    0    0    0  501 -0.00000000000E+00  0.00000000000E+00  0.43354510075E+03  0.43354510075E+03  0.00000000000E+00 0.  1.
          1   -1    0    0  501    0  0.00000000000E+00 -0.00000000000E+00 -0.15330820226E+04  0.15330820226E+04  0.00000000000E+00 0. -1.
        -24    2    1    2    0    0 -0.49803035511E+03 -0.39441714055E+03 -0.83767006459E+03  0.10543677230E+04  0.80006517078E+02 0.  0.
    5000000    2    1    2    0    0  0.49803035511E+03  0.39441714055E+03 -0.26186685730E+03  0.91225940041E+03  0.60003653831E+03 0.  0.
        -24    2    4    4    0    0  0.42927225530E+01  0.33533744490E+03  0.49470727319E+00  0.34433378997E+03  0.78076147208E+02 0.  0.
         24    2    4    4    0    0  0.49373763256E+03  0.59079695655E+02 -0.26236156458E+03  0.56792561044E+03  0.80241187577E+02 0.  0.
         11    1    5    5    0    0 -0.36549753865E+02  0.14488771894E+03 -0.44174046054E+01  0.14949196992E+03  0.00000000000E+00 0. -1.
        -12    1    5    5    0    0  0.40842476418E+02  0.19044972596E+03  0.49121118786E+01  0.19484182005E+03  0.00000000000E+00 0.  1.
         15    1    3    3    0    0 -0.15204892644E+03 -0.81547917230E+02 -0.19712978177E+03  0.26197757047E+03  0.17770000000E+01 0. -1.
        -16    1    3    3    0    0 -0.34598142867E+03 -0.31286922332E+03 -0.64054028281E+03  0.79239015251E+03  0.00000000000E+00 0.  1.
          4    1    6    6  502    0  0.18163686552E+03 -0.15807436489E+02 -0.10610869112E+03  0.21095231759E+03  0.00000000000E+00 0. -1.
         -3    1    6    6    0  502  0.31210076704E+03  0.74887132143E+02 -0.15625287345E+03  0.35697329285E+03  0.00000000000E+00 0.  1.
<mgrwt>
<rscale>  0 0.74325056E+03</rscale>
<asrwt>0</asrwt>
<pdfrwt beam="1">  1        1 0.23585877E+00 0.74325056E+03</pdfrwt>
<pdfrwt beam="2">  1       -2 0.66699247E-01 0.74325056E+03</pdfrwt>
<totfact> 0.11621053E+01</totfact>
</mgrwt>
</event>
<event>
12    3  0.1176505E-007  0.5740609E+03  0.7818608E-02  0.9960733E-01
          1   -1    0    0  501    0  0.00000000000E+00  0.00000000000E+00  0.17879557843E+04  0.17879557843E+04  0.00000000000E+00 0. -1.
         -2   -1    0    0    0  501 -0.00000000000E+00 -0.00000000000E+00 -0.25740411310E+03  0.25740411310E+03  0.00000000000E+00 0.  1.
        -24    2    1    2    0    0  0.62259866047E+02 -0.51693819522E+03  0.84776921853E+03  0.99783538630E+03  0.76559922070E+02 0.  0.
    5000000    2    1    2    0    0 -0.62259866047E+02  0.51693819522E+03  0.68278245266E+03  0.10475245111E+04  0.60001194578E+03 0.  0.
        -24    2    4    4    0    0 -0.18308555953E+03  0.40592194598E+03  0.73110476578E+03  0.85930934066E+03  0.74869326527E+02 0.  0.
         24    2    4    4    0    0  0.12082569349E+03  0.11101624923E+03 -0.48322313118E+02  0.18821517044E+03  0.78526738357E+02 0.  0.
         11    1    5    5    0    0 -0.55952653264E+02  0.86538028082E+02  0.22528605577E+03  0.24773642573E+03  0.00000000000E+00 0. -1.
        -12    1    5    5    0    0 -0.12713290627E+03  0.31938391790E+03  0.50581871001E+03  0.61157291492E+03  0.00000000000E+00 0.  1.
         15    1    3    3    0    0  0.39972262047E+02 -0.40892382800E+03  0.72055175313E+03  0.82946637395E+03  0.17770000000E+01 0. -1.
        -16    1    3    3    0    0  0.22287604000E+02 -0.10801436722E+03  0.12721746540E+03  0.16836901235E+03  0.00000000000E+00 0.  1.
          4    1    6    6  502    0  0.29276398421E+01  0.44861584812E+02 -0.95566180406E+00  0.44967167538E+02  0.00000000000E+00 0. -1.
         -3    1    6    6    0  502  0.11789805364E+03  0.66154664420E+02 -0.47366651314E+02  0.14324800290E+03  0.00000000000E+00 0.  1.
<mgrwt>
<rscale>  0 0.57406088E+03</rscale>
<asrwt>0</asrwt>
<pdfrwt beam="1">  1        1 0.27507011E+00 0.57406088E+03</pdfrwt>
<pdfrwt beam="2">  1       -2 0.39600634E-01 0.57406088E+03</pdfrwt>
<totfact> 0.23316046E+01</totfact>
</mgrwt>
</event>
<event>
12    3  0.1176505E-007  0.5956820E+03  0.7818608E-02  0.9914405E-01
         -2   -1    0    0    0  501 -0.00000000000E+00  0.00000000000E+00  0.35439682491E+03  0.35439682491E+03  0.00000000000E+00 0.  1.
          1   -1    0    0  501    0  0.00000000000E+00 -0.00000000000E+00 -0.11758788357E+04  0.11758788357E+04  0.00000000000E+00 0. -1.
        -24    2    1    2    0    0 -0.31787498206E+03 -0.38874355600E+03 -0.31707113186E+03  0.59972330986E+03  0.83473883236E+02 0.  0.
    5000000    2    1    2    0    0  0.31787498206E+03  0.38874355600E+03 -0.50441087895E+03  0.93055235076E+03  0.59944247944E+03 0.  0.
        -24    2    4    4    0    0  0.20389921042E+03 -0.67535023786E+02 -0.37009446081E+03  0.43523486625E+03  0.79521138268E+02 0.  0.
         24    2    4    4    0    0  0.11397577164E+03  0.45627857978E+03 -0.13431641814E+03  0.49531748452E+03  0.78216950810E+02 0.  0.
         13    1    5    5    0    0  0.68959777571E+02 -0.35838251641E+02 -0.69661655170E+02  0.10436751125E+03  0.00000000000E+00 0. -1.
        -14    1    5    5    0    0  0.13493943285E+03 -0.31696772145E+02 -0.30043280564E+03  0.33086735500E+03  0.00000000000E+00 0.  1.
         15    1    3    3    0    0 -0.28383468092E+03 -0.33406581617E+03 -0.30541457413E+03  0.53426895422E+03  0.17770000000E+01 0. -1.
        -16    1    3    3    0    0 -0.34040301139E+02 -0.54677739828E+02 -0.11656557739E+02  0.65454355643E+02  0.00000000000E+00 0.  1.
          4    1    6    6  502    0  0.15198683659E+02  0.21046006229E+02  0.75083306252E+01  0.27024237120E+02  0.00000000000E+00 0. -1.
         -3    1    6    6    0  502  0.98777087979E+02  0.43523257356E+03 -0.14182474877E+03  0.46829324740E+03  0.00000000000E+00 0.  1.
<mgrwt>
<rscale>  0 0.59568205E+03</rscale>
<asrwt>0</asrwt>
<pdfrwt beam="1">  1        1 0.18090443E+00 0.59568205E+03</pdfrwt>
<pdfrwt beam="2">  1       -2 0.54522589E-01 0.59568205E+03</pdfrwt>
<totfact> 0.32234055E+01</totfact>
</mgrwt>
</event>
<event>
12    3  0.1176505E-007  0.1130131E+04  0.7818608E-02  0.9176311E-01
          1   -1    0    0  501    0  0.00000000000E+00  0.00000000000E+00  0.13751265853E+04  0.13751265853E+04  0.00000000000E+00 0. -1.
         -2   -1    0    0    0  501 -0.00000000000E+00 -0.00000000000E+00 -0.10612069416E+04  0.10612069416E+04  0.00000000000E+00 0.  1.
        -24    2    1    2    0    0 -0.13013796528E+03 -0.10683239371E+04  0.50130596782E+03  0.11900016149E+04  0.80896510913E+02 0.  0.
    5000000    2    1    2    0    0  0.13013796528E+03  0.10683239371E+04 -0.18738632412E+03  0.12463319120E+04  0.59998139630E+03 0.  0.
        -24    2    4    4    0    0 -0.34063595919E+02  0.99959605032E+03 -0.41845056004E+02  0.10044184568E+04  0.82175636946E+02 0.  0.
         24    2    4    4    0    0  0.16420156119E+03  0.68727886760E+02 -0.14554126812E+03  0.24191345520E+03  0.75194308060E+02 0.  0.
         13    1    5    5    0    0 -0.53898399861E+01  0.30443729555E+03 -0.50331250701E+02  0.30861683702E+03  0.00000000000E+00 0. -1.
        -14    1    5    5    0    0 -0.28673755933E+02  0.69515875477E+03  0.84861946963E+01  0.69580161980E+03  0.00000000000E+00 0.  1.
         15    1    3    3    0    0 -0.12160792318E+03 -0.68272035518E+03  0.32951854115E+03  0.76777678856E+03  0.17770000000E+01 0. -1.
        -16    1    3    3    0    0 -0.85300420914E+01 -0.38560358190E+03  0.17178742666E+03  0.42222482631E+03  0.00000000000E+00 0.  1.
          2    1    6    6  502    0  0.16237591267E+03  0.61868555065E+02 -0.15306818895E+03  0.23156754001E+03  0.00000000000E+00 0. -1.
         -1    1    6    6    0  502  0.18256485285E+01  0.68593316945E+01  0.75269208316E+01  0.10345915187E+02  0.00000000000E+00 0.  1.
<mgrwt>
<rscale>  0 0.11301314E+04</rscale>
<asrwt>0</asrwt>
<pdfrwt beam="1">  1        1 0.21155794E+00 0.11301314E+04</pdfrwt>
<pdfrwt beam="2">  1       -2 0.16326261E+00 0.11301314E+04</pdfrwt>
<totfact> 0.16425646E+00</totfact>
</mgrwt>
</event>
<event>
12    3  0.1176505E-007  0.4830594E+03  0.7818608E-02  0.1018298E+00
         -2   -1    0    0    0  501 -0.00000000000E+00  0.00000000000E+00  0.56676411537E+03  0.56676411537E+03  0.00000000000E+00 0.  1.
          1   -1    0    0  501    0  0.00000000000E+00 -0.00000000000E+00 -0.63768202060E+03  0.63768202060E+03  0.00000000000E+00 0. -1.
        -24    2    1    2    0    0  0.19457496993E+03  0.31450420627E+03  0.22486719656E+03  0.43994564864E+03  0.78832753276E+02 0.  0.
    5000000    2    1    2    0    0 -0.19457496993E+03 -0.31450420627E+03 -0.29578510180E+03  0.76450048733E+03  0.60016652189E+03 0.  0.
        -24    2    4    4    0    0 -0.25387249730E+03  0.14074388095E+02  0.56246935058E+02  0.27239579353E+03  0.79915063303E+02 0.  0.
         24    2    4    4    0    0  0.59297527369E+02 -0.32857859436E+03 -0.35203203685E+03  0.49210469380E+03  0.82221562029E+02 0.  0.
         13    1    5    5    0    0 -0.23081891022E+03  0.88592124080E+01  0.23742032492E+02  0.23220581188E+03  0.00000000000E+00 0. -1.
        -14    1    5    5    0    0 -0.23053587078E+02  0.52151756873E+01  0.32504902566E+02  0.40189981655E+02  0.00000000000E+00 0.  1.
         15    1    3    3    0    0  0.15140421254E+03  0.17473537786E+03  0.12517385307E+03  0.26292078479E+03  0.17770000000E+01 0. -1.
        -16    1    3    3    0    0  0.43170757390E+02  0.13976882840E+03  0.99693343490E+02  0.17702486385E+03  0.00000000000E+00 0.  1.
          4    1    6    6  502    0  0.19157028338E+02 -0.84811562231E+02 -0.44633809462E+02  0.97735202306E+02  0.00000000000E+00 0. -1.
         -3    1    6    6    0  502  0.40140499031E+02 -0.24376703213E+03 -0.30739822739E+03  0.39436949149E+03  0.00000000000E+00 0.  1.
<mgrwt>
<rscale>  0 0.48305942E+03</rscale>
<asrwt>0</asrwt>
<pdfrwt beam="1">  1        1 0.98104926E-01 0.48305942E+03</pdfrwt>
<pdfrwt beam="2">  1       -2 0.87194480E-01 0.48305942E+03</pdfrwt>
<totfact> 0.32645131E+01</totfact>
</mgrwt>
</event>
<event>
12    3  0.1176505E-007  0.5224388E+03  0.7818608E-02  0.1008083E+00
         -2   -1    0    0    0  501 -0.00000000000E+00  0.00000000000E+00  0.70118640226E+03  0.70118640226E+03  0.00000000000E+00 0.  1.
          1   -1    0    0  501    0  0.00000000000E+00 -0.00000000000E+00 -0.70096620772E+03  0.70096620772E+03  0.00000000000E+00 0. -1.
        -24    2    1    2    0    0 -0.32166270247E+03 -0.24555813783E+03  0.40067201959E+03  0.57501113511E+03  0.79586713752E+02 0.  0.
    5000000    2    1    2    0    0  0.32166270247E+03  0.24555813783E+03 -0.40045182504E+03  0.82714147486E+03  0.60002971763E+03 0.  0.
        -24    2    4    4    0    0  0.10962746175E+03 -0.14842329330E+03 -0.30827193373E+03  0.36355268412E+03  0.55599592125E+02 0.  0.
         24    2    4    4    0    0  0.21203524073E+03  0.39398143113E+03 -0.92179891313E+02  0.46358879074E+03  0.78975459141E+02 0.  0.
         11    1    5    5    0    0  0.21799547551E+02 -0.36002902441E+02 -0.12114123231E+03  0.12824440503E+03  0.00000000000E+00 0. -1.
        -12    1    5    5    0    0  0.87827914196E+02 -0.11242039086E+03 -0.18713070142E+03  0.23530827909E+03  0.00000000000E+00 0.  1.
         15    1    3    3    0    0 -0.17154105846E+03 -0.81123163176E+02  0.18654637946E+03  0.26610150650E+03  0.17770000000E+01 0. -1.
        -16    1    3    3    0    0 -0.15012164401E+03 -0.16443497466E+03  0.21412564012E+03  0.30890962861E+03  0.00000000000E+00 0.  1.
          2    1    6    6  502    0  0.72189113752E+02  0.11831200185E+03  0.75066266781E+01  0.13879966632E+03  0.00000000000E+00 0. -1.
         -1    1    6    6    0  502  0.13984612697E+03  0.27566942929E+03 -0.99686517992E+02  0.32478912442E+03  0.00000000000E+00 0.  1.
<mgrwt>
<rscale>  0 0.52243883E+03</rscale>
<asrwt>0</asrwt>
<pdfrwt beam="1">  1        1 0.10784096E+00 0.52243883E+03</pdfrwt>
<pdfrwt beam="2">  1       -2 0.10787483E+00 0.52243883E+03</pdfrwt>
<totfact> 0.17180508E+01</totfact>
</mgrwt>
</event>
<event>
12    3  0.1176505E-007  0.9270732E+03  0.7818608E-02  0.9392357E-01
         -2   -1    0    0    0  501 -0.00000000000E+00  0.00000000000E+00  0.31424141846E+04  0.31424141846E+04  0.00000000000E+00 0.  1.
          1   -1    0    0  501    0  0.00000000000E+00 -0.00000000000E+00 -0.58159642828E+03  0.58159642828E+03  0.00000000000E+00 0. -1.
        -24    2    1    2    0    0 -0.86050046886E+03  0.65181693101E+02  0.25280510499E+04  0.26724527772E+04  0.79069751882E+02 0.  0.
    5000000    2    1    2    0    0  0.86050046886E+03 -0.65181693101E+02  0.32766706399E+02  0.10515578356E+04  0.59999209543E+03 0.  0.
        -24    2    4    4    0    0  0.85386294728E+03  0.61651972038E+02  0.13419484497E+03  0.87030065516E+03  0.80821256920E+02 0.  0.
         24    2    4    4    0    0  0.66375215776E+01 -0.12683366514E+03 -0.10142813857E+03  0.18125718045E+03  0.80222583266E+02 0.  0.
         11    1    5    5    0    0  0.63041177481E+03  0.72167154407E+02  0.12286933035E+03  0.64631569402E+03  0.00000000000E+00 0. -1.
        -12    1    5    5    0    0  0.22345117247E+03 -0.10515182369E+02  0.11325514624E+02  0.22398496114E+03  0.00000000000E+00 0.  1.
         15    1    3    3    0    0 -0.80363195213E+02  0.29420797213E+02  0.25598286116E+03  0.26991518926E+03  0.17770000000E+01 0. -1.
        -16    1    3    3    0    0 -0.78013727364E+03  0.35760895887E+02  0.22720681887E+04  0.24025375880E+04  0.00000000000E+00 0.  1.
          2    1    6    6  502    0 -0.66579132363E+01 -0.89262819166E+02 -0.10863033147E+03  0.14075769112E+03  0.00000000000E+00 0. -1.
         -1    1    6    6    0  502  0.13295434814E+02 -0.37570845973E+02  0.72021928921E+01  0.40499489336E+02  0.00000000000E+00 0.  1.
<mgrwt>
<rscale>  0 0.92707324E+03</rscale>
<asrwt>0</asrwt>
<pdfrwt beam="1">  1        1 0.89476375E-01 0.92707324E+03</pdfrwt>
<pdfrwt beam="2">  1       -2 0.48344833E+00 0.92707324E+03</pdfrwt>
<totfact> 0.67936227E-02</totfact>
</mgrwt>
</event>
<event>
12    3  0.1176505E-007  0.5660674E+03  0.7818608E-02  0.9978419E-01
          1   -1    0    0  501    0  0.00000000000E+00  0.00000000000E+00  0.77906450117E+03  0.77906450117E+03  0.00000000000E+00 0. -1.
         -2   -1    0    0    0  501 -0.00000000000E+00 -0.00000000000E+00 -0.42090296680E+03  0.42090296680E+03  0.00000000000E+00 0.  1.
        -24    2    1    2    0    0  0.28563588039E+03  0.29474167818E+03  0.12446784319E+03  0.43642509847E+03  0.80710033902E+02 0.  0.
    5000000    2    1    2    0    0 -0.28563588039E+03 -0.29474167818E+03  0.23369369118E+03  0.76354236949E+03  0.59993640970E+03 0.  0.
        -24    2    4    4    0    0  0.16036604998E+02  0.15673644195E+03  0.33604999082E+02  0.17942974766E+03  0.79007932819E+02 0.  0.
         24    2    4    4    0    0 -0.30167248539E+03 -0.45147812012E+03  0.20008869210E+03  0.58411262183E+03  0.79456207320E+02 0.  0.
         13    1    5    5    0    0 -0.24332400438E+02  0.62825792120E+02 -0.10343918472E+02  0.68162618171E+02  0.00000000000E+00 0. -1.
        -14    1    5    5    0    0  0.40369005436E+02  0.93910649829E+02  0.43948917553E+02  0.11126712949E+03  0.00000000000E+00 0.  1.
         15    1    3    3    0    0  0.25495001649E+03  0.23168872620E+03  0.80917188478E+02  0.35387840550E+03  0.17770000000E+01 0. -1.
        -16    1    3    3    0    0  0.30685863894E+02  0.63052951976E+02  0.43550654707E+02  0.82546692975E+02  0.00000000000E+00 0.  1.
          4    1    6    6  502    0 -0.20736055827E+03 -0.24537589831E+03  0.13334317304E+03  0.34783348659E+03  0.00000000000E+00 0. -1.
         -3    1    6    6    0  502 -0.94311927116E+02 -0.20610222182E+03  0.66745519059E+02  0.23627913524E+03  0.00000000000E+00 0.  1.
<mgrwt>
<rscale>  0 0.56606739E+03</rscale>
<asrwt>0</asrwt>
<pdfrwt beam="1">  1        1 0.11985608E+00 0.56606739E+03</pdfrwt>
<pdfrwt beam="2">  1       -2 0.64754303E-01 0.56606739E+03</pdfrwt>
<totfact> 0.46140515E+01</totfact>
</mgrwt>
</event>
<event>
12    3  0.1176505E-007  0.9183981E+03  0.7818608E-02  0.9402871E-01
         -2   -1    0    0    0  501 -0.00000000000E+00  0.00000000000E+00  0.37014903448E+03  0.37014903448E+03  0.00000000000E+00 0.  1.
          1   -1    0    0  501    0  0.00000000000E+00 -0.00000000000E+00 -0.26342418511E+04  0.26342418511E+04  0.00000000000E+00 0. -1.
        -24    2    1    2    0    0  0.55046442866E+02 -0.82127544763E+03 -0.49723946026E+03  0.96499247299E+03  0.80249114214E+02 0.  0.
    5000000    2    1    2    0    0 -0.55046442866E+02  0.82127544763E+03 -0.17668533563E+04  0.20393984126E+04  0.59987634614E+03 0.  0.
        -24    2    4    4    0    0  0.86936827427E+01  0.88799491216E+03 -0.14838910332E+04  0.17311596375E+04  0.79815710676E+02 0.  0.
         24    2    4    4    0    0 -0.63740125608E+02 -0.66719464538E+02 -0.28296232310E+03  0.30823877512E+03  0.80182140369E+02 0.  0.
         11    1    5    5    0    0 -0.32356264595E+02  0.22531966113E+03 -0.38609687809E+03  0.44820383401E+03  0.00000000000E+00 0. -1.
        -12    1    5    5    0    0  0.41049947337E+02  0.66267525104E+03 -0.10977941551E+04  0.12829558034E+04  0.00000000000E+00 0.  1.
         15    1    3    3    0    0  0.67789810163E+02 -0.74921629368E+03 -0.46931588192E+03  0.88666852196E+03  0.17770000000E+01 0. -1.
        -16    1    3    3    0    0 -0.12743367298E+02 -0.72059153945E+02 -0.27923578345E+02  0.78323951030E+02  0.00000000000E+00 0.  1.
          4    1    6    6  502    0 -0.53856374434E+02 -0.15811587456E+01 -0.15860695704E+03  0.16750873396E+03  0.00000000000E+00 0. -1.
         -3    1    6    6    0  502 -0.98837511747E+01 -0.65138305792E+02 -0.12435536606E+03  0.14073004117E+03  0.00000000000E+00 0.  1.
<mgrwt>
<rscale>  0 0.91839811E+03</rscale>
<asrwt>0</asrwt>
<pdfrwt beam="1">  1        1 0.40526797E+00 0.91839811E+03</pdfrwt>
<pdfrwt beam="2">  1       -2 0.56946006E-01 0.91839811E+03</pdfrwt>
<totfact> 0.28561016E+00</totfact>
</mgrwt>
</event>
<event>
12    3  0.1176505E-007  0.1491317E+04  0.7818608E-02  0.8890247E-01
         -2   -1    0    0    0  501 -0.00000000000E+00  0.00000000000E+00  0.18855824743E+04  0.18855824743E+04  0.00000000000E+00 0.  1.
          1   -1    0    0  501    0  0.00000000000E+00 -0.00000000000E+00 -0.25435899323E+04  0.25435899323E+04  0.00000000000E+00 0. -1.
        -24    2    1    2    0    0 -0.70356409824E+03  0.12596449973E+04 -0.19322774379E+04  0.24128573207E+04  0.80476043034E+02 0.  0.
    5000000    2    1    2    0    0  0.70356409824E+03 -0.12596449973E+04  0.12742699799E+04  0.20163150859E+04  0.60004548538E+03 0.  0.
        -24    2    4    4    0    0  0.11979111389E+03 -0.75270658593E+03  0.47643312282E+03  0.90238494587E+03  0.79955953824E+02 0.  0.
         24    2    4    4    0    0  0.58377298435E+03 -0.50693841137E+03  0.79783685710E+03  0.11139301401E+04  0.80741911226E+02 0.  0.
         13    1    5    5    0    0  0.84803432213E+02 -0.52058181052E+03  0.37214927117E+03  0.64551694292E+03  0.00000000000E+00 0. -1.
        -14    1    5    5    0    0  0.34987681681E+02 -0.23212477542E+03  0.10428385164E+03  0.25686800296E+03  0.00000000000E+00 0.  1.
         15    1    3    3    0    0 -0.18085072397E+03  0.38329705117E+03 -0.53023259520E+03  0.67880289962E+03  0.17770000000E+01 0. -1.
        -16    1    3    3    0    0 -0.52271337427E+03  0.87634794613E+03 -0.14020448427E+04  0.17340544211E+04  0.00000000000E+00 0.  1.
          4    1    6    6  502    0  0.19174304149E+03 -0.21044264037E+03  0.32205777977E+03  0.42985196563E+03  0.00000000000E+00 0. -1.
         -1    1    6    6    0  502  0.39202994285E+03 -0.29649577100E+03  0.47577907733E+03  0.68407817443E+03  0.00000000000E+00 0.  1.
<mgrwt>
<rscale>  0 0.14913175E+04</rscale>
<asrwt>0</asrwt>
<pdfrwt beam="1">  1        1 0.39132153E+00 0.14913175E+04</pdfrwt>
<pdfrwt beam="2">  1       -2 0.29008961E+00 0.14913175E+04</pdfrwt>
<totfact> 0.38118734E-02</totfact>
</mgrwt>
</event>
<event>
12    3  0.1176505E-007  0.4443882E+03  0.7818608E-02  0.1029409E+00
         -2   -1    0    0    0  501 -0.00000000000E+00  0.00000000000E+00  0.44053038713E+03  0.44053038713E+03  0.00000000000E+00 0.  1.
          1   -1    0    0  501    0  0.00000000000E+00 -0.00000000000E+00 -0.73306908902E+03  0.73306908902E+03  0.00000000000E+00 0. -1.
        -24    2    1    2    0    0 -0.12539223738E+03  0.38001272738E+03 -0.43198558160E+02  0.41029469534E+03  0.79641292242E+02 0.  0.
    5000000    2    1    2    0    0  0.12539223738E+03 -0.38001272738E+03 -0.24934014373E+03  0.76330478081E+03  0.60027559918E+03 0.  0.
        -24    2    4    4    0    0 -0.44352027592E+02 -0.24645759525E+03 -0.40705069651E+03  0.48423932481E+03  0.78032080281E+02 0.  0.
         24    2    4    4    0    0  0.16974426497E+03 -0.13355513213E+03  0.15771055278E+03  0.27906545600E+03  0.79717134092E+02 0.  0.
         13    1    5    5    0    0  0.32359986412E+01 -0.14745105559E+03 -0.18581549720E+03  0.23723339664E+03  0.00000000000E+00 0. -1.
        -14    1    5    5    0    0 -0.47588026233E+02 -0.99006539662E+02 -0.22123519931E+03  0.24700592817E+03  0.00000000000E+00 0.  1.
         15    1    3    3    0    0 -0.19398131112E+02  0.10990442578E+03  0.19835702849E+02  0.11336614633E+03  0.17770000000E+01 0. -1.
        -16    1    3    3    0    0 -0.10599410627E+03  0.27010830160E+03 -0.63034261009E+02  0.29692854901E+03  0.00000000000E+00 0.  1.
          2    1    6    6  502    0  0.90742197977E+02 -0.11847657169E+03  0.11169195296E+03  0.18640262039E+03  0.00000000000E+00 0. -1.
         -1    1    6    6    0  502  0.79002066995E+02 -0.15078560442E+02  0.46018599818E+02  0.92662835612E+02  0.00000000000E+00 0.  1.
<mgrwt>
<rscale>  0 0.44438824E+03</rscale>
<asrwt>0</asrwt>
<pdfrwt beam="1">  1        1 0.11277986E+00 0.44438824E+03</pdfrwt>
<pdfrwt beam="2">  1       -2 0.67773906E-01 0.44438824E+03</pdfrwt>
<totfact> 0.46623291E+01</totfact>
</mgrwt>
</event>
<event>
12    3  0.1176505E-007  0.3976872E+03  0.7818608E-02  0.1044583E+00
          1   -1    0    0  501    0  0.00000000000E+00  0.00000000000E+00  0.55706759238E+03  0.55706759238E+03  0.00000000000E+00 0. -1.
         -2   -1    0    0    0  501 -0.00000000000E+00 -0.00000000000E+00 -0.59787532364E+03  0.59787532364E+03  0.00000000000E+00 0.  1.
        -24    2    1    2    0    0  0.27683498583E+03 -0.19867348120E+03  0.22467929300E+03  0.41573908895E+03  0.79053424142E+02 0.  0.
    5000000    2    1    2    0    0 -0.27683498583E+03  0.19867348120E+03 -0.26548702426E+03  0.73920382706E+03  0.59985846362E+03 0.  0.
        -24    2    4    4    0    0 -0.72129539775E+02  0.21556379378E+03 -0.41000068859E+03  0.47541481444E+03  0.79045945151E+02 0.  0.
         24    2    4    4    0    0 -0.20470544606E+03 -0.16890312578E+02  0.14451366433E+03  0.26378901263E+03  0.80689786844E+02 0.  0.
         11    1    5    5    0    0  0.38856002379E+01  0.88330446439E+02 -0.11292953049E+03  0.14342400257E+03  0.00000000000E+00 0. -1.
        -12    1    5    5    0    0 -0.76015140013E+02  0.12723334734E+03 -0.29707115811E+03  0.33199081187E+03  0.00000000000E+00 0.  1.
         15    1    3    3    0    0  0.94825265896E+02 -0.10497709522E+03  0.12154293731E+03  0.18651505277E+03  0.17770000000E+01 0. -1.
        -16    1    3    3    0    0  0.18200971994E+03 -0.93696385979E+02  0.10313635569E+03  0.22922403618E+03  0.00000000000E+00 0.  1.
          2    1    6    6  502    0 -0.10832945128E+03  0.18490401073E+02  0.10996838217E+03  0.15546771376E+03  0.00000000000E+00 0. -1.
         -1    1    6    6    0  502 -0.96375994783E+02 -0.35380713651E+02  0.34545282161E+02  0.10832129887E+03  0.00000000000E+00 0.  1.
<mgrwt>
<rscale>  0 0.39768724E+03</rscale>
<asrwt>0</asrwt>
<pdfrwt beam="1">  1        1 0.85702707E-01 0.39768724E+03</pdfrwt>
<pdfrwt beam="2">  1       -2 0.91980819E-01 0.39768724E+03</pdfrwt>
<totfact> 0.35380578E+01</totfact>
</mgrwt>
</event>
<event>
12    3  0.1176505E-007  0.6896751E+03  0.7818608E-02  0.9735054E-01
          1   -1    0    0  501    0  0.00000000000E+00  0.00000000000E+00  0.23450820489E+04  0.23450820489E+04  0.00000000000E+00 0. -1.
         -4   -1    0    0    0  501 -0.00000000000E+00 -0.00000000000E+00 -0.22328413606E+03  0.22328413606E+03  0.00000000000E+00 0.  1.
        -24    2    1    2    0    0 -0.25512761392E+03  0.52763399030E+03  0.10756972062E+04  0.12275864292E+04  0.79725997441E+02 0.  0.
    5000000    2    1    2    0    0  0.25512761392E+03 -0.52763399030E+03  0.10461007066E+04  0.13407797557E+04  0.59989660596E+03 0.  0.
        -24    2    4    4    0    0 -0.36229294730E+02  0.94674979364E+02  0.46112568333E+02  0.12496399598E+03  0.56689662353E+02 0.  0.
         24    2    4    4    0    0  0.29135690865E+03 -0.62230896966E+03  0.99998813828E+03  0.12158157597E+04  0.77938328055E+02 0.  0.
         11    1    5    5    0    0 -0.20450889631E+02  0.27175074464E+02  0.44000047278E+02  0.55612298274E+02  0.00000000000E+00 0. -1.
        -12    1    5    5    0    0 -0.15778405099E+02  0.67499904900E+02  0.21125210555E+01  0.69351697702E+02  0.00000000000E+00 0.  1.
         15    1    3    3    0    0 -0.16493248104E+03  0.32834862697E+03  0.59265102423E+03  0.69731910800E+03  0.17770000000E+01 0. -1.
        -16    1    3    3    0    0 -0.90195132872E+02  0.19928536333E+03  0.48304618196E+03  0.53026732120E+03  0.00000000000E+00 0.  1.
          2    1    6    6  502    0  0.22073435367E+03 -0.40388914986E+03  0.70675982379E+03  0.84342133527E+03  0.00000000000E+00 0. -1.
         -1    1    6    6    0  502  0.70622554979E+02 -0.21841981980E+03  0.29322831449E+03  0.37239442446E+03  0.00000000000E+00 0.  1.
<mgrwt>
<rscale>  0 0.68967512E+03</rscale>
<asrwt>0</asrwt>
<pdfrwt beam="1">  1        1 0.36078184E+00 0.68967512E+03</pdfrwt>
<pdfrwt beam="2">  1       -4 0.34351407E-01 0.68967512E+03</pdfrwt>
<totfact> 0.73169653E+00</totfact>
</mgrwt>
</event>
<event>
12    3  0.1176505E-007  0.1651297E+04  0.7818608E-02  0.8789640E-01
          1   -1    0    0  501    0  0.00000000000E+00  0.00000000000E+00  0.25737335027E+04  0.25737335027E+04  0.00000000000E+00 0. -1.
         -2   -1    0    0    0  501 -0.00000000000E+00 -0.00000000000E+00 -0.12481219608E+04  0.12481219608E+04  0.00000000000E+00 0.  1.
        -24    2    1    2    0    0 -0.89218025340E+03  0.13444450259E+04 -0.53175741234E+02  0.16163395802E+04  0.78790525890E+02 0.  0.
    5000000    2    1    2    0    0  0.89218025340E+03 -0.13444450259E+04  0.13787872832E+04  0.22055158832E+04  0.59977321279E+03 0.  0.
        -24    2    4    4    0    0  0.87118259666E+03 -0.95850554348E+03  0.12165057733E+04  0.17787350761E+04  0.79499565866E+02 0.  0.
         24    2    4    4    0    0  0.20997656735E+02 -0.38593948241E+03  0.16228150986E+03  0.42678080710E+03  0.80102329532E+02 0.  0.
         13    1    5    5    0    0  0.25217007422E+03 -0.26066499631E+03  0.38790055814E+03  0.53103938615E+03  0.00000000000E+00 0. -1.
        -14    1    5    5    0    0  0.61901252244E+03 -0.69784054717E+03  0.82860521519E+03  0.12476956900E+04  0.00000000000E+00 0.  1.
         15    1    3    3    0    0 -0.58728490994E+03  0.81679326792E+03 -0.39038614444E+02  0.10067680861E+04  0.17770000000E+01 0. -1.
        -16    1    3    3    0    0 -0.30489534346E+03  0.52765175797E+03 -0.14137126790E+02  0.60957149417E+03  0.00000000000E+00 0.  1.
          4    1    6    6  502    0 -0.13948157365E+02 -0.21926838229E+02  0.25334172038E+02  0.36292665946E+02  0.00000000000E+00 0. -1.
         -3    1    6    6    0  502  0.34945814101E+02 -0.36401264418E+03  0.13694733783E+03  0.39048814115E+03  0.00000000000E+00 0.  1.
<mgrwt>
<rscale>  0 0.16512967E+04</rscale>
<asrwt>0</asrwt>
<pdfrwt beam="1">  1        1 0.39595900E+00 0.16512967E+04</pdfrwt>
<pdfrwt beam="2">  1       -2 0.19201876E+00 0.16512967E+04</pdfrwt>
<totfact> 0.14701997E-01</totfact>
</mgrwt>
</event>
<event>
12    3  0.1176505E-007  0.1462712E+04  0.7818608E-02  0.8909635E-01
         -2   -1    0    0    0  501 -0.00000000000E+00  0.00000000000E+00  0.14024956892E+04  0.14024956892E+04  0.00000000000E+00 0.  1.
          1   -1    0    0  501    0  0.00000000000E+00 -0.00000000000E+00 -0.16415880138E+04  0.16415880138E+04  0.00000000000E+00 0. -1.
        -24    2    1    2    0    0 -0.50630133423E+02 -0.14094685921E+04  0.25153868878E+03  0.14347737821E+04  0.78351588150E+02 0.  0.
    5000000    2    1    2    0    0  0.50630133423E+02  0.14094685921E+04 -0.49063101343E+03  0.16093099209E+04  0.59999542310E+03 0.  0.
        -24    2    4    4    0    0  0.18368415387E+03  0.15272913431E+03 -0.16707483052E+03  0.30191053158E+03  0.78548795267E+02 0.  0.
         24    2    4    4    0    0 -0.13305402045E+03  0.12567394577E+04 -0.32355618291E+03  0.13073993893E+04  0.86643653211E+02 0.  0.
         13    1    5    5    0    0  0.81384816829E+02  0.11549070240E+03 -0.10954494477E+03  0.17877831433E+03  0.00000000000E+00 0. -1.
        -14    1    5    5    0    0  0.10229933704E+03  0.37238431905E+02 -0.57529885752E+02  0.12313221725E+03  0.00000000000E+00 0.  1.
         15    1    3    3    0    0 -0.47997084908E+02 -0.93226458650E+03  0.13170049316E+03  0.94274554204E+03  0.17770000000E+01 0. -1.
        -16    1    3    3    0    0 -0.26330485147E+01 -0.47720400555E+03  0.11983819562E+03  0.49202824003E+03  0.00000000000E+00 0.  1.
          4    1    6    6  502    0 -0.10249038864E+03  0.11068649234E+04 -0.30900469986E+03  0.11537496015E+04  0.00000000000E+00 0. -1.
         -3    1    6    6    0  502 -0.30563631806E+02  0.14987453434E+03 -0.14551483049E+02  0.15364978780E+03  0.00000000000E+00 0.  1.
<mgrwt>
<rscale>  0 0.14627115E+04</rscale>
<asrwt>0</asrwt>
<pdfrwt beam="1">  1        1 0.25255200E+00 0.14627115E+04</pdfrwt>
<pdfrwt beam="2">  1       -2 0.21576857E+00 0.14627115E+04</pdfrwt>
<totfact> 0.45574623E-01</totfact>
</mgrwt>
</event>
<event>
12    3  0.1176505E-007  0.5598984E+03  0.7818608E-02  0.9992285E-01
          1   -1    0    0  501    0  0.00000000000E+00  0.00000000000E+00  0.17414162137E+04  0.17414162137E+04  0.00000000000E+00 0. -1.
         -2   -1    0    0    0  501 -0.00000000000E+00 -0.00000000000E+00 -0.27887788936E+03  0.27887788936E+03  0.00000000000E+00 0.  1.
        -24    2    1    2    0    0  0.41339218662E+03  0.30675343090E+03  0.26231739434E+03  0.58327643759E+03  0.80063849181E+02 0.  0.
    5000000    2    1    2    0    0 -0.41339218662E+03 -0.30675343090E+03  0.12002209300E+04  0.14370176655E+04  0.59958212346E+03 0.  0.
        -24    2    4    4    0    0 -0.34848638028E+03 -0.77867695542E+02  0.11130883706E+04  0.11715558591E+04  0.77918385486E+02 0.  0.
         24    2    4    4    0    0 -0.64905806340E+02 -0.22888573536E+03  0.87132559403E+02  0.26546180646E+03  0.79224012976E+02 0.  0.
         11    1    5    5    0    0 -0.27985875016E+03 -0.91690992886E+02  0.93130288593E+03  0.97675648120E+03  0.00000000000E+00 0. -1.
        -12    1    5    5    0    0 -0.68627630117E+02  0.13823297344E+02  0.18178548471E+03  0.19479937787E+03  0.00000000000E+00 0.  1.
         15    1    3    3    0    0  0.31366206168E+03  0.20391941626E+03  0.15826910609E+03  0.40622565766E+03  0.17770000000E+01 0. -1.
        -16    1    3    3    0    0  0.99730124938E+02  0.10283401464E+03  0.10404828825E+03  0.17705077993E+03  0.00000000000E+00 0.  1.
          2    1    6    6  502    0 -0.44895352022E+02 -0.15528214383E+03  0.97059113380E+02  0.18854338577E+03  0.00000000000E+00 0. -1.
         -1    1    6    6    0  502 -0.20010454319E+02 -0.73603591529E+02 -0.99265539769E+01  0.76918420692E+02  0.00000000000E+00 0.  1.
<mgrwt>
<rscale>  0 0.55989840E+03</rscale>
<asrwt>0</asrwt>
<pdfrwt beam="1">  1        1 0.26791018E+00 0.55989840E+03</pdfrwt>
<pdfrwt beam="2">  1       -2 0.42904292E-01 0.55989840E+03</pdfrwt>
<totfact> 0.21465223E+01</totfact>
</mgrwt>
</event>
<event>
12    3  0.1176505E-007  0.5371115E+03  0.7818608E-02  0.1004522E+00
          1   -1    0    0  501    0  0.00000000000E+00  0.00000000000E+00  0.10766885728E+04  0.10766885728E+04  0.00000000000E+00 0. -1.
         -2   -1    0    0    0  501 -0.00000000000E+00 -0.00000000000E+00 -0.34097687247E+03  0.34097687247E+03  0.00000000000E+00 0.  1.
        -24    2    1    2    0    0 -0.37018662490E+03  0.85452264629E+02 -0.10194353734E+02  0.38775832137E+03  0.76891899195E+02 0.  0.
    5000000    2    1    2    0    0  0.37018662490E+03 -0.85452264629E+02  0.74590605410E+03  0.10299071239E+04  0.59999384630E+03 0.  0.
        -24    2    4    4    0    0 -0.43590138959E+01  0.21044038712E+03  0.27582191662E+03  0.35534330067E+03  0.76726619349E+02 0.  0.
         24    2    4    4    0    0  0.37454563879E+03 -0.29589265175E+03  0.47008413748E+03  0.67456382326E+03  0.78869248998E+02 0.  0.
         11    1    5    5    0    0 -0.19012374530E+02  0.16281994844E+03  0.25071916226E+03  0.29955284061E+03  0.00000000000E+00 0. -1.
        -12    1    5    5    0    0  0.14653360634E+02  0.47620438675E+02  0.25102754356E+02  0.55790460060E+02  0.00000000000E+00 0.  1.
         15    1    3    3    0    0 -0.10088616488E+03  0.40906378786E+02 -0.33207995724E+02  0.11383004348E+03  0.17770000000E+01 0. -1.
        -16    1    3    3    0    0 -0.26930046002E+03  0.44545885843E+02  0.23013641990E+02  0.27392827789E+03  0.00000000000E+00 0.  1.
          2    1    6    6  502    0  0.15146616893E+03 -0.14202438386E+03  0.25329445390E+03  0.32752252795E+03  0.00000000000E+00 0. -1.
         -1    1    6    6    0  502  0.22307946987E+03 -0.15386826789E+03  0.21678968358E+03  0.34704129530E+03  0.00000000000E+00 0.  1.
<mgrwt>
<rscale>  0 0.53711146E+03</rscale>
<asrwt>0</asrwt>
<pdfrwt beam="1">  1        1 0.16564439E+00 0.53711146E+03</pdfrwt>
<pdfrwt beam="2">  1       -2 0.52457981E-01 0.53711146E+03</pdfrwt>
<totfact> 0.41580589E+01</totfact>
</mgrwt>
</event>
<event>
12    3  0.1176505E-007  0.6790694E+03  0.7818608E-02  0.9753711E-01
          1   -1    0    0  501    0  0.00000000000E+00  0.00000000000E+00  0.90430746158E+03  0.90430746158E+03  0.00000000000E+00 0. -1.
         -2   -1    0    0    0  501 -0.00000000000E+00 -0.00000000000E+00 -0.71309224314E+03  0.71309224314E+03  0.00000000000E+00 0.  1.
        -24    2    1    2    0    0 -0.60019249503E+02  0.61630669862E+03  0.38515081392E+03  0.73363391806E+03  0.80257829520E+02 0.  0.
    5000000    2    1    2    0    0  0.60019249503E+02 -0.61630669862E+03 -0.19393559548E+03  0.88376578665E+03  0.59999557781E+03 0.  0.
        -24    2    4    4    0    0 -0.16446370328E+03 -0.29814969329E+03  0.12866259088E+03  0.37209769913E+03  0.77208070192E+02 0.  0.
         24    2    4    4    0    0  0.22448295279E+03 -0.31815700533E+03 -0.32259818636E+03  0.51166808752E+03  0.78218704984E+02 0.  0.
         13    1    5    5    0    0 -0.13139940189E+03 -0.28097491095E+03  0.12582590839E+03  0.33473103026E+03  0.00000000000E+00 0. -1.
        -14    1    5    5    0    0 -0.33064301393E+02 -0.17174782340E+02  0.28366824993E+01  0.37366668873E+02  0.00000000000E+00 0.  1.
         15    1    3    3    0    0 -0.80801420374E+01  0.33712128821E+03  0.24588700952E+03  0.41734833274E+03  0.17770000000E+01 0. -1.
        -16    1    3    3    0    0 -0.51939107466E+02  0.27918541041E+03  0.13926380440E+03  0.31628558533E+03  0.00000000000E+00 0.  1.
          4    1    6    6  502    0  0.14615216861E+03 -0.19905595849E+03 -0.15464067246E+03  0.29137170175E+03  0.00000000000E+00 0. -1.
         -3    1    6    6    0  502  0.78330784172E+02 -0.11910104684E+03 -0.16795751390E+03  0.22029638577E+03  0.00000000000E+00 0.  1.
<mgrwt>
<rscale>  0 0.67906939E+03</rscale>
<asrwt>0</asrwt>
<pdfrwt beam="1">  1        1 0.13912422E+00 0.67906939E+03</pdfrwt>
<pdfrwt beam="2">  1       -2 0.10970650E+00 0.67906939E+03</pdfrwt>
<totfact> 0.10791676E+01</totfact>
</mgrwt>
</event>
<event>
12    3  0.1176505E-007  0.2507946E+04  0.7818608E-02  0.8400160E-01
          1   -1    0    0  501    0  0.00000000000E+00  0.00000000000E+00  0.16646911959E+04  0.16646911959E+04  0.00000000000E+00 0. -1.
         -2   -1    0    0    0  501 -0.00000000000E+00 -0.00000000000E+00 -0.41161939797E+04  0.41161939797E+04  0.00000000000E+00 0.  1.
        -24    2    1    2    0    0 -0.17091301770E+04 -0.18313536294E+04 -0.19042312031E+04  0.31475416220E+04  0.77069512564E+02 0.  0.
    5000000    2    1    2    0    0  0.17091301770E+04  0.18313536294E+04 -0.54727158069E+03  0.26333435535E+04  0.60000834166E+03 0.  0.
        -24    2    4    4    0    0  0.51260059205E+03  0.60904101175E+03  0.91569288825E+02  0.80526112631E+03  0.79813695061E+02 0.  0.
         24    2    4    4    0    0  0.11965295849E+04  0.12223126176E+04 -0.63884086952E+03  0.18280824272E+04  0.89646646618E+02 0.  0.
         11    1    5    5    0    0  0.11979884118E+03  0.10559858177E+03  0.40010497207E+02  0.16463190064E+03  0.00000000000E+00 0. -1.
        -12    1    5    5    0    0  0.39280175087E+03  0.50344242998E+03  0.51558791618E+02  0.64062922567E+03  0.00000000000E+00 0.  1.
         15    1    3    3    0    0 -0.63468384362E+03 -0.64454329485E+03 -0.65255070518E+03  0.11153856826E+04  0.17770000000E+01 0. -1.
        -16    1    3    3    0    0 -0.10744463333E+04 -0.11868103345E+04 -0.12516804979E+04  0.20321559395E+04  0.00000000000E+00 0.  1.
          4    1    6    6  502    0  0.63616697439E+03  0.59588773882E+03 -0.29947932130E+03  0.92167156865E+03  0.00000000000E+00 0. -1.
         -3    1    6    6    0  502  0.56036261053E+03  0.62642487882E+03 -0.33936154822E+03  0.90641085855E+03  0.00000000000E+00 0.  1.
<mgrwt>
<rscale>  0 0.25079465E+04</rscale>
<asrwt>0</asrwt>
<pdfrwt beam="1">  1        1 0.25610634E+00 0.25079465E+04</pdfrwt>
<pdfrwt beam="2">  1       -2 0.63326061E+00 0.25079465E+04</pdfrwt>
<totfact> 0.13948565E-03</totfact>
</mgrwt>
</event>
<event>
12    3  0.1176505E-007  0.9259275E+03  0.7818608E-02  0.9393739E-01
          1   -1    0    0  501    0  0.00000000000E+00  0.00000000000E+00  0.99753548726E+03  0.99753548726E+03  0.00000000000E+00 0. -1.
         -2   -1    0    0    0  501 -0.00000000000E+00 -0.00000000000E+00 -0.90358248503E+03  0.90358248503E+03  0.00000000000E+00 0.  1.
        -24    2    1    2    0    0 -0.69603041673E+02 -0.83576653420E+03 -0.11154337932E+03  0.84971613706E+03  0.78900602112E+02 0.  0.
    5000000    2    1    2    0    0  0.69603041673E+02  0.83576653420E+03  0.20549638155E+03  0.10514018352E+04  0.59988896738E+03 0.  0.
        -24    2    4    4    0    0  0.30891359932E+02 -0.67813513849E+02 -0.30790081962E+02  0.11387477294E+03  0.80414463786E+02 0.  0.
         24    2    4    4    0    0  0.38711681742E+02  0.90358004805E+03  0.23628646352E+03  0.93752706229E+03  0.71904117691E+02 0.  0.
         11    1    5    5    0    0  0.30887280204E+02  0.48340007984E+01 -0.26698613898E+02  0.41112134780E+02  0.00000000000E+00 0. -1.
        -12    1    5    5    0    0  0.40797276481E-02 -0.72647514647E+02 -0.40914680642E+01  0.72762638160E+02  0.00000000000E+00 0.  1.
         15    1    3    3    0    0  0.12853719342E+02 -0.27283801679E+03 -0.25917143634E+02  0.27437320855E+03  0.17770000000E+01 0. -1.
        -16    1    3    3    0    0 -0.82456761015E+02 -0.56292851742E+03 -0.85626235686E+02  0.57534292852E+03  0.00000000000E+00 0.  1.
          2    1    6    6  502    0 -0.12638292001E+02  0.21410702386E+03  0.78285753831E+02  0.22832039625E+03  0.00000000000E+00 0. -1.
         -3    1    6    6    0  502  0.51349973743E+02  0.68947302419E+03  0.15800070968E+03  0.70920666604E+03  0.00000000000E+00 0.  1.
<mgrwt>
<rscale>  0 0.92592750E+03</rscale>
<asrwt>0</asrwt>
<pdfrwt beam="1">  1        1 0.15346700E+00 0.92592750E+03</pdfrwt>
<pdfrwt beam="2">  1       -2 0.13901269E+00 0.92592750E+03</pdfrwt>
<totfact> 0.48934265E+00</totfact>
</mgrwt>
</event>
<event>
12    3  0.1176505E-007  0.2625715E+04  0.7818608E-02  0.8359519E-01
          1   -1    0    0  501    0  0.00000000000E+00  0.00000000000E+00  0.37274588174E+04  0.37274588174E+04  0.00000000000E+00 0. -1.
         -2   -1    0    0    0  501 -0.00000000000E+00 -0.00000000000E+00 -0.19180342539E+04  0.19180342539E+04  0.00000000000E+00 0.  1.
        -24    2    1    2    0    0  0.25386204016E+03 -0.26082038787E+04  0.55952965035E+03  0.26807931309E+04  0.80031073817E+02 0.  0.
    5000000    2    1    2    0    0 -0.25386204016E+03  0.26082038787E+04  0.12498949131E+04  0.29646999405E+04  0.60002919538E+03 0.  0.
        -24    2    4    4    0    0 -0.14252890874E+03  0.57937060110E+03  0.50608579140E+02  0.60399131329E+03  0.79116970352E+02 0.  0.
         24    2    4    4    0    0 -0.11133313142E+03  0.20288332775E+04  0.11992863340E+04  0.23607086272E+04  0.78089547747E+02 0.  0.
         11    1    5    5    0    0 -0.85719361595E+02  0.36482056443E+03  0.69869545711E+02  0.38121333476E+03  0.00000000000E+00 0. -1.
        -12    1    5    5    0    0 -0.56809547147E+02  0.21455003667E+03 -0.19260966570E+02  0.22277797852E+03  0.00000000000E+00 0.  1.
         15    1    3    3    0    0  0.19598544804E+03 -0.22568111185E+04  0.49777770869E+03  0.23193517469E+04  0.17770000000E+01 0. -1.
        -16    1    3    3    0    0  0.57876592127E+02 -0.35139276010E+03  0.61751941654E+02  0.36144138400E+03  0.00000000000E+00 0.  1.
          4    1    6    6  502    0 -0.91650899419E+02  0.97925849142E+03  0.56911703405E+03  0.11363279803E+04  0.00000000000E+00 0. -1.
         -3    1    6    6    0  502 -0.19682232000E+02  0.10495747861E+04  0.63016929996E+03  0.12243806469E+04  0.00000000000E+00 0.  1.
<mgrwt>
<rscale>  0 0.26257149E+04</rscale>
<asrwt>0</asrwt>
<pdfrwt beam="1">  1        1 0.57345520E+00 0.26257149E+04</pdfrwt>
<pdfrwt beam="2">  1       -2 0.29508219E+00 0.26257149E+04</pdfrwt>
<totfact> 0.40552458E-03</totfact>
</mgrwt>
</event>
<event>
12    3  0.1176505E-007  0.5262888E+03  0.7818608E-02  0.1007136E+00
         -2   -1    0    0    0  501 -0.00000000000E+00  0.00000000000E+00  0.29797012804E+03  0.29797012804E+03  0.00000000000E+00 0.  1.
          1   -1    0    0  501    0  0.00000000000E+00 -0.00000000000E+00 -0.10505626147E+04  0.10505626147E+04  0.00000000000E+00 0. -1.
        -24    2    1    2    0    0 -0.19351413802E+03  0.32120706643E+03 -0.12822479923E+03  0.40485376435E+03  0.82724060812E+02 0.  0.
    5000000    2    1    2    0    0  0.19351413802E+03 -0.32120706643E+03 -0.62436768746E+03  0.94367897842E+03  0.60006108359E+03 0.  0.
        -24    2    4    4    0    0 -0.17152070151E+03 -0.24143681418E+03 -0.38838441302E+03  0.49463113098E+03  0.78143567726E+02 0.  0.
         24    2    4    4    0    0  0.36503483953E+03 -0.79770252250E+02 -0.23598327444E+03  0.44904784744E+03  0.79637530488E+02 0.  0.
         11    1    5    5    0    0 -0.13313675607E+03 -0.15014950805E+03 -0.20910313460E+03  0.28981785915E+03  0.00000000000E+00 0. -1.
        -12    1    5    5    0    0 -0.38383945443E+02 -0.91287306129E+02 -0.17928127842E+03  0.20481327183E+03  0.00000000000E+00 0.  1.
         15    1    3    3    0    0 -0.64746450503E+02  0.65854201212E+02 -0.62167143738E+02  0.11134087371E+03  0.17770000000E+01 0. -1.
        -16    1    3    3    0    0 -0.12876768751E+03  0.25535286521E+03 -0.66057655493E+02  0.29351289064E+03  0.00000000000E+00 0.  1.
          4    1    6    6  502    0  0.85856896111E+02 -0.77601956562E+01 -0.94416117235E+02  0.12785159538E+03  0.00000000000E+00 0. -1.
         -3    1    6    6    0  502  0.27917794342E+03 -0.72010056594E+02 -0.14156715720E+03  0.32119625206E+03  0.00000000000E+00 0.  1.
<mgrwt>
<rscale>  0 0.52628875E+03</rscale>
<asrwt>0</asrwt>
<pdfrwt beam="1">  1        1 0.16162502E+00 0.52628875E+03</pdfrwt>
<pdfrwt beam="2">  1       -2 0.45841558E-01 0.52628875E+03</pdfrwt>
<totfact> 0.57167452E+01</totfact>
</mgrwt>
</event>
<event>
12    3  0.1176505E-007  0.3092694E+03  0.7818608E-02  0.1080697E+00
          1   -1    0    0  501    0  0.00000000000E+00  0.00000000000E+00  0.89041084293E+03  0.89041084293E+03  0.00000000000E+00 0. -1.
         -2   -1    0    0    0  501 -0.00000000000E+00 -0.00000000000E+00 -0.23405482009E+03  0.23405482009E+03  0.00000000000E+00 0.  1.
        -24    2    1    2    0    0 -0.17773313943E+03  0.13535968866E+03  0.49389245541E+02  0.24234286798E+03  0.79871483756E+02 0.  0.
    5000000    2    1    2    0    0  0.17773313943E+03 -0.13535968866E+03  0.60696677730E+03  0.88212279505E+03  0.59985051690E+03 0.  0.
        -24    2    4    4    0    0 -0.80883448370E+02 -0.28022569192E+02  0.57721750296E+03  0.58926684762E+03  0.82024236544E+02 0.  0.
         24    2    4    4    0    0  0.25861658780E+03 -0.10733711947E+03  0.29749274346E+02  0.29285594743E+03  0.80472292850E+02 0.  0.
         13    1    5    5    0    0 -0.68125612320E+02  0.15153965206E+02  0.41882807499E+03  0.42460298882E+03  0.00000000000E+00 0. -1.
        -14    1    5    5    0    0 -0.12757836050E+02 -0.43176534398E+02  0.15838942797E+03  0.16466385880E+03  0.00000000000E+00 0.  1.
         15    1    3    3    0    0 -0.11623160816E+03  0.83619767541E+02  0.69972797791E+02  0.15937817422E+03  0.17770000000E+01 0. -1.
        -16    1    3    3    0    0 -0.61501531276E+02  0.51739921121E+02 -0.20583552251E+02  0.82964693757E+02  0.00000000000E+00 0.  1.
          2    1    6    6  502    0  0.71354077273E+02 -0.34116067945E+02 -0.27601103823E+02  0.83768319595E+02  0.00000000000E+00 0. -1.
         -1    1    6    6    0  502  0.18726251053E+03 -0.73221051524E+02  0.57350378169E+02  0.20908762783E+03  0.00000000000E+00 0.  1.
<mgrwt>
<rscale>  0 0.30926945E+03</rscale>
<asrwt>0</asrwt>
<pdfrwt beam="1">  1        1 0.13698628E+00 0.30926945E+03</pdfrwt>
<pdfrwt beam="2">  1       -2 0.36008434E-01 0.30926945E+03</pdfrwt>
<totfact> 0.12499013E+02</totfact>
</mgrwt>
</event>
<event>
12    3  0.1176505E-007  0.1074072E+04  0.7818608E-02  0.9230839E-01
          1   -1    0    0  501    0  0.00000000000E+00  0.00000000000E+00  0.13280765657E+04  0.13280765657E+04  0.00000000000E+00 0. -1.
         -2   -1    0    0    0  501 -0.00000000000E+00 -0.00000000000E+00 -0.10196978703E+04  0.10196978703E+04  0.00000000000E+00 0.  1.
        -24    2    1    2    0    0 -0.71426710135E+03  0.77443630682E+03 -0.11690445089E+03  0.10629284507E+04  0.78874300351E+02 0.  0.
    5000000    2    1    2    0    0  0.71426710135E+03 -0.77443630682E+03  0.42528314630E+03  0.12848459853E+04  0.60002863766E+03 0.  0.
        -24    2    4    4    0    0  0.41964601707E+03 -0.26502979518E+03 -0.75412550709E+02  0.50808903679E+03  0.78254996846E+02 0.  0.
         24    2    4    4    0    0  0.29462108428E+03 -0.50940651164E+03  0.50069569700E+03  0.77675694849E+03  0.79740821631E+02 0.  0.
         11    1    5    5    0    0  0.45841753673E+02 -0.59745622061E+02 -0.20921269430E+02  0.78158206541E+02  0.00000000000E+00 0. -1.
        -12    1    5    5    0    0  0.37380426340E+03 -0.20528417311E+03 -0.54491281279E+02  0.42993083025E+03  0.00000000000E+00 0.  1.
         15    1    3    3    0    0 -0.75299143862E+02  0.10475827684E+03  0.61834306192E+01  0.12917294677E+03  0.17770000000E+01 0. -1.
        -16    1    3    3    0    0 -0.63896795748E+03  0.66967802998E+03 -0.12308788151E+03  0.93375550392E+03  0.00000000000E+00 0.  1.
          4    1    6    6  502    0  0.15129480107E+03 -0.32233680102E+03  0.26892668010E+03  0.44622044933E+03  0.00000000000E+00 0. -1.
         -3    1    6    6    0  502  0.14332628320E+03 -0.18706971062E+03  0.23176901690E+03  0.33053649917E+03  0.00000000000E+00 0.  1.
<mgrwt>
<rscale>  0 0.10740716E+04</rscale>
<asrwt>0</asrwt>
<pdfrwt beam="1">  1        1 0.20431947E+00 0.10740716E+04</pdfrwt>
<pdfrwt beam="2">  1       -2 0.15687660E+00 0.10740716E+04</pdfrwt>
<totfact> 0.19899303E+00</totfact>
</mgrwt>
</event>
<event>
12    3  0.1176505E-007  0.6879653E+03  0.7818608E-02  0.9738037E-01
         -2   -1    0    0    0  501 -0.00000000000E+00  0.00000000000E+00  0.42207563529E+03  0.42207563529E+03  0.00000000000E+00 0.  1.
          1   -1    0    0  501    0  0.00000000000E+00 -0.00000000000E+00 -0.25417832202E+04  0.25417832202E+04  0.00000000000E+00 0. -1.
        -24    2    1    2    0    0 -0.26274783063E+03  0.50393430555E+03 -0.20562122009E+04  0.21349652469E+04  0.84153334861E+02 0.  0.
    5000000    2    1    2    0    0  0.26274783063E+03 -0.50393430555E+03 -0.63495384072E+02  0.82889360859E+03  0.60003895186E+03 0.  0.
        -24    2    4    4    0    0 -0.11034796227E+03 -0.38937674616E+03 -0.10916180553E+03  0.42833134366E+03  0.88093796303E+02 0.  0.
         24    2    4    4    0    0  0.37309579290E+03 -0.11455755939E+03  0.45666421458E+02  0.40056226493E+03  0.77722589642E+02 0.  0.
         11    1    5    5    0    0 -0.40006996770E+02 -0.13715092534E+03 -0.82876187191E+02  0.16516476172E+03  0.00000000000E+00 0. -1.
        -12    1    5    5    0    0 -0.70340965504E+02 -0.25222582082E+03 -0.26285618339E+02  0.26316658193E+03  0.00000000000E+00 0.  1.
         15    1    3    3    0    0 -0.53023756910E+02  0.17957490811E+03 -0.73201871710E+03  0.75558800039E+03  0.17770000000E+01 0. -1.
        -16    1    3    3    0    0 -0.20972407372E+03  0.32435939744E+03 -0.13241934838E+04  0.13793772466E+04  0.00000000000E+00 0.  1.
          4    1    6    6  502    0 -0.14167935548E+01  0.45083924385E+01  0.20981218018E+01  0.51705919827E+01  0.00000000000E+00 0. -1.
         -3    1    6    6    0  502  0.37451258645E+03 -0.11906595183E+03  0.43568299657E+02  0.39539167294E+03  0.00000000000E+00 0.  1.
<mgrwt>
<rscale>  0 0.68796526E+03</rscale>
<asrwt>0</asrwt>
<pdfrwt beam="1">  1        1 0.39104357E+00 0.68796526E+03</pdfrwt>
<pdfrwt beam="2">  1       -2 0.64934713E-01 0.68796526E+03</pdfrwt>
<totfact> 0.26049890E+00</totfact>
</mgrwt>
</event>
<event>
12    3  0.1176505E-007  0.5447905E+03  0.7818608E-02  0.1002707E+00
         -4   -1    0    0    0  501 -0.00000000000E+00  0.00000000000E+00  0.18018533324E+03  0.18018533324E+03  0.00000000000E+00 0.  1.
          1   -1    0    0  501    0  0.00000000000E+00 -0.00000000000E+00 -0.20290635852E+04  0.20290635852E+04  0.00000000000E+00 0. -1.
        -24    2    1    2    0    0 -0.41172358216E+03  0.18052776577E+03 -0.62019691652E+03  0.77019014708E+03  0.80262476159E+02 0.  0.
    5000000    2    1    2    0    0  0.41172358216E+03 -0.18052776577E+03 -0.12286813355E+04  0.14390587714E+04  0.59927100802E+03 0.  0.
        -24    2    4    4    0    0  0.10781731459E+03  0.14570937060E+03 -0.76784930935E+03  0.79282990416E+03  0.78300070618E+02 0.  0.
         24    2    4    4    0    0  0.30390626757E+03 -0.32623713637E+03 -0.46083202611E+03  0.64622886722E+03  0.80348639815E+02 0.  0.
         13    1    5    5    0    0  0.28588046817E+02  0.74926911596E+02 -0.46550186540E+03  0.47235929671E+03  0.00000000000E+00 0. -1.
        -14    1    5    5    0    0  0.79229267774E+02  0.70782459009E+02 -0.30234744395E+03  0.32047060745E+03  0.00000000000E+00 0.  1.
         15    1    3    3    0    0 -0.26567488681E+03  0.98194076529E+02 -0.44661996802E+03  0.52886461000E+03  0.17770000000E+01 0. -1.
        -16    1    3    3    0    0 -0.14604869535E+03  0.82333689237E+02 -0.17357694850E+03  0.24132553708E+03  0.00000000000E+00 0.  1.
          2    1    6    6  502    0  0.17274068554E+03 -0.23830160720E+03 -0.31798549923E+03  0.43329179332E+03  0.00000000000E+00 0. -1.
         -1    1    6    6    0  502  0.13116558203E+03 -0.87935529174E+02 -0.14284652688E+03  0.21293707390E+03  0.00000000000E+00 0.  1.
<mgrwt>
<rscale>  0 0.54479047E+03</rscale>
<asrwt>0</asrwt>
<pdfrwt beam="1">  1        1 0.31216360E+00 0.54479047E+03</pdfrwt>
<pdfrwt beam="2">  1       -4 0.27720823E-01 0.54479047E+03</pdfrwt>
<totfact> 0.18340373E+01</totfact>
</mgrwt>
</event>
<event>
12    3  0.1176505E-007  0.8122619E+03  0.7818608E-02  0.9542436E-01
          1   -1    0    0  501    0  0.00000000000E+00  0.00000000000E+00  0.26732168414E+04  0.26732168414E+04  0.00000000000E+00 0. -1.
         -2   -1    0    0    0  501 -0.00000000000E+00 -0.00000000000E+00 -0.28235057967E+03  0.28235057967E+03  0.00000000000E+00 0.  1.
        -24    2    1    2    0    0 -0.62958677131E+03  0.36428089008E+03  0.66413242984E+03  0.98814109746E+03  0.79188854267E+02 0.  0.
    5000000    2    1    2    0    0  0.62958677131E+03 -0.36428089008E+03  0.17267338319E+04  0.19674263236E+04  0.60006378257E+03 0.  0.
        -24    2    4    4    0    0  0.35264653908E+03 -0.47253522825E+03  0.84523934432E+03  0.10336531124E+04  0.79750136151E+02 0.  0.
         24    2    4    4    0    0  0.27694023223E+03  0.10825433817E+03  0.88149448755E+03  0.93377321115E+03  0.80529400343E+02 0.  0.
         13    1    5    5    0    0  0.23441318096E+03 -0.27120571116E+03  0.56192333715E+03  0.66652825447E+03  0.00000000000E+00 0. -1.
        -14    1    5    5    0    0  0.11823335813E+03 -0.20132951708E+03  0.28331600717E+03  0.36712485797E+03  0.00000000000E+00 0.  1.
         15    1    3    3    0    0 -0.38857005850E+03  0.25604390872E+03  0.38691680255E+03  0.60518835364E+03  0.17770000000E+01 0. -1.
        -16    1    3    3    0    0 -0.24101671282E+03  0.10823698136E+03  0.27721562729E+03  0.38295274382E+03  0.00000000000E+00 0.  1.
          2    1    6    6  502    0  0.19016883602E+03  0.44393519849E+02  0.64457877415E+03  0.67351077711E+03  0.00000000000E+00 0. -1.
         -1    1    6    6    0  502  0.86771396206E+02  0.63860818321E+02  0.23691571340E+03  0.26026243404E+03  0.00000000000E+00 0.  1.
<mgrwt>
<rscale>  0 0.81226189E+03</rscale>
<asrwt>0</asrwt>
<pdfrwt beam="1">  1        1 0.41126411E+00 0.81226189E+03</pdfrwt>
<pdfrwt beam="2">  1       -2 0.43438552E-01 0.81226189E+03</pdfrwt>
<totfact> 0.47373066E+00</totfact>
</mgrwt>
</event>
<event>
12    3  0.1176505E-007  0.1341856E+04  0.7818608E-02  0.8997016E-01
         -2   -1    0    0    0  501 -0.00000000000E+00  0.00000000000E+00  0.74121519321E+03  0.74121519321E+03  0.00000000000E+00 0.  1.
          1   -1    0    0  501    0  0.00000000000E+00 -0.00000000000E+00 -0.26089308242E+04  0.26089308242E+04  0.00000000000E+00 0. -1.
        -24    2    1    2    0    0  0.41366155560E+03 -0.12349623637E+04 -0.60028401744E+03  0.14362685804E+04  0.79237686339E+02 0.  0.
    5000000    2    1    2    0    0 -0.41366155560E+03  0.12349623637E+04 -0.12674316135E+04  0.19138774370E+04  0.60024663808E+03 0.  0.
        -24    2    4    4    0    0  0.26580631050E+02  0.59547832045E+03 -0.81059381274E+03  0.10094376594E+04  0.81247147007E+02 0.  0.
         24    2    4    4    0    0 -0.44024218665E+03  0.63948404329E+03 -0.45683780081E+03  0.90443977763E+03  0.80978457537E+02 0.  0.
         11    1    5    5    0    0  0.41366399153E+02  0.14333972161E+03 -0.19813325823E+03  0.24802064992E+03  0.00000000000E+00 0. -1.
        -12    1    5    5    0    0 -0.14785768103E+02  0.45213859885E+03 -0.61246055451E+03  0.76141700949E+03  0.00000000000E+00 0.  1.
         15    1    3    3    0    0  0.30529917046E+03 -0.92897510059E+03 -0.41289985417E+03  0.10614573794E+04  0.17770000000E+01 0. -1.
        -16    1    3    3    0    0  0.10836238513E+03 -0.30598726315E+03 -0.18738416327E+03  0.37481120097E+03  0.00000000000E+00 0.  1.
          2    1    6    6  502    0 -0.41971086854E+03  0.63013011304E+03 -0.45049531808E+03  0.88100352108E+03  0.00000000000E+00 0. -1.
         -1    1    6    6    0  502 -0.20531318105E+02  0.93539302477E+01 -0.63424827360E+01  0.23436256558E+02  0.00000000000E+00 0.  1.
<mgrwt>
<rscale>  0 0.13418555E+04</rscale>
<asrwt>0</asrwt>
<pdfrwt beam="1">  1        1 0.40137397E+00 0.13418555E+04</pdfrwt>
<pdfrwt beam="2">  1       -2 0.11403311E+00 0.13418555E+04</pdfrwt>
<totfact> 0.58224017E-01</totfact>
</mgrwt>
</event>
<event>
12    3  0.1176505E-007  0.3818213E+03  0.7818608E-02  0.1050263E+00
         -2   -1    0    0    0  501 -0.00000000000E+00  0.00000000000E+00  0.28186608772E+04  0.28186608772E+04  0.00000000000E+00 0.  1.
          3   -1    0    0  501    0  0.00000000000E+00 -0.00000000000E+00 -0.72295097105E+02  0.72295097105E+02  0.00000000000E+00 0. -1.
        -24    2    1    2    0    0 -0.12307013003E+03  0.12830983207E+03  0.13062016251E+04  0.13207180075E+04  0.80769426194E+02 0.  0.
    5000000    2    1    2    0    0  0.12307013003E+03 -0.12830983207E+03  0.14401641550E+04  0.15702379668E+04  0.59997067339E+03 0.  0.
        -24    2    4    4    0    0  0.17824379482E+03  0.18083925924E+03  0.91958559659E+03  0.95774489026E+03  0.84639927386E+02 0.  0.
         24    2    4    4    0    0 -0.55173664792E+02 -0.30914909131E+03  0.52057855843E+03  0.61249307649E+03  0.74353475406E+02 0.  0.
         11    1    5    5    0    0  0.14453110801E+03  0.18378741206E+03  0.80253092454E+03  0.83589648813E+03  0.00000000000E+00 0. -1.
        -12    1    5    5    0    0  0.33712686803E+02 -0.29481528209E+01  0.11705467204E+03  0.12184840214E+03  0.00000000000E+00 0.  1.
         15    1    3    3    0    0 -0.16489181054E+02  0.22384221728E+02  0.68805780339E+02  0.74231661785E+02  0.17770000000E+01 0. -1.
        -16    1    3    3    0    0 -0.10658094897E+03  0.10592561034E+03  0.12373958447E+04  0.12464863458E+04  0.00000000000E+00 0.  1.
          4    1    6    6  502    0 -0.50791041500E+02 -0.14462022567E+03  0.19844983982E+03  0.25075302290E+03  0.00000000000E+00 0. -1.
         -3    1    6    6    0  502 -0.43826232918E+01 -0.16452886564E+03  0.32212871861E+03  0.36174005359E+03  0.00000000000E+00 0.  1.
<mgrwt>
<rscale>  0 0.38182129E+03</rscale>
<asrwt>0</asrwt>
<pdfrwt beam="1">  1        3 0.11122325E-01 0.38182129E+03</pdfrwt>
<pdfrwt beam="2">  1       -2 0.43364005E+00 0.38182129E+03</pdfrwt>
<totfact> 0.13578844E+00</totfact>
</mgrwt>
</event>
<event>
12    3  0.1176505E-007  0.6027580E+03  0.7818608E-02  0.9899700E-01
         -2   -1    0    0    0  501 -0.00000000000E+00  0.00000000000E+00  0.17407128204E+03  0.17407128204E+03  0.00000000000E+00 0.  1.
          1   -1    0    0  501    0  0.00000000000E+00 -0.00000000000E+00 -0.23849673362E+04  0.23849673362E+04  0.00000000000E+00 0. -1.
        -24    2    1    2    0    0 -0.27013486343E+03  0.39805531752E+03 -0.11463124706E+04  0.12457395725E+04  0.80086964367E+02 0.  0.
    5000000    2    1    2    0    0  0.27013486343E+03 -0.39805531752E+03 -0.10645835836E+04  0.13132990458E+04  0.59999608087E+03 0.  0.
        -24    2    4    4    0    0  0.36850465918E+03 -0.73904549277E+02 -0.35822854235E+03  0.52563195654E+03  0.81876119442E+02 0.  0.
         24    2    4    4    0    0 -0.98369795743E+02 -0.32415076825E+03 -0.70635504125E+03  0.78766708930E+03  0.82046706192E+02 0.  0.
         11    1    5    5    0    0  0.33993902816E+02 -0.31962498546E+01 -0.58425471528E+01  0.34640103912E+02  0.00000000000E+00 0. -1.
        -12    1    5    5    0    0  0.33451075636E+03 -0.70708299422E+02 -0.35238599520E+03  0.49099185262E+03  0.00000000000E+00 0.  1.
         15    1    3    3    0    0 -0.67146593900E+02  0.95592692437E+02 -0.37420969044E+03  0.39202382334E+03  0.17770000000E+01 0. -1.
        -16    1    3    3    0    0 -0.20298826953E+03  0.30246262509E+03 -0.77210278017E+03  0.85371574911E+03  0.00000000000E+00 0.  1.
          4    1    6    6  502    0 -0.87373548940E+02 -0.14789797771E+03 -0.36053973216E+03  0.39937056392E+03  0.00000000000E+00 0. -1.
         -3    1    6    6    0  502 -0.10996246803E+02 -0.17625279054E+03 -0.34581530909E+03  0.38829652537E+03  0.00000000000E+00 0.  1.
<mgrwt>
<rscale>  0 0.60275803E+03</rscale>
<asrwt>0</asrwt>
<pdfrwt beam="1">  1        1 0.36691804E+00 0.60275803E+03</pdfrwt>
<pdfrwt beam="2">  1       -2 0.26780198E-01 0.60275803E+03</pdfrwt>
<totfact> 0.19324005E+01</totfact>
</mgrwt>
</event>
<event>
12    3  0.1176505E-007  0.1097177E+04  0.7818608E-02  0.9207948E-01
         -2   -1    0    0    0  501 -0.00000000000E+00  0.00000000000E+00  0.15909941925E+04  0.15909941925E+04  0.00000000000E+00 0.  1.
          1   -1    0    0  501    0  0.00000000000E+00 -0.00000000000E+00 -0.17733164014E+04  0.17733164014E+04  0.00000000000E+00 0. -1.
        -24    2    1    2    0    0 -0.69758808648E+03 -0.77341573695E+03 -0.13375660681E+04  0.16970943202E+04  0.79025972968E+02 0.  0.
    5000000    2    1    2    0    0  0.69758808648E+03  0.77341573695E+03  0.11552438592E+04  0.16672162737E+04  0.60018387885E+03 0.  0.
        -24    2    4    4    0    0  0.95711666528E+02  0.46433095965E+03  0.27435033032E+03  0.55358269233E+03  0.80135699304E+02 0.  0.
         24    2    4    4    0    0  0.60187641995E+03  0.30908477730E+03  0.88089352891E+03  0.11136335814E+04  0.80110672324E+02 0.  0.
         13    1    5    5    0    0  0.32042874749E+02  0.18960281829E+03  0.67305937556E+02  0.20373037023E+03  0.00000000000E+00 0. -1.
        -14    1    5    5    0    0  0.63668791779E+02  0.27472814136E+03  0.20704439276E+03  0.34985232210E+03  0.00000000000E+00 0.  1.
         15    1    3    3    0    0 -0.27902599393E+03 -0.31112936726E+03 -0.60032976001E+03  0.73147519913E+03  0.17770000000E+01 0. -1.
        -16    1    3    3    0    0 -0.41856209254E+03 -0.46228636969E+03 -0.73723630812E+03  0.96561912105E+03  0.00000000000E+00 0.  1.
          4    1    6    6  502    0  0.23438069316E+03  0.92751607395E+02  0.27927517559E+03  0.37620711543E+03  0.00000000000E+00 0. -1.
         -3    1    6    6    0  502  0.36749572679E+03  0.21633316990E+03  0.60161835332E+03  0.73742646593E+03  0.00000000000E+00 0.  1.
<mgrwt>
<rscale>  0 0.10971767E+04</rscale>
<asrwt>0</asrwt>
<pdfrwt beam="1">  1        1 0.27281791E+00 0.10971767E+04</pdfrwt>
<pdfrwt beam="2">  1       -2 0.24476834E+00 0.10971767E+04</pdfrwt>
<totfact> 0.25544061E-01</totfact>
</mgrwt>
</event>
<event>
12    3  0.1176505E-007  0.5687478E+03  0.7818608E-02  0.9972453E-01
          1   -1    0    0  501    0  0.00000000000E+00  0.00000000000E+00  0.75506234527E+03  0.75506234527E+03  0.00000000000E+00 0. -1.
         -2   -1    0    0    0  501 -0.00000000000E+00 -0.00000000000E+00 -0.65092951590E+03  0.65092951590E+03  0.00000000000E+00 0.  1.
        -24    2    1    2    0    0 -0.53837802638E+03  0.15127734704E+03  0.15027073297E+03  0.58450832704E+03  0.79579872971E+02 0.  0.
    5000000    2    1    2    0    0  0.53837802638E+03 -0.15127734704E+03 -0.46137903599E+02  0.82148353413E+03  0.59997562925E+03 0.  0.
        -24    2    4    4    0    0  0.14401953338E+03 -0.67548904126E+02 -0.29320835724E+03  0.34195608572E+03  0.75221960634E+02 0.  0.
         24    2    4    4    0    0  0.39435849300E+03 -0.83728442913E+02  0.24707045364E+03  0.47952744842E+03  0.79835403003E+02 0.  0.
         13    1    5    5    0    0  0.14582446634E+03 -0.47478397460E+02 -0.23745491382E+03  0.28267261860E+03  0.00000000000E+00 0. -1.
        -14    1    5    5    0    0 -0.18049329567E+01 -0.20070506667E+02 -0.55753443415E+02  0.59283467118E+02  0.00000000000E+00 0.  1.
         15    1    3    3    0    0 -0.52096932254E+03  0.13890590286E+03  0.12905034591E+03  0.55440151009E+03  0.17770000000E+01 0. -1.
        -16    1    3    3    0    0 -0.17408703833E+02  0.12371444177E+02  0.21220387055E+02  0.30106816951E+02  0.00000000000E+00 0.  1.
          4    1    6    6  502    0  0.16799442505E+03 -0.43628732512E+02  0.61683460607E+02  0.18420217822E+03  0.00000000000E+00 0. -1.
         -3    1    6    6    0  502  0.22636406795E+03 -0.40099710401E+02  0.18538699303E+03  0.29532527020E+03  0.00000000000E+00 0.  1.
<mgrwt>
<rscale>  0 0.56874777E+03</rscale>
<asrwt>0</asrwt>
<pdfrwt beam="1">  1        1 0.11616344E+00 0.56874777E+03</pdfrwt>
<pdfrwt beam="2">  1       -2 0.10014300E+00 0.56874777E+03</pdfrwt>
<totfact> 0.18206502E+01</totfact>
</mgrwt>
</event>
<event>
12    3  0.1176505E-007  0.1014039E+04  0.7818608E-02  0.9293279E-01
         -2   -1    0    0    0  501 -0.00000000000E+00  0.00000000000E+00  0.54721664916E+03  0.54721664916E+03  0.00000000000E+00 0.  1.
          1   -1    0    0  501    0  0.00000000000E+00 -0.00000000000E+00 -0.21664255563E+04  0.21664255563E+04  0.00000000000E+00 0. -1.
        -24    2    1    2    0    0  0.32179437550E+03  0.94635846061E+03 -0.62699388070E+03  0.11826409761E+04  0.79827287244E+02 0.  0.
    5000000    2    1    2    0    0 -0.32179437550E+03 -0.94635846061E+03 -0.99221502642E+03  0.15310012294E+04  0.60027339573E+03 0.  0.
        -24    2    4    4    0    0 -0.26800464079E+03 -0.51454898853E+03 -0.19124275779E+03  0.61594983869E+03  0.78951011986E+02 0.  0.
         24    2    4    4    0    0 -0.53789734707E+02 -0.43180947207E+03 -0.80097226863E+03  0.91505139068E+03  0.80060706600E+02 0.  0.
         11    1    5    5    0    0 -0.10655578508E+03 -0.28906229005E+03 -0.94799781802E+02  0.32233234633E+03  0.00000000000E+00 0. -1.
        -12    1    5    5    0    0 -0.16144885571E+03 -0.22548669848E+03 -0.96442975988E+02  0.29361749236E+03  0.00000000000E+00 0.  1.
         15    1    3    3    0    0  0.24767746401E+02  0.13115649483E+03 -0.61322599718E+02  0.14689821769E+03  0.17770000000E+01 0. -1.
        -16    1    3    3    0    0  0.29702662910E+03  0.81520196578E+03 -0.56567128098E+03  0.10357427584E+04  0.00000000000E+00 0.  1.
          2    1    6    6  502    0  0.10053140567E+02 -0.22259574654E+03 -0.43317859583E+03  0.48712793792E+03  0.00000000000E+00 0. -1.
         -1    1    6    6    0  502 -0.63842875274E+02 -0.20921372553E+03 -0.36779367280E+03  0.42792345276E+03  0.00000000000E+00 0.  1.
<mgrwt>
<rscale>  0 0.10140392E+04</rscale>
<asrwt>0</asrwt>
<pdfrwt beam="1">  1        1 0.33329624E+00 0.10140392E+04</pdfrwt>
<pdfrwt beam="2">  1       -2 0.84187177E-01 0.10140392E+04</pdfrwt>
<totfact> 0.25014773E+00</totfact>
</mgrwt>
</event>
<event>
12    3  0.1176505E-007  0.3252593E+03  0.7818608E-02  0.1073254E+00
          1   -1    0    0  501    0  0.00000000000E+00  0.00000000000E+00  0.39417306378E+03  0.39417306378E+03  0.00000000000E+00 0. -1.
         -2   -1    0    0    0  501 -0.00000000000E+00 -0.00000000000E+00 -0.78396471300E+03  0.78396471300E+03  0.00000000000E+00 0.  1.
        -24    2    1    2    0    0 -0.62197780321E+02 -0.32185052582E+01 -0.54586561264E+03  0.55521672332E+03  0.80108801897E+02 0.  0.
    5000000    2    1    2    0    0  0.62197780321E+02  0.32185052582E+01  0.15607396341E+03  0.62292105346E+03  0.59982717022E+03 0.  0.
        -24    2    4    4    0    0 -0.81328163086E+02  0.25929631234E+03  0.42883255206E+01  0.28318320805E+03  0.79532960972E+02 0.  0.
         24    2    4    4    0    0  0.14352594341E+03 -0.25607780708E+03  0.15178563789E+03  0.33973784541E+03  0.78786953407E+02 0.  0.
         13    1    5    5    0    0  0.15332885647E+02  0.53977732957E+02  0.39031287362E+01  0.56248799555E+02  0.00000000000E+00 0. -1.
        -14    1    5    5    0    0 -0.96661048733E+02  0.20531857938E+03  0.38519678440E+00  0.22693440849E+03  0.00000000000E+00 0.  1.
         15    1    3    3    0    0 -0.27640193673E+02 -0.14287174732E+02 -0.56645655374E+02  0.64652855079E+02  0.17770000000E+01 0. -1.
        -16    1    3    3    0    0 -0.34557586648E+02  0.11068669474E+02 -0.48921995726E+03  0.49056386824E+03  0.00000000000E+00 0.  1.
          4    1    6    6  502    0  0.11199597185E+03 -0.23950993034E+03  0.15019762491E+03  0.30408457864E+03  0.00000000000E+00 0. -1.
         -3    1    6    6    0  502  0.31529971558E+02 -0.16567876740E+02  0.15880129840E+01  0.35653266770E+02  0.00000000000E+00 0.  1.
<mgrwt>
<rscale>  0 0.32525930E+03</rscale>
<asrwt>0</asrwt>
<pdfrwt beam="1">  1        1 0.60642010E-01 0.32525930E+03</pdfrwt>
<pdfrwt beam="2">  1       -2 0.12060996E+00 0.32525930E+03</pdfrwt>
<totfact> 0.29848444E+01</totfact>
</mgrwt>
</event>
<event>
12    3  0.1176505E-007  0.7265409E+03  0.7818608E-02  0.9672890E-01
         -2   -1    0    0    0  501 -0.00000000000E+00  0.00000000000E+00  0.76218280909E+03  0.76218280909E+03  0.00000000000E+00 0.  1.
          1   -1    0    0  501    0  0.00000000000E+00 -0.00000000000E+00 -0.97332890699E+03  0.97332890699E+03  0.00000000000E+00 0. -1.
        -24    2    1    2    0    0  0.65483299231E+03 -0.10056166663E+03  0.27016752559E+03  0.72019926308E+03  0.82326120077E+02 0.  0.
    5000000    2    1    2    0    0 -0.65483299231E+03  0.10056166663E+03 -0.48131362349E+03  0.10153124530E+04  0.60023135243E+03 0.  0.
        -24    2    4    4    0    0 -0.55499980821E+03  0.22965570415E+03 -0.55236508063E+03  0.81997015827E+03  0.80481976826E+02 0.  0.
         24    2    4    4    0    0 -0.99833184104E+02 -0.12909403752E+03  0.71051457139E+02  0.19534229473E+03  0.80488305836E+02 0.  0.
         13    1    5    5    0    0 -0.21027940547E+03  0.12948960851E+03 -0.21871761829E+03  0.32988237848E+03  0.00000000000E+00 0. -1.
        -14    1    5    5    0    0 -0.34472040273E+03  0.10016609564E+03 -0.33364746234E+03  0.49008777980E+03  0.00000000000E+00 0.  1.
         15    1    3    3    0    0  0.45955045724E+03 -0.10478407129E+03  0.17357168693E+03  0.50229136224E+03  0.17770000000E+01 0. -1.
        -16    1    3    3    0    0  0.19528253507E+03  0.42224046530E+01  0.96595838659E+02  0.21790790084E+03  0.00000000000E+00 0.  1.
          2    1    6    6  502    0 -0.63711892015E+01 -0.69147880008E+02  0.15340364032E+02  0.71115034487E+02  0.00000000000E+00 0. -1.
         -1    1    6    6    0  502 -0.93461994902E+02 -0.59946157510E+02  0.55711093107E+02  0.12422726024E+03  0.00000000000E+00 0.  1.
<mgrwt>
<rscale>  0 0.72654091E+03</rscale>
<asrwt>0</asrwt>
<pdfrwt beam="1">  1        1 0.14974291E+00 0.72654091E+03</pdfrwt>
<pdfrwt beam="2">  1       -2 0.11725889E+00 0.72654091E+03</pdfrwt>
<totfact> 0.80382239E+00</totfact>
</mgrwt>
</event>
<event>
12    3  0.1176505E-007  0.3212578E+03  0.7818608E-02  0.1075072E+00
         -2   -1    0    0    0  501 -0.00000000000E+00  0.00000000000E+00  0.37057089109E+03  0.37057089109E+03  0.00000000000E+00 0.  1.
          1   -1    0    0  501    0  0.00000000000E+00 -0.00000000000E+00 -0.78752498632E+03  0.78752498632E+03  0.00000000000E+00 0. -1.
        -24    2    1    2    0    0 -0.19472436586E+02  0.26155857428E+03  0.13046389255E+03  0.30468741611E+03  0.83794574469E+02 0.  0.
    5000000    2    1    2    0    0  0.19472436586E+02 -0.26155857428E+03 -0.54741798778E+03  0.85340846130E+03  0.59987289063E+03 0.  0.
        -24    2    4    4    0    0 -0.76764820242E+02 -0.68856035597E+01 -0.55758792748E+03  0.56848687940E+03  0.79578803763E+02 0.  0.
         24    2    4    4    0    0  0.96237256828E+02 -0.25467297072E+03  0.10169939705E+02  0.28492158191E+03  0.83408324189E+02 0.  0.
         13    1    5    5    0    0  0.67896334152E+01  0.91617194220E+01 -0.22162077322E+03  0.22191395482E+03  0.00000000000E+00 0. -1.
        -14    1    5    5    0    0 -0.83554453657E+02 -0.16047322982E+02 -0.33596715427E+03  0.34657292457E+03  0.00000000000E+00 0.  1.
         15    1    3    3    0    0 -0.51724064480E+01  0.16245298683E+03  0.34853471950E+02  0.16623973338E+03  0.17770000000E+01 0. -1.
        -16    1    3    3    0    0 -0.14300030138E+02  0.99105587449E+02  0.95610420598E+02  0.13844768273E+03  0.00000000000E+00 0.  1.
          4    1    6    6  502    0  0.34652114228E+02 -0.18496031522E+02  0.11200377452E+02  0.40845081192E+02  0.00000000000E+00 0. -1.
         -3    1    6    6    0  502  0.61585142600E+02 -0.23617693920E+03 -0.10304377467E+01  0.24407650071E+03  0.00000000000E+00 0.  1.
<mgrwt>
<rscale>  0 0.32125778E+03</rscale>
<asrwt>0</asrwt>
<pdfrwt beam="1">  1        1 0.12115769E+00 0.32125778E+03</pdfrwt>
<pdfrwt beam="2">  1       -2 0.57010906E-01 0.32125778E+03</pdfrwt>
<totfact> 0.61282666E+01</totfact>
</mgrwt>
</event>
<event>
12    3  0.1176505E-007  0.1060054E+04  0.7818608E-02  0.9245025E-01
         -4   -1    0    0    0  501 -0.00000000000E+00  0.00000000000E+00  0.10309498099E+04  0.10309498099E+04  0.00000000000E+00 0.  1.
          1   -1    0    0  501    0  0.00000000000E+00 -0.00000000000E+00 -0.11494396961E+04  0.11494396961E+04  0.00000000000E+00 0. -1.
        -24    2    1    2    0    0 -0.55501439602E+03  0.80589932386E+03  0.17095129062E+03  0.99655749127E+03  0.79923648935E+02 0.  0.
    5000000    2    1    2    0    0  0.55501439602E+03 -0.80589932386E+03 -0.28944117685E+03  0.11838320147E+04  0.60013943732E+03 0.  0.
        -24    2    4    4    0    0  0.18158254298E+03 -0.72738270825E+03 -0.23471921850E+03  0.78934447580E+03  0.76901012829E+02 0.  0.
         24    2    4    4    0    0  0.37343185304E+03 -0.78516615613E+02 -0.54721958349E+02  0.39448753891E+03  0.83724057713E+02 0.  0.
         11    1    5    5    0    0  0.21929215599E+00 -0.10091360167E+03 -0.41679688064E+02  0.10918241382E+03  0.00000000000E+00 0. -1.
        -12    1    5    5    0    0  0.18136325082E+03 -0.62646910658E+03 -0.19303953043E+03  0.68016206198E+03  0.00000000000E+00 0.  1.
         15    1    3    3    0    0 -0.58364622403E+02  0.86921295966E+02 -0.63859439668E+01  0.10490795418E+03  0.17770000000E+01 0. -1.
        -16    1    3    3    0    0 -0.49664977362E+03  0.71897802790E+03  0.17733723459E+03  0.89164953709E+03  0.00000000000E+00 0.  1.
          2    1    6    6  502    0  0.75889477542E+02  0.13339282831E+02  0.57675277566E+01  0.77268451805E+02  0.00000000000E+00 0. -1.
         -1    1    6    6    0  502  0.29754237550E+03 -0.91855898444E+02 -0.60489486106E+02  0.31721908711E+03  0.00000000000E+00 0.  1.
<mgrwt>
<rscale>  0 0.10600543E+04</rscale>
<asrwt>0</asrwt>
<pdfrwt beam="1">  1        1 0.17683688E+00 0.10600543E+04</pdfrwt>
<pdfrwt beam="2">  1       -4 0.15860766E+00 0.10600543E+04</pdfrwt>
<totfact> 0.14082233E+00</totfact>
</mgrwt>
</event>
<event>
12    3  0.1176505E-007  0.9328432E+03  0.7818608E-02  0.9385432E-01
          1   -1    0    0  501    0  0.00000000000E+00  0.00000000000E+00  0.17964131858E+04  0.17964131858E+04  0.00000000000E+00 0. -1.
         -2   -1    0    0    0  501 -0.00000000000E+00 -0.00000000000E+00 -0.66526807964E+03  0.66526807964E+03  0.00000000000E+00 0.  1.
        -24    2    1    2    0    0 -0.81656223339E+03  0.37681926842E+03  0.81718308727E+01  0.90288241089E+03  0.79769837766E+02 0.  0.
    5000000    2    1    2    0    0  0.81656223339E+03 -0.37681926842E+03  0.11229732753E+04  0.15587988546E+04  0.60001520808E+03 0.  0.
        -24    2    4    4    0    0  0.37959243525E+03  0.83179358621E+01  0.79476982080E+03  0.88549633391E+03  0.91022438757E+02 0.  0.
         24    2    4    4    0    0  0.43696979814E+03 -0.38513720428E+03  0.32820345451E+03  0.67330252067E+03  0.79658685516E+02 0.  0.
         11    1    5    5    0    0  0.31136752912E+03  0.26698651105E+02  0.57217252784E+03  0.65195395373E+03  0.00000000000E+00 0. -1.
        -12    1    5    5    0    0  0.68224906123E+02 -0.18380715243E+02  0.22259729296E+03  0.23354238019E+03  0.00000000000E+00 0.  1.
         15    1    3    3    0    0 -0.11540248736E+03  0.39871245641E+02 -0.23362758447E+02  0.12432387755E+03  0.17770000000E+01 0. -1.
        -16    1    3    3    0    0 -0.70115974603E+03  0.33694802278E+03  0.31534589320E+02  0.77855853334E+03  0.00000000000E+00 0.  1.
          4    1    6    6  502    0  0.17369631112E+03 -0.15007730326E+03  0.85451926619E+02  0.24494006861E+03  0.00000000000E+00 0. -1.
         -3    1    6    6    0  502  0.26327348702E+03 -0.23505990102E+03  0.24275152789E+03  0.42836245205E+03  0.00000000000E+00 0.  1.
<mgrwt>
<rscale>  0 0.93284318E+03</rscale>
<asrwt>0</asrwt>
<pdfrwt beam="1">  1        1 0.27637126E+00 0.93284318E+03</pdfrwt>
<pdfrwt beam="2">  1       -2 0.10234894E+00 0.93284318E+03</pdfrwt>
<totfact> 0.28438396E+00</totfact>
</mgrwt>
</event>
<event>
12    3  0.1176505E-007  0.6077588E+03  0.7818608E-02  0.9889438E-01
          1   -1    0    0  501    0  0.00000000000E+00  0.00000000000E+00  0.96804333334E+03  0.96804333334E+03  0.00000000000E+00 0. -1.
         -2   -1    0    0    0  501 -0.00000000000E+00 -0.00000000000E+00 -0.48128685367E+03  0.48128685367E+03  0.00000000000E+00 0.  1.
        -24    2    1    2    0    0 -0.35177818484E+03 -0.39589582996E+03  0.34341148267E+03  0.63625825197E+03  0.80073199383E+02 0.  0.
    5000000    2    1    2    0    0  0.35177818484E+03  0.39589582996E+03  0.14334499701E+03  0.81307193504E+03  0.60004731804E+03 0.  0.
        -24    2    4    4    0    0  0.44561825374E+03  0.33801544417E+03  0.27174613092E+03  0.62640173439E+03  0.75518902416E+02 0.  0.
         24    2    4    4    0    0 -0.93840068898E+02  0.57880385789E+02 -0.12840113391E+03  0.18667020065E+03  0.78757952175E+02 0.  0.
         13    1    5    5    0    0  0.25514342921E+03  0.14817575996E+03  0.13016880078E+03  0.32248742922E+03  0.00000000000E+00 0. -1.
        -14    1    5    5    0    0  0.19047482452E+03  0.18983968421E+03  0.14157733014E+03  0.30391430517E+03  0.00000000000E+00 0.  1.
         15    1    3    3    0    0 -0.97664964059E+02 -0.70806565654E+02  0.53521725698E+02  0.13198389218E+03  0.17770000000E+01 0. -1.
        -16    1    3    3    0    0 -0.25411322078E+03 -0.32508926430E+03  0.28988975697E+03  0.50427435979E+03  0.00000000000E+00 0.  1.
          2    1    6    6  502    0 -0.26665653966E+02 -0.39783347064E+01 -0.77649922349E+02  0.82197291253E+02  0.00000000000E+00 0. -1.
         -1    1    6    6    0  502 -0.67174414932E+02  0.61858720496E+02 -0.50751211564E+02  0.10447290940E+03  0.00000000000E+00 0.  1.
<mgrwt>
<rscale>  0 0.60775882E+03</rscale>
<asrwt>0</asrwt>
<pdfrwt beam="1">  1        1 0.14892974E+00 0.60775882E+03</pdfrwt>
<pdfrwt beam="2">  1       -2 0.74044132E-01 0.60775882E+03</pdfrwt>
<totfact> 0.23998684E+01</totfact>
</mgrwt>
</event>
<event>
12    3  0.1176505E-007  0.5144033E+03  0.7818608E-02  0.1010086E+00
         -2   -1    0    0    0  501 -0.00000000000E+00  0.00000000000E+00  0.28096175694E+03  0.28096175694E+03  0.00000000000E+00 0.  1.
          1   -1    0    0  501    0  0.00000000000E+00 -0.00000000000E+00 -0.13564939514E+04  0.13564939514E+04  0.00000000000E+00 0. -1.
        -24    2    1    2    0    0 -0.37298749575E+03  0.45889827758E+01 -0.38903560114E+02  0.38302643590E+03  0.77814091671E+02 0.  0.
    5000000    2    1    2    0    0  0.37298749575E+03 -0.45889827758E+01 -0.10366286343E+04  0.12544292724E+04  0.59987760689E+03 0.  0.
        -24    2    4    4    0    0  0.41765342092E+03  0.17572739260E+03 -0.49214976715E+03  0.67356284973E+03  0.78492182553E+02 0.  0.
         24    2    4    4    0    0 -0.44665925170E+02 -0.18031637538E+03 -0.54447886717E+03  0.58086642268E+03  0.80246645416E+02 0.  0.
         11    1    5    5    0    0  0.24169932272E+03  0.13709077338E+03 -0.32762516179E+03  0.42959363285E+03  0.00000000000E+00 0. -1.
        -12    1    5    5    0    0  0.17595409820E+03  0.38636619221E+02 -0.16452460536E+03  0.24396921689E+03  0.00000000000E+00 0.  1.
         15    1    3    3    0    0 -0.18294503162E+03 -0.31763704737E+02 -0.37986453078E+02  0.18953613344E+03  0.17770000000E+01 0. -1.
        -16    1    3    3    0    0 -0.19004246413E+03  0.36352687513E+02 -0.91710703657E+00  0.19349030246E+03  0.00000000000E+00 0.  1.
          4    1    6    6  502    0  0.99217457054E+01 -0.21612796648E+02 -0.15432923572E+03  0.15615078295E+03  0.00000000000E+00 0. -1.
         -3    1    6    6    0  502 -0.54587670875E+02 -0.15870357873E+03 -0.39014963145E+03  0.42471563974E+03  0.00000000000E+00 0.  1.
<mgrwt>
<rscale>  0 0.51440333E+03</rscale>
<asrwt>0</asrwt>
<pdfrwt beam="1">  1        1 0.20869138E+00 0.51440333E+03</pdfrwt>
<pdfrwt beam="2">  1       -2 0.43224885E-01 0.51440333E+03</pdfrwt>
<totfact> 0.38800249E+01</totfact>
</mgrwt>
</event>
<event>
12    3  0.1176505E-007  0.1386826E+04  0.7818608E-02  0.8963410E-01
          1   -1    0    0  501    0  0.00000000000E+00  0.00000000000E+00  0.13726371426E+04  0.13726371426E+04  0.00000000000E+00 0. -1.
         -2   -1    0    0    0  501 -0.00000000000E+00 -0.00000000000E+00 -0.16192498803E+04  0.16192498803E+04  0.00000000000E+00 0.  1.
        -24    2    1    2    0    0  0.29460454851E+02  0.13631126198E+04  0.31202826319E+03  0.14009754833E+04  0.80166920432E+02 0.  0.
    5000000    2    1    2    0    0 -0.29460454851E+02 -0.13631126198E+04 -0.55864100090E+03  0.15909115396E+04  0.59997985483E+03 0.  0.
        -24    2    4    4    0    0  0.12903713726E+03 -0.21406640397E+03  0.66435698022E+02  0.27096697608E+03  0.80835586565E+02 0.  0.
         24    2    4    4    0    0 -0.15849759211E+03 -0.11490462159E+04 -0.62507669893E+03  0.13199445635E+04  0.78128601228E+02 0.  0.
         11    1    5    5    0    0  0.69967760892E+02 -0.10808830365E+03 -0.73438934934E+01  0.12896705673E+03  0.00000000000E+00 0. -1.
        -12    1    5    5    0    0  0.59069376365E+02 -0.10597810032E+03  0.73779591515E+02  0.14199991935E+03  0.00000000000E+00 0.  1.
         15    1    3    3    0    0  0.38007630235E+01  0.39742323774E+03  0.12820225351E+03  0.41761064549E+03  0.17770000000E+01 0. -1.
        -16    1    3    3    0    0  0.25659691827E+02  0.96568938209E+03  0.18382600969E+03  0.98336483785E+03  0.00000000000E+00 0.  1.
          2    1    6    6  502    0 -0.13532887249E+03 -0.10255314156E+04 -0.52954566291E+03  0.11620874310E+04  0.00000000000E+00 0. -1.
         -1    1    6    6    0  502 -0.23168719623E+02 -0.12351480022E+03 -0.95531036015E+02  0.15785713251E+03  0.00000000000E+00 0.  1.
<mgrwt>
<rscale>  0 0.13868263E+04</rscale>
<asrwt>0</asrwt>
<pdfrwt beam="1">  1        1 0.21117495E+00 0.13868263E+04</pdfrwt>
<pdfrwt beam="2">  1       -2 0.24911537E+00 0.13868263E+04</pdfrwt>
<totfact> 0.43750559E-01</totfact>
</mgrwt>
</event>
<event>
12    3  0.1176505E-007  0.9197606E+03  0.7818608E-02  0.9401211E-01
         -2   -1    0    0    0  501 -0.00000000000E+00  0.00000000000E+00  0.36200162741E+03  0.36200162741E+03  0.00000000000E+00 0.  1.
          1   -1    0    0  501    0  0.00000000000E+00 -0.00000000000E+00 -0.24372647495E+04  0.24372647495E+04  0.00000000000E+00 0. -1.
        -24    2    1    2    0    0  0.76675773390E+03 -0.32513657185E+03 -0.11234187879E+04  0.13994063652E+04  0.51353569673E+02 0.  0.
    5000000    2    1    2    0    0 -0.76675773390E+03  0.32513657185E+03 -0.95184433418E+03  0.13998600117E+04  0.59997433530E+03 0.  0.
        -24    2    4    4    0    0 -0.39863632543E+02  0.26718877813E+03 -0.36160658787E+03  0.45836233675E+03  0.79735531648E+02 0.  0.
         24    2    4    4    0    0 -0.72689410136E+03  0.57947793719E+02 -0.59023774631E+03  0.94149767495E+03  0.79399580523E+02 0.  0.
         11    1    5    5    0    0  0.80226912736E+01  0.84124604607E+02 -0.65326766900E+02  0.10681244847E+03  0.00000000000E+00 0. -1.
        -12    1    5    5    0    0 -0.47886323816E+02  0.18306417352E+03 -0.29627982097E+03  0.35154988828E+03  0.00000000000E+00 0.  1.
         15    1    3    3    0    0  0.26680164301E+03 -0.11737302972E+03 -0.35328926528E+03  0.45801310845E+03  0.17770000000E+01 0. -1.
        -16    1    3    3    0    0  0.49995609089E+03 -0.20776354213E+03 -0.77012952265E+03  0.94139325679E+03  0.00000000000E+00 0.  1.
          2    1    6    6  502    0 -0.16028337878E+03  0.43601794183E+02 -0.15011886742E+03  0.22389183175E+03  0.00000000000E+00 0. -1.
         -1    1    6    6    0  502 -0.56661072258E+03  0.14345999536E+02 -0.44011887889E+03  0.71760584320E+03  0.00000000000E+00 0.  1.
<mgrwt>
<rscale>  0 0.91976056E+03</rscale>
<asrwt>0</asrwt>
<pdfrwt beam="1">  1        1 0.37496381E+00 0.91976056E+03</pdfrwt>
<pdfrwt beam="2">  1       -2 0.55692558E-01 0.91976056E+03</pdfrwt>
<totfact> 0.40868675E+00</totfact>
</mgrwt>
</event>
<event>
12    3  0.1176505E-007  0.1782916E+04  0.7818608E-02  0.8715438E-01
         -2   -1    0    0    0  501 -0.00000000000E+00  0.00000000000E+00  0.11934610890E+04  0.11934610890E+04  0.00000000000E+00 0.  1.
          1   -1    0    0  501    0  0.00000000000E+00 -0.00000000000E+00 -0.28141054559E+04  0.28141054559E+04  0.00000000000E+00 0. -1.
        -24    2    1    2    0    0 -0.23006912390E+02 -0.17417682434E+04 -0.37511988877E+03  0.17836887359E+04  0.80898973531E+02 0.  0.
    5000000    2    1    2    0    0  0.23006912390E+02  0.17417682434E+04 -0.12455244781E+04  0.22238778090E+04  0.60001279301E+03 0.  0.
        -24    2    4    4    0    0  0.19730905648E+03  0.28452218921E+03 -0.12473719067E+03  0.37557779975E+03  0.74937153726E+02 0.  0.
         24    2    4    4    0    0 -0.17430214409E+03  0.14572460542E+04 -0.11207872874E+04  0.18483000092E+04  0.78111973366E+02 0.  0.
         11    1    5    5    0    0  0.14892600716E+03  0.25715374864E+03 -0.92064510623E+02  0.31109946989E+03  0.00000000000E+00 0. -1.
        -12    1    5    5    0    0  0.48383049315E+02  0.27368440571E+02 -0.32672680051E+02  0.64478329864E+02  0.00000000000E+00 0.  1.
         15    1    3    3    0    0  0.22473297571E+02 -0.10715728308E+04 -0.21585721252E+03  0.10933301765E+04  0.17770000000E+01 0. -1.
        -16    1    3    3    0    0 -0.45480209961E+02 -0.67019541258E+03 -0.15926267625E+03  0.69035855943E+03  0.00000000000E+00 0.  1.
          2    1    6    6  502    0 -0.56903296897E+02  0.78925448007E+03 -0.61783652909E+03  0.10039335616E+04  0.00000000000E+00 0. -1.
         -1    1    6    6    0  502 -0.11739884719E+03  0.66799157415E+03 -0.50295075836E+03  0.84436644757E+03  0.00000000000E+00 0.  1.
<mgrwt>
<rscale>  0 0.17829158E+04</rscale>
<asrwt>0</asrwt>
<pdfrwt beam="1">  1        1 0.43293930E+00 0.17829158E+04</pdfrwt>
<pdfrwt beam="2">  1       -2 0.18360940E+00 0.17829158E+04</pdfrwt>
<totfact> 0.11194572E-01</totfact>
</mgrwt>
</event>
<event>
12    3  0.1176505E-007  0.6102559E+03  0.7818608E-02  0.9884354E-01
          1   -1    0    0  501    0  0.00000000000E+00  0.00000000000E+00  0.18121173697E+04  0.18121173697E+04  0.00000000000E+00 0. -1.
         -2   -1    0    0    0  501 -0.00000000000E+00 -0.00000000000E+00 -0.24524346300E+03  0.24524346300E+03  0.00000000000E+00 0.  1.
        -24    2    1    2    0    0  0.97435010720E+02 -0.50822920998E+03  0.46548263836E+03  0.70054622452E+03  0.79375152814E+02 0.  0.
    5000000    2    1    2    0    0 -0.97435010720E+02  0.50822920998E+03  0.11013912684E+04  0.13568146082E+04  0.60007719823E+03 0.  0.
        -24    2    4    4    0    0 -0.27815821349E+03  0.37475132499E+03  0.41120004841E+03  0.62686878611E+03  0.77900243132E+02 0.  0.
         24    2    4    4    0    0  0.18072320277E+03  0.13347788499E+03  0.69019121997E+03  0.72994582211E+03  0.77328916256E+02 0.  0.
         11    1    5    5    0    0 -0.23413270858E+03  0.35211701809E+03  0.35634501052E+03  0.55297946271E+03  0.00000000000E+00 0. -1.
        -12    1    5    5    0    0 -0.44025504910E+02  0.22634306896E+02  0.54855037888E+02  0.73889323403E+02  0.00000000000E+00 0.  1.
         15    1    3    3    0    0  0.45752634343E+02 -0.81003460392E+02  0.76469429997E+02  0.12043917800E+03  0.17770000000E+01 0. -1.
        -16    1    3    3    0    0  0.51682376377E+02 -0.42722574959E+03  0.38901320836E+03  0.58010704652E+03  0.00000000000E+00 0.  1.
          2    1    6    6  502    0  0.14643705121E+03  0.11129427539E+03  0.44720634874E+03  0.48355324842E+03  0.00000000000E+00 0. -1.
         -1    1    6    6    0  502  0.34286151562E+02  0.22183609601E+02  0.24298487123E+03  0.24639257369E+03  0.00000000000E+00 0.  1.
<mgrwt>
<rscale>  0 0.61025587E+03</rscale>
<asrwt>0</asrwt>
<pdfrwt beam="1">  1        1 0.27878728E+00 0.61025587E+03</pdfrwt>
<pdfrwt beam="2">  1       -2 0.37729765E-01 0.61025587E+03</pdfrwt>
<totfact> 0.24525899E+01</totfact>
</mgrwt>
</event>
<event>
12    3  0.1176505E-007  0.4817335E+03  0.7818608E-02  0.1018660E+00
          1   -1    0    0  501    0  0.00000000000E+00  0.00000000000E+00  0.20712345852E+04  0.20712345852E+04  0.00000000000E+00 0. -1.
         -2   -1    0    0    0  501 -0.00000000000E+00 -0.00000000000E+00 -0.18539188189E+03  0.18539188189E+03  0.00000000000E+00 0.  1.
        -24    2    1    2    0    0 -0.27035695802E+03 -0.28855251932E+03  0.11905059950E+04  0.12568507351E+04  0.77548726678E+02 0.  0.
    5000000    2    1    2    0    0  0.27035695802E+03  0.28855251932E+03  0.69533670828E+03  0.99977573197E+03  0.59975239490E+03 0.  0.
        -24    2    4    4    0    0  0.21810610872E+03 -0.41438467007E+02  0.12124382579E+02  0.23475653180E+03  0.75340608971E+02 0.  0.
         24    2    4    4    0    0  0.52250849294E+02  0.32999098633E+03  0.68321232571E+03  0.76501920017E+03  0.82771325443E+02 0.  0.
         13    1    5    5    0    0  0.80985673904E+02 -0.35330375877E+02 -0.26363567336E+02  0.92206032991E+02  0.00000000000E+00 0. -1.
        -14    1    5    5    0    0  0.13712043482E+03 -0.61080911299E+01  0.38487949915E+02  0.14255049881E+03  0.00000000000E+00 0.  1.
         15    1    3    3    0    0 -0.36370448329E+02 -0.79973661712E+02  0.31001352685E+03  0.32222684656E+03  0.17770000000E+01 0. -1.
        -16    1    3    3    0    0 -0.23398650969E+03 -0.20857885761E+03  0.88049246813E+03  0.93462388852E+03  0.00000000000E+00 0.  1.
          2    1    6    6  502    0 -0.12184657671E+01  0.11423232985E+03  0.16048501767E+03  0.19699226061E+03  0.00000000000E+00 0. -1.
         -3    1    6    6    0  502  0.53469315061E+02  0.21575865647E+03  0.52272730804E+03  0.56802693956E+03  0.00000000000E+00 0.  1.
<mgrwt>
<rscale>  0 0.48173354E+03</rscale>
<asrwt>0</asrwt>
<pdfrwt beam="1">  1        1 0.31865146E+00 0.48173354E+03</pdfrwt>
<pdfrwt beam="2">  1       -2 0.28521830E-01 0.48173354E+03</pdfrwt>
<totfact> 0.28537917E+01</totfact>
</mgrwt>
</event>
<event>
12    3  0.1176505E-007  0.3926938E+03  0.7818608E-02  0.1046339E+00
         -4   -1    0    0    0  501 -0.00000000000E+00  0.00000000000E+00  0.29585591775E+03  0.29585591775E+03  0.00000000000E+00 0.  1.
          1   -1    0    0  501    0  0.00000000000E+00 -0.00000000000E+00 -0.10737229419E+04  0.10737229419E+04  0.00000000000E+00 0. -1.
        -24    2    1    2    0    0  0.17034892694E+03 -0.34433338565E+03 -0.41030083587E+03  0.56789665238E+03  0.81090039394E+02 0.  0.
    5000000    2    1    2    0    0 -0.17034892694E+03  0.34433338565E+03 -0.36756618826E+03  0.80168220724E+03  0.60000435105E+03 0.  0.
        -24    2    4    4    0    0 -0.18253883158E+02  0.41924661100E+02  0.15009241516E+03  0.17768012151E+03  0.83376321776E+02 0.  0.
         24    2    4    4    0    0 -0.15209504379E+03  0.30240872455E+03 -0.51765860342E+03  0.62400208573E+03  0.82608923664E+02 0.  0.
         13    1    5    5    0    0 -0.78669603770E+01  0.13052848586E+02 -0.76001016793E+01  0.17030192815E+02  0.00000000000E+00 0. -1.
        -14    1    5    5    0    0 -0.10386922781E+02  0.28871812514E+02  0.15769251684E+03  0.16064992870E+03  0.00000000000E+00 0.  1.
         15    1    3    3    0    0  0.47577096836E+02 -0.18732464191E+03 -0.19788770853E+03  0.27661671049E+03  0.17770000000E+01 0. -1.
        -16    1    3    3    0    0  0.12277183011E+03 -0.15700874374E+03 -0.21241312734E+03  0.29127994189E+03  0.00000000000E+00 0.  1.
          2    1    6    6  502    0 -0.90697380182E+02  0.98387377041E+02 -0.22897749580E+03  0.26521082993E+03  0.00000000000E+00 0. -1.
         -1    1    6    6    0  502 -0.61397663604E+02  0.20402134750E+03 -0.28868110762E+03  0.35879125579E+03  0.00000000000E+00 0.  1.
<mgrwt>
<rscale>  0 0.39269381E+03</rscale>
<asrwt>0</asrwt>
<pdfrwt beam="1">  1        1 0.16518815E+00 0.39269381E+03</pdfrwt>
<pdfrwt beam="2">  1       -4 0.45516294E-01 0.39269381E+03</pdfrwt>
<totfact> 0.31072154E+01</totfact>
</mgrwt>
</event>
<event>
12    3  0.1176505E-007  0.7932238E+03  0.7818608E-02  0.9569878E-01
          1   -1    0    0  501    0  0.00000000000E+00  0.00000000000E+00  0.13416577497E+04  0.13416577497E+04  0.00000000000E+00 0. -1.
         -2   -1    0    0    0  501 -0.00000000000E+00 -0.00000000000E+00 -0.57311574144E+03  0.57311574144E+03  0.00000000000E+00 0.  1.
        -24    2    1    2    0    0 -0.58051393554E+03  0.43634164273E+03  0.54689781148E+02  0.73280152525E+03  0.81342760656E+02 0.  0.
    5000000    2    1    2    0    0  0.58051393554E+03 -0.43634164273E+03  0.71385222708E+03  0.11819719658E+04  0.60006855225E+03 0.  0.
        -24    2    4    4    0    0  0.22811252378E+02 -0.26538376444E+03  0.46544957363E+03  0.54298630371E+03  0.85099499178E+02 0.  0.
         24    2    4    4    0    0  0.55770268316E+03 -0.17095787829E+03  0.24840265345E+03  0.63898566214E+03  0.79623609702E+02 0.  0.
         13    1    5    5    0    0  0.37955752670E+02 -0.13478481215E+03  0.17469580092E+03  0.22388882868E+03  0.00000000000E+00 0. -1.
        -14    1    5    5    0    0 -0.15144500291E+02 -0.13059895229E+03  0.29075377271E+03  0.31909747503E+03  0.00000000000E+00 0.  1.
         15    1    3    3    0    0 -0.38083050071E+02  0.67330370682E+01  0.27807455306E+00  0.38715469070E+02  0.17770000000E+01 0. -1.
        -16    1    3    3    0    0 -0.54243088547E+03  0.42960860567E+03  0.54411706595E+02  0.69408605618E+03  0.00000000000E+00 0.  1.
          4    1    6    6  502    0  0.31686070913E+03 -0.11447379794E+03  0.18167489946E+03  0.38276719883E+03  0.00000000000E+00 0. -1.
         -3    1    6    6    0  502  0.24084197403E+03 -0.56484080358E+02  0.66727753989E+02  0.25621846331E+03  0.00000000000E+00 0.  1.
<mgrwt>
<rscale>  0 0.79322375E+03</rscale>
<asrwt>0</asrwt>
<pdfrwt beam="1">  1        1 0.20640888E+00 0.79322375E+03</pdfrwt>
<pdfrwt beam="2">  1       -2 0.88171653E-01 0.79322375E+03</pdfrwt>
<totfact> 0.84078220E+00</totfact>
</mgrwt>
</event>
<event>
12    3  0.1176505E-007  0.7797464E+03  0.7818608E-02  0.9589805E-01
          1   -1    0    0  501    0  0.00000000000E+00  0.00000000000E+00  0.43575249686E+03  0.43575249686E+03  0.00000000000E+00 0. -1.
         -2   -1    0    0    0  501 -0.00000000000E+00 -0.00000000000E+00 -0.16186221966E+04  0.16186221966E+04  0.00000000000E+00 0.  1.
        -24    2    1    2    0    0 -0.62448014860E+03  0.29269276093E+03 -0.81151769417E+03  0.10677228857E+04  0.76332721221E+02 0.  0.
    5000000    2    1    2    0    0  0.62448014860E+03 -0.29269276093E+03 -0.37135200558E+03  0.98665180779E+03  0.59994580543E+03 0.  0.
        -24    2    4    4    0    0  0.64027384333E+03 -0.38989982490E+03 -0.40758882844E+03  0.85694152555E+03  0.79042123161E+02 0.  0.
         24    2    4    4    0    0 -0.15793694724E+02  0.97207063966E+02  0.36236822862E+02  0.12971028224E+03  0.76243005640E+02 0.  0.
         11    1    5    5    0    0  0.36225196551E+02 -0.44002665180E+02 -0.41207613611E+02  0.70331833671E+02  0.00000000000E+00 0. -1.
        -12    1    5    5    0    0  0.60404864678E+03 -0.34589715972E+03 -0.36638121483E+03  0.78660969188E+03  0.00000000000E+00 0.  1.
         15    1    3    3    0    0 -0.11069413427E+03  0.71806946720E+02 -0.11999179904E+03  0.17835531538E+03  0.17770000000E+01 0. -1.
        -16    1    3    3    0    0 -0.51378601433E+03  0.22088581421E+03 -0.69152589512E+03  0.88936757028E+03  0.00000000000E+00 0.  1.
          4    1    6    6  502    0 -0.37149671416E+02  0.78389668503E+02  0.41900868999E+01  0.86848114790E+02  0.00000000000E+00 0. -1.
         -3    1    6    6    0  502  0.21355976692E+02  0.18817395463E+02  0.32046735962E+02  0.42862167447E+02  0.00000000000E+00 0.  1.
<mgrwt>
<rscale>  0 0.77974635E+03</rscale>
<asrwt>0</asrwt>
<pdfrwt beam="1">  1        1 0.67038845E-01 0.77974635E+03</pdfrwt>
<pdfrwt beam="2">  1       -2 0.24901880E+00 0.77974635E+03</pdfrwt>
<totfact> 0.31393717E+00</totfact>
</mgrwt>
</event>
<event>
12    3  0.1978293E-007  0.1288015E+04  0.7818608E-02  0.9039124E-01
         -2   -1    0    0    0  501 -0.00000000000E+00  0.00000000000E+00  0.12421983131E+04  0.12421983131E+04  0.00000000000E+00 0.  1.
          1   -1    0    0  501    0  0.00000000000E+00 -0.00000000000E+00 -0.13952273067E+04  0.13952273067E+04  0.00000000000E+00 0. -1.
        -24    2    1    2    0    0 -0.75315433433E+03 -0.98486273748E+03  0.60085802914E+02  0.12437479197E+04  0.78118635074E+02 0.  0.
    5000000    2    1    2    0    0  0.75315433433E+03  0.98486273748E+03 -0.21311479657E+03  0.13936777001E+04  0.59976958253E+03 0.  0.
        -24    2    4    4    0    0  0.25231983957E+02  0.39746296840E+03 -0.20502996452E+03  0.45483818473E+03  0.78911492674E+02 0.  0.
         24    2    4    4    0    0  0.72792235037E+03  0.58739976908E+03 -0.80848320527E+01  0.93883951533E+03  0.80279724370E+02 0.  0.
         11    1    5    5    0    0  0.30673066511E+01  0.20840719145E+03 -0.64328204692E+02  0.21813088671E+03  0.00000000000E+00 0. -1.
        -12    1    5    5    0    0  0.22164677306E+02  0.18905577695E+03 -0.14070175983E+03  0.23670729802E+03  0.00000000000E+00 0.  1.
         15    1    3    3    0    0 -0.23650817581E+03 -0.31295613796E+03  0.55338973915E+02  0.39616060036E+03  0.17770000000E+01 0. -1.
        -16    1    3    3    0    0 -0.51664615852E+03 -0.67190659952E+03  0.47468289986E+01  0.84758731938E+03  0.00000000000E+00 0.  1.
          4    1    6    6  502    0  0.22404396088E+03  0.21816698300E+03  0.21519086880E+02  0.31345749309E+03  0.00000000000E+00 0. -1.
         -3    1    6    6    0  502  0.50387838949E+03  0.36923278608E+03 -0.29603918933E+02  0.62538202223E+03  0.00000000000E+00 0.  1.
<mgrwt>
<rscale>  0 0.12880149E+04</rscale>
<asrwt>0</asrwt>
<pdfrwt beam="1">  1        1 0.21465035E+00 0.12880149E+04</pdfrwt>
<pdfrwt beam="2">  1       -2 0.19110743E+00 0.12880149E+04</pdfrwt>
<totfact> 0.99826929E-01</totfact>
</mgrwt>
</event>
<event>
12    3  0.1176505E-007  0.8568222E+03  0.7818608E-02  0.9481226E-01
          1   -1    0    0  501    0  0.00000000000E+00  0.00000000000E+00  0.41890493457E+03  0.41890493457E+03  0.00000000000E+00 0. -1.
         -2   -1    0    0    0  501 -0.00000000000E+00 -0.00000000000E+00 -0.24012427475E+04  0.24012427475E+04  0.00000000000E+00 0.  1.
        -24    2    1    2    0    0 -0.59568613950E+03 -0.53359222497E+03 -0.28876674200E+03  0.85353151435E+03  0.74613506635E+02 0.  0.
    5000000    2    1    2    0    0  0.59568613950E+03  0.53359222497E+03 -0.16935710709E+04  0.19666161677E+04  0.59986126684E+03 0.  0.
        -24    2    4    4    0    0 -0.36481562595E+02  0.15959225473E+03 -0.73053555281E+03  0.75287123246E+03  0.79575791334E+02 0.  0.
         24    2    4    4    0    0  0.63216770210E+03  0.37399997024E+03 -0.96303551809E+03  0.12137449352E+04  0.78913733655E+02 0.  0.
         13    1    5    5    0    0 -0.51836796355E+02  0.77878300669E+02 -0.47580356557E+03  0.48491351413E+03  0.00000000000E+00 0. -1.
        -14    1    5    5    0    0  0.15355233760E+02  0.81713954060E+02 -0.25473198724E+03  0.26795771834E+03  0.00000000000E+00 0.  1.
         15    1    3    3    0    0 -0.37177353669E+03 -0.36127573126E+03 -0.21722825033E+03  0.56207382705E+03  0.17770000000E+01 0. -1.
        -16    1    3    3    0    0 -0.22391260281E+03 -0.17231649371E+03 -0.71538491675E+02  0.29145768731E+03  0.00000000000E+00 0.  1.
          2    1    6    6  502    0  0.19437482680E+03  0.90289171093E+02 -0.23446702720E+03  0.31766097424E+03  0.00000000000E+00 0. -1.
         -1    1    6    6    0  502  0.43779287530E+03  0.28371079914E+03 -0.72856849089E+03  0.89608396098E+03  0.00000000000E+00 0.  1.
<mgrwt>
<rscale>  0 0.85682225E+03</rscale>
<asrwt>0</asrwt>
<pdfrwt beam="1">  1        1 0.64446915E-01 0.85682225E+03</pdfrwt>
<pdfrwt beam="2">  1       -2 0.36942195E+00 0.85682225E+03</pdfrwt>
<totfact> 0.60276789E-01</totfact>
</mgrwt>
</event>
<event>
12    3  0.1176505E-007  0.1448573E+04  0.7818608E-02  0.8919390E-01
          1   -1    0    0  501    0  0.00000000000E+00  0.00000000000E+00  0.19947166093E+04  0.19947166093E+04  0.00000000000E+00 0. -1.
         -2   -1    0    0    0  501 -0.00000000000E+00 -0.00000000000E+00 -0.17501424911E+04  0.17501424911E+04  0.00000000000E+00 0.  1.
        -24    2    1    2    0    0  0.14283780495E+04 -0.21363962664E+03 -0.98961565697E+03  0.17526206079E+04  0.80212870087E+02 0.  0.
    5000000    2    1    2    0    0 -0.14283780495E+04  0.21363962664E+03  0.12341897752E+04  0.19922384925E+04  0.59990338160E+03 0.  0.
        -24    2    4    4    0    0 -0.81691563481E+03  0.16630617040E+03  0.10577317234E+04  0.13490912451E+04  0.79005647180E+02 0.  0.
         24    2    4    4    0    0 -0.61146241468E+03  0.47333456241E+02  0.17645805185E+03  0.64314724736E+03  0.79838568813E+02 0.  0.
         11    1    5    5    0    0 -0.63169469685E+03  0.10606065157E+03  0.76928577401E+03  0.10010432827E+04  0.00000000000E+00 0. -1.
        -12    1    5    5    0    0 -0.18522093795E+03  0.60245518829E+02  0.28844594939E+03  0.34804796237E+03  0.00000000000E+00 0.  1.
         15    1    3    3    0    0  0.20660249572E+03 -0.87468670737E+01 -0.12080962433E+03  0.23949785381E+03  0.17770000000E+01 0. -1.
        -16    1    3    3    0    0  0.12217755538E+04 -0.20489275957E+03 -0.86880603263E+03  0.15131227541E+04  0.00000000000E+00 0.  1.
          2    1    6    6  502    0 -0.53044443686E+03  0.20433257217E+02  0.17060622762E+03  0.55757986288E+03  0.00000000000E+00 0. -1.
         -1    1    6    6    0  502 -0.81017977827E+02  0.26900199024E+02  0.58518242347E+01  0.85567384474E+02  0.00000000000E+00 0.  1.
<mgrwt>
<rscale>  0 0.14485729E+04</rscale>
<asrwt>0</asrwt>
<pdfrwt beam="1">  1        1 0.30687948E+00 0.14485729E+04</pdfrwt>
<pdfrwt beam="2">  1       -2 0.26925269E+00 0.14485729E+04</pdfrwt>
<totfact> 0.12207524E-01</totfact>
</mgrwt>
</event>
<event>
12    3  0.1176505E-007  0.7919662E+03  0.7818608E-02  0.9571719E-01
          1   -1    0    0  501    0  0.00000000000E+00  0.00000000000E+00  0.10727064858E+04  0.10727064858E+04  0.00000000000E+00 0. -1.
         -2   -1    0    0    0  501 -0.00000000000E+00 -0.00000000000E+00 -0.71687883481E+03  0.71687883481E+03  0.00000000000E+00 0.  1.
        -24    2    1    2    0    0 -0.41260419914E+03  0.58775512107E+03  0.44564465491E+03  0.84956647980E+03  0.86404500150E+02 0.  0.
    5000000    2    1    2    0    0  0.41260419914E+03 -0.58775512107E+03 -0.89817003967E+02  0.94001884078E+03  0.59989167299E+03 0.  0.
        -24    2    4    4    0    0  0.17891007374E+03  0.40760754399E+02 -0.16587710905E+03  0.26033325213E+03  0.81166084492E+02 0.  0.
         24    2    4    4    0    0  0.23369412540E+03 -0.62851587547E+03  0.76060105086E+02  0.67968558865E+03  0.80883928341E+02 0.  0.
         13    1    5    5    0    0  0.82841932138E+02 -0.52449701501E+01 -0.31320815933E+02  0.88720284845E+02  0.00000000000E+00 0. -1.
        -14    1    5    5    0    0  0.96068141604E+02  0.46005724549E+02 -0.13455629312E+03  0.17161296729E+03  0.00000000000E+00 0.  1.
         15    1    3    3    0    0 -0.67581681695E+02  0.15049562396E+03  0.12391370463E+03  0.20633463222E+03  0.17770000000E+01 0. -1.
        -16    1    3    3    0    0 -0.34502251744E+03  0.43725949712E+03  0.32173095029E+03  0.64323184757E+03  0.00000000000E+00 0.  1.
          2    1    6    6  502    0  0.13438508981E+03 -0.42927495296E+03  0.80793083932E+02  0.45701625793E+03  0.00000000000E+00 0. -1.
         -1    1    6    6    0  502  0.99309035591E+02 -0.19924092251E+03 -0.47329788454E+01  0.22266933072E+03  0.00000000000E+00 0.  1.
<mgrwt>
<rscale>  0 0.79196619E+03</rscale>
<asrwt>0</asrwt>
<pdfrwt beam="1">  1        1 0.16503177E+00 0.79196619E+03</pdfrwt>
<pdfrwt beam="2">  1       -2 0.11028905E+00 0.79196619E+03</pdfrwt>
<totfact> 0.77653048E+00</totfact>
</mgrwt>
</event>
<event>
12    3  0.1230828E-007  0.9280143E+03  0.7818608E-02  0.9391224E-01
          1   -1    0    0  501    0  0.00000000000E+00  0.00000000000E+00  0.14222650600E+04  0.14222650600E+04  0.00000000000E+00 0. -1.
         -2   -1    0    0    0  501 -0.00000000000E+00 -0.00000000000E+00 -0.63832514622E+03  0.63832514622E+03  0.00000000000E+00 0.  1.
        -24    2    1    2    0    0  0.83997376636E+03  0.13960962796E+03  0.25542591681E+03  0.89248116958E+03  0.78952281089E+02 0.  0.
    5000000    2    1    2    0    0 -0.83997376636E+03 -0.13960962796E+03  0.52851399700E+03  0.11681090367E+04  0.60008741041E+03 0.  0.
        -24    2    4    4    0    0  0.67628924907E+02  0.34489503105E+02  0.86817685777E+02  0.14075477264E+03  0.80693234836E+02 0.  0.
         24    2    4    4    0    0 -0.90760269127E+03 -0.17409913107E+03  0.44169631122E+03  0.10273542640E+04  0.79422917623E+02 0.  0.
         13    1    5    5    0    0  0.49499004623E+02  0.32272277889E+02  0.77398170202E+01  0.59594933898E+02  0.00000000000E+00 0. -1.
        -14    1    5    5    0    0  0.18129920284E+02  0.22172252162E+01  0.79077868757E+02  0.81159838740E+02  0.00000000000E+00 0.  1.
         15    1    3    3    0    0  0.35063810828E+03  0.25109229559E+02  0.83370947310E+02  0.36129133531E+03  0.17770000000E+01 0. -1.
        -16    1    3    3    0    0  0.48933565808E+03  0.11450039841E+03  0.17205496950E+03  0.53118983428E+03  0.00000000000E+00 0.  1.
          4    1    6    6  502    0 -0.66736745291E+03 -0.14063943739E+03  0.28893601137E+03  0.74070425085E+03  0.00000000000E+00 0. -1.
         -3    1    6    6    0  502 -0.24023523835E+03 -0.33459693680E+02  0.15276029985E+03  0.28665001318E+03  0.00000000000E+00 0.  1.
<mgrwt>
<rscale>  0 0.92801427E+03</rscale>
<asrwt>0</asrwt>
<pdfrwt beam="1">  1        1 0.21881001E+00 0.92801427E+03</pdfrwt>
<pdfrwt beam="2">  1       -2 0.98203869E-01 0.92801427E+03</pdfrwt>
<totfact> 0.56527210E+00</totfact>
</mgrwt>
</event>
<event>
12    3  0.1176505E-007  0.9419664E+03  0.7818608E-02  0.9374590E-01
          1   -1    0    0  501    0  0.00000000000E+00  0.00000000000E+00  0.15231952092E+04  0.15231952092E+04  0.00000000000E+00 0. -1.
         -2   -1    0    0    0  501 -0.00000000000E+00 -0.00000000000E+00 -0.76263491133E+03  0.76263491133E+03  0.00000000000E+00 0.  1.
        -24    2    1    2    0    0 -0.33615449270E+03  0.81783960900E+03 -0.12675491555E+03  0.89685770385E+03  0.80158987790E+02 0.  0.
    5000000    2    1    2    0    0  0.33615449270E+03 -0.81783960900E+03  0.88731521340E+03  0.13889724167E+04  0.60004551268E+03 0.  0.
        -24    2    4    4    0    0  0.26923815502E+03 -0.13152242911E+03  0.51565773709E+03  0.60180126541E+03  0.80464450230E+02 0.  0.
         24    2    4    4    0    0  0.66916337682E+02 -0.68631717989E+03  0.37165747631E+03  0.78717115125E+03  0.77460144592E+02 0.  0.
         13    1    5    5    0    0  0.41865255043E+02 -0.56987172889E+02  0.12842113430E+03  0.14660226870E+03  0.00000000000E+00 0. -1.
        -14    1    5    5    0    0  0.22737289997E+03 -0.74535256223E+02  0.38723660279E+03  0.45519899671E+03  0.00000000000E+00 0.  1.
         15    1    3    3    0    0 -0.30212331212E+03  0.72627918000E+03 -0.13766360382E+03  0.79857020266E+03  0.17770000000E+01 0. -1.
        -16    1    3    3    0    0 -0.34031180578E+02  0.91560429003E+02  0.10908688270E+02  0.98287501192E+02  0.00000000000E+00 0.  1.
          2    1    6    6  502    0  0.20103377188E+02 -0.25713212413E+03  0.18173042692E+03  0.31551073374E+03  0.00000000000E+00 0. -1.
         -1    1    6    6    0  502  0.46812960495E+02 -0.42918505576E+03  0.18992704938E+03  0.47166041751E+03  0.00000000000E+00 0.  1.
<mgrwt>
<rscale>  0 0.94196644E+03</rscale>
<asrwt>0</asrwt>
<pdfrwt beam="1">  1        1 0.23433773E+00 0.94196644E+03</pdfrwt>
<pdfrwt beam="2">  1       -2 0.11732845E+00 0.94196644E+03</pdfrwt>
<totfact> 0.31260999E+00</totfact>
</mgrwt>
</event>
<event>
12    3  0.1176505E-007  0.1681857E+04  0.7818608E-02  0.8771780E-01
         -2   -1    0    0    0  501 -0.00000000000E+00  0.00000000000E+00  0.70825329238E+03  0.70825329238E+03  0.00000000000E+00 0.  1.
          1   -1    0    0  501    0  0.00000000000E+00 -0.00000000000E+00 -0.42588106113E+04  0.42588106113E+04  0.00000000000E+00 0. -1.
        -24    2    1    2    0    0 -0.16415711946E+04  0.23023858731E+03 -0.13003602581E+04  0.21085227385E+04  0.84649535159E+02 0.  0.
    5000000    2    1    2    0    0  0.16415711946E+04 -0.23023858731E+03 -0.22501970608E+04  0.28585411651E+04  0.60008748234E+03 0.  0.
        -24    2    4    4    0    0  0.15084381251E+04 -0.10991579717E+03 -0.21704858130E+04  0.26466086377E+04  0.77856001023E+02 0.  0.
         24    2    4    4    0    0  0.13313306954E+03 -0.12032279014E+03 -0.79711247792E+02  0.21193252750E+03  0.79746630987E+02 0.  0.
         11    1    5    5    0    0  0.12151563422E+04 -0.10683455023E+03 -0.17052981549E+04  0.20966784099E+04  0.00000000000E+00 0. -1.
        -12    1    5    5    0    0  0.29328178286E+03 -0.30812469364E+01 -0.46518765806E+03  0.54993022780E+03  0.00000000000E+00 0.  1.
         15    1    3    3    0    0 -0.44653308633E+03  0.28312338168E+02 -0.33054293662E+03  0.55628695505E+03  0.17770000000E+01 0. -1.
        -16    1    3    3    0    0 -0.11950381083E+04  0.20192624914E+03 -0.96981732153E+03  0.15522357835E+04  0.00000000000E+00 0.  1.
          4    1    6    6  502    0  0.13150866419E+03 -0.86737765971E+02 -0.83147157549E+02  0.17813314855E+03  0.00000000000E+00 0. -1.
         -3    1    6    6    0  502  0.16244053457E+01 -0.33585024172E+02  0.34359097572E+01  0.33799378947E+02  0.00000000000E+00 0.  1.
<mgrwt>
<rscale>  0 0.16818571E+04</rscale>
<asrwt>0</asrwt>
<pdfrwt beam="1">  1        1 0.65520163E+00 0.16818571E+04</pdfrwt>
<pdfrwt beam="2">  1       -2 0.10896204E+00 0.16818571E+04</pdfrwt>
<totfact> 0.31131060E-02</totfact>
</mgrwt>
</event>
<event>
12    3  0.1176505E-007  0.9852124E+03  0.7818608E-02  0.9324914E-01
         -2   -1    0    0    0  501 -0.00000000000E+00  0.00000000000E+00  0.28406139509E+03  0.28406139509E+03  0.00000000000E+00 0.  1.
          1   -1    0    0  501    0  0.00000000000E+00 -0.00000000000E+00 -0.40164363296E+04  0.40164363296E+04  0.00000000000E+00 0. -1.
        -24    2    1    2    0    0  0.45330339141E+03  0.79675004894E+03 -0.10123135559E+04  0.13680251379E+04  0.80121391129E+02 0.  0.
    5000000    2    1    2    0    0 -0.45330339141E+03 -0.79675004894E+03 -0.27200613786E+04  0.29324725868E+04  0.60030572527E+03 0.  0.
        -24    2    4    4    0    0 -0.40318873320E+03 -0.85674239570E+03 -0.21383674997E+04  0.23399823857E+04  0.79582125883E+02 0.  0.
         24    2    4    4    0    0 -0.50114658209E+02  0.59992346756E+02 -0.58169387892E+03  0.59249020104E+03  0.81032764510E+02 0.  0.
         11    1    5    5    0    0 -0.26630687305E+03 -0.61098605639E+03 -0.14254597394E+04  0.15735815138E+04  0.00000000000E+00 0. -1.
        -12    1    5    5    0    0 -0.13688186016E+03 -0.24575633930E+03 -0.71290776022E+03  0.76640087196E+03  0.00000000000E+00 0.  1.
         15    1    3    3    0    0  0.88277852792E+02  0.16592444862E+03 -0.16227021100E+03  0.24831166113E+03  0.17770000000E+01 0. -1.
        -16    1    3    3    0    0  0.36502553862E+03  0.63082560032E+03 -0.85004334492E+03  0.11197134768E+04  0.00000000000E+00 0.  1.
          2    1    6    6  502    0  0.18519188509E+02  0.14101660793E+02 -0.23278923103E+03  0.23395008712E+03  0.00000000000E+00 0. -1.
         -1    1    6    6    0  502 -0.68633846718E+02  0.45890685963E+02 -0.34890464789E+03  0.35854011393E+03  0.00000000000E+00 0.  1.
<mgrwt>
<rscale>  0 0.98521242E+03</rscale>
<asrwt>0</asrwt>
<pdfrwt beam="1">  1        1 0.61791328E+00 0.98521242E+03</pdfrwt>
<pdfrwt beam="2">  1       -2 0.43701753E-01 0.98521242E+03</pdfrwt>
<totfact> 0.42708280E-01</totfact>
</mgrwt>
</event>
<event>
12    3  0.1176505E-007  0.5867189E+03  0.7818608E-02  0.9933350E-01
         -2   -1    0    0    0  501 -0.00000000000E+00  0.00000000000E+00  0.65314549603E+03  0.65314549603E+03  0.00000000000E+00 0.  1.
          1   -1    0    0  501    0  0.00000000000E+00 -0.00000000000E+00 -0.97681687711E+03  0.97681687711E+03  0.00000000000E+00 0. -1.
        -24    2    1    2    0    0 -0.13586390875E+03  0.43968938276E+03 -0.65508438847E+03  0.80418920547E+03  0.76150949914E+02 0.  0.
    5000000    2    1    2    0    0  0.13586390875E+03 -0.43968938276E+03  0.33141300739E+03  0.82577316766E+03  0.60023411095E+03 0.  0.
        -24    2    4    4    0    0  0.28339423189E+03 -0.45254073834E+03  0.36755292029E+03  0.65318386031E+03  0.80303148253E+02 0.  0.
         24    2    4    4    0    0 -0.14753032314E+03  0.12851355589E+02 -0.36139912906E+02  0.17258930735E+03  0.80935913679E+02 0.  0.
         13    1    5    5    0    0  0.12175341734E+03 -0.26926259202E+03  0.19582073255E+03  0.35450246458E+03  0.00000000000E+00 0. -1.
        -14    1    5    5    0    0  0.16164081454E+03 -0.18327814633E+03  0.17173218774E+03  0.29868139573E+03  0.00000000000E+00 0.  1.
         15    1    3    3    0    0 -0.75641128528E+02  0.34356863427E+03 -0.51956819648E+03  0.62746733405E+03  0.17770000000E+01 0. -1.
        -16    1    3    3    0    0 -0.60222780222E+02  0.96120748487E+02 -0.13551619199E+03  0.17672187142E+03  0.00000000000E+00 0.  1.
          2    1    6    6  502    0 -0.95200019865E+02 -0.30925904870E+02 -0.15365514991E+02  0.10126971129E+03  0.00000000000E+00 0. -1.
         -1    1    6    6    0  502 -0.52330303273E+02  0.43777260459E+02 -0.20774397914E+02  0.71319596063E+02  0.00000000000E+00 0.  1.
<mgrwt>
<rscale>  0 0.58671891E+03</rscale>
<asrwt>0</asrwt>
<pdfrwt beam="1">  1        1 0.15027952E+00 0.58671891E+03</pdfrwt>
<pdfrwt beam="2">  1       -2 0.10048392E+00 0.58671891E+03</pdfrwt>
<totfact> 0.11812012E+01</totfact>
</mgrwt>
</event>
<event>
12    3  0.1176505E-007  0.4087005E+03  0.7818608E-02  0.1040808E+00
          1   -1    0    0  501    0  0.00000000000E+00  0.00000000000E+00  0.15384703881E+04  0.15384703881E+04  0.00000000000E+00 0. -1.
         -2   -1    0    0    0  501 -0.00000000000E+00 -0.00000000000E+00 -0.15559514942E+03  0.15559514942E+03  0.00000000000E+00 0.  1.
        -24    2    1    2    0    0 -0.21291271731E+03 -0.69233720750E+02  0.77654048941E+03  0.81218143388E+03  0.80612756809E+02 0.  0.
    5000000    2    1    2    0    0  0.21291271731E+03  0.69233720750E+02  0.60633474931E+03  0.88188410369E+03  0.59996050773E+03 0.  0.
        -24    2    4    4    0    0  0.28334297398E+03 -0.16490822699E+03  0.50000948943E+03  0.60356913282E+03  0.82512085998E+02 0.  0.
         24    2    4    4    0    0 -0.70430256672E+02  0.23414194774E+03  0.10632525988E+03  0.27831497087E+03  0.79820356878E+02 0.  0.
         11    1    5    5    0    0  0.74435187953E+02 -0.13297706207E+02  0.76259768799E+02  0.10739170607E+03  0.00000000000E+00 0. -1.
        -12    1    5    5    0    0  0.20890778603E+03 -0.15161052079E+03  0.42374972063E+03  0.49617742675E+03  0.00000000000E+00 0.  1.
         15    1    3    3    0    0 -0.70800060069E+00 -0.18601048343E+02  0.85542068032E+02  0.87561997444E+02  0.17770000000E+01 0. -1.
        -16    1    3    3    0    0 -0.21220471671E+03 -0.50632672407E+02  0.69099842138E+03  0.72461943643E+03  0.00000000000E+00 0.  1.
          4    1    6    6  502    0 -0.39744643671E+02  0.18210214471E+03  0.11230273923E+03  0.21760683134E+03  0.00000000000E+00 0. -1.
         -3    1    6    6    0  502 -0.30685613001E+02  0.52039803030E+02 -0.59774793520E+01  0.60708139521E+02  0.00000000000E+00 0.  1.
<mgrwt>
<rscale>  0 0.40870047E+03</rscale>
<asrwt>0</asrwt>
<pdfrwt beam="1">  1        1 0.23668774E+00 0.40870047E+03</pdfrwt>
<pdfrwt beam="2">  1       -2 0.23937716E-01 0.40870047E+03</pdfrwt>
<totfact> 0.89346492E+01</totfact>
</mgrwt>
</event>
<event>
12    3  0.1176505E-007  0.8981776E+03  0.7818608E-02  0.9427862E-01
         -2   -1    0    0    0  501 -0.00000000000E+00  0.00000000000E+00  0.30655472932E+03  0.30655472932E+03  0.00000000000E+00 0.  1.
          1   -1    0    0  501    0  0.00000000000E+00 -0.00000000000E+00 -0.29786521788E+04  0.29786521788E+04  0.00000000000E+00 0. -1.
        -24    2    1    2    0    0  0.44265951600E+03  0.67025588098E+03 -0.17319531844E+04  0.19108286422E+04  0.80086662651E+02 0.  0.
    5000000    2    1    2    0    0 -0.44265951600E+03 -0.67025588098E+03 -0.94014426506E+03  0.13743782660E+04  0.59987830915E+03 0.  0.
        -24    2    4    4    0    0  0.11352691429E+03 -0.29322510678E+03 -0.27438459099E+03  0.42492994760E+03  0.80057685975E+02 0.  0.
         24    2    4    4    0    0 -0.55618643029E+03 -0.37703077420E+03 -0.66575967408E+03  0.94944831839E+03  0.81979361590E+02 0.  0.
         13    1    5    5    0    0  0.83750160807E+02 -0.19251159995E+03 -0.22855716933E+03  0.31034365662E+03  0.00000000000E+00 0. -1.
        -14    1    5    5    0    0  0.29776753481E+02 -0.10071350683E+03 -0.45827421657E+02  0.11458629098E+03  0.00000000000E+00 0.  1.
         15    1    3    3    0    0  0.32312296184E+03  0.45175416148E+03 -0.11208059300E+04  0.12508794352E+04  0.17770000000E+01 0. -1.
        -16    1    3    3    0    0  0.11953655416E+03  0.21850171950E+03 -0.61114725439E+03  0.65994920695E+03  0.00000000000E+00 0.  1.
          4    1    6    6  502    0 -0.10178892849E+03 -0.10994440102E+03 -0.14935499181E+03  0.21155536121E+03  0.00000000000E+00 0. -1.
         -3    1    6    6    0  502 -0.45439750180E+03 -0.26708637318E+03 -0.51640468227E+03  0.73789295718E+03  0.00000000000E+00 0.  1.
<mgrwt>
<rscale>  0 0.89817764E+03</rscale>
<asrwt>0</asrwt>
<pdfrwt beam="1">  1        1 0.45825418E+00 0.89817764E+03</pdfrwt>
<pdfrwt beam="2">  1       -2 0.47162266E-01 0.89817764E+03</pdfrwt>
<totfact> 0.24138004E+00</totfact>
</mgrwt>
</event>
<event>
12    3  0.1176505E-007  0.3972706E+03  0.7818608E-02  0.1044729E+00
          1   -1    0    0  501    0  0.00000000000E+00  0.00000000000E+00  0.29849327709E+04  0.29849327709E+04  0.00000000000E+00 0. -1.
         -2   -1    0    0    0  501 -0.00000000000E+00 -0.00000000000E+00 -0.60352217645E+02  0.60352217645E+02  0.00000000000E+00 0.  1.
        -24    2    1    2    0    0 -0.18897495188E+03  0.20139704297E+02  0.50892950408E+03  0.54897229562E+03  0.79020257608E+02 0.  0.
    5000000    2    1    2    0    0  0.18897495188E+03 -0.20139704297E+02  0.24156510492E+04  0.24963126929E+04  0.60007493642E+03 0.  0.
        -24    2    4    4    0    0  0.22917364233E+03  0.23309629248E+03  0.16816576782E+04  0.17150681312E+04  0.81435299459E+02 0.  0.
         24    2    4    4    0    0 -0.40198690444E+02 -0.25323599678E+03  0.73399337098E+03  0.78124456175E+03  0.76500927145E+02 0.  0.
         11    1    5    5    0    0  0.41751877846E+02  0.70255888629E+02  0.28382992441E+03  0.29536170229E+03  0.00000000000E+00 0. -1.
        -12    1    5    5    0    0  0.18742176448E+03  0.16284040385E+03  0.13978277538E+04  0.14197064289E+04  0.00000000000E+00 0.  1.
         15    1    3    3    0    0 -0.19582092169E+03  0.19826181090E+02  0.50207926687E+03  0.53928254077E+03  0.17770000000E+01 0. -1.
        -16    1    3    3    0    0  0.68459698047E+01  0.31352320637E+00  0.68502372114E+01  0.96897548586E+01  0.00000000000E+00 0.  1.
          4    1    6    6  502    0 -0.51068098807E+02 -0.19303348043E+03  0.62664514221E+03  0.65768838331E+03  0.00000000000E+00 0. -1.
         -3    1    6    6    0  502  0.10869408364E+02 -0.60202516344E+02  0.10734822876E+03  0.12355617844E+03  0.00000000000E+00 0.  1.
<mgrwt>
<rscale>  0 0.39727062E+03</rscale>
<asrwt>0</asrwt>
<pdfrwt beam="1">  1        1 0.45922031E+00 0.39727062E+03</pdfrwt>
<pdfrwt beam="2">  1       -2 0.92849589E-02 0.39727062E+03</pdfrwt>
<totfact> 0.46966291E+01</totfact>
</mgrwt>
</event>
<event>
12    3  0.1176505E-007  0.6295656E+03  0.7818608E-02  0.9845897E-01
         -2   -1    0    0    0  501 -0.00000000000E+00  0.00000000000E+00  0.46979996312E+03  0.46979996312E+03  0.00000000000E+00 0.  1.
          1   -1    0    0  501    0  0.00000000000E+00 -0.00000000000E+00 -0.90016934029E+03  0.90016934029E+03  0.00000000000E+00 0. -1.
        -24    2    1    2    0    0  0.11134009468E+03  0.48517856728E+03 -0.62277916992E+02  0.50790907521E+03  0.79361394323E+02 0.  0.
    5000000    2    1    2    0    0 -0.11134009468E+03 -0.48517856728E+03 -0.36809146018E+03  0.86206022819E+03  0.59988470155E+03 0.  0.
        -24    2    4    4    0    0  0.21709759504E+03 -0.29246444124E+03 -0.89419050409E+02  0.38329196376E+03  0.79057875934E+02 0.  0.
         24    2    4    4    0    0 -0.32843768972E+03 -0.19271412604E+03 -0.27867240977E+03  0.47876826443E+03  0.80936324720E+02 0.  0.
         11    1    5    5    0    0  0.24217352189E+02 -0.66152751320E+01 -0.18635040073E+02  0.31265104040E+02  0.00000000000E+00 0. -1.
        -12    1    5    5    0    0  0.19288024285E+03 -0.28584916611E+03 -0.70784010336E+02  0.35202685972E+03  0.00000000000E+00 0.  1.
         15    1    3    3    0    0  0.22951974502E+02  0.23600663466E+03 -0.55014638550E+02  0.24342492255E+03  0.17770000000E+01 0. -1.
        -16    1    3    3    0    0  0.88388120179E+02  0.24917193262E+03 -0.72632784419E+01  0.26448415266E+03  0.00000000000E+00 0.  1.
          2    1    6    6  502    0 -0.14286281115E+03 -0.42860861808E+02 -0.12877922245E+03  0.19705563788E+03  0.00000000000E+00 0. -1.
         -1    1    6    6    0  502 -0.18557487857E+03 -0.14985326423E+03 -0.14989318732E+03  0.28171262656E+03  0.00000000000E+00 0.  1.
<mgrwt>
<rscale>  0 0.62956558E+03</rscale>
<asrwt>0</asrwt>
<pdfrwt beam="1">  1        1 0.13848759E+00 0.62956558E+03</pdfrwt>
<pdfrwt beam="2">  1       -2 0.72276919E-01 0.62956558E+03</pdfrwt>
<totfact> 0.28582658E+01</totfact>
</mgrwt>
</event>
<event>
12    3  0.1176505E-007  0.9871626E+03  0.7818608E-02  0.9322738E-01
          1   -1    0    0  501    0  0.00000000000E+00  0.00000000000E+00  0.13438151410E+04  0.13438151410E+04  0.00000000000E+00 0. -1.
         -2   -1    0    0    0  501 -0.00000000000E+00 -0.00000000000E+00 -0.91901339132E+03  0.91901339132E+03  0.00000000000E+00 0.  1.
        -24    2    1    2    0    0 -0.97664013896E+03  0.82660799386E+02 -0.12075641883E+03  0.99073780851E+03  0.79501721575E+02 0.  0.
    5000000    2    1    2    0    0  0.97664013896E+03 -0.82660799386E+02  0.54555816854E+03  0.12720907238E+04  0.59993526786E+03 0.  0.
        -24    2    4    4    0    0  0.44208242974E+03 -0.95543046421E+02 -0.56826308515E+02  0.46272402461E+03  0.79491793322E+02 0.  0.
         24    2    4    4    0    0  0.53455770923E+03  0.12882247036E+02  0.60238447705E+03  0.80936669923E+03  0.79306360686E+02 0.  0.
         11    1    5    5    0    0  0.27316312219E+03 -0.92046946464E+02 -0.56649537767E+02  0.29376844931E+03  0.00000000000E+00 0. -1.
        -12    1    5    5    0    0  0.16891930755E+03 -0.34960999578E+01 -0.17677074809E+00  0.16895557530E+03  0.00000000000E+00 0.  1.
         15    1    3    3    0    0 -0.36870175328E+03  0.36389971203E+02 -0.72681165998E+01  0.37056874682E+03  0.17770000000E+01 0. -1.
        -16    1    3    3    0    0 -0.60793838569E+03  0.46270828183E+02 -0.11348830223E+03  0.62016906169E+03  0.00000000000E+00 0.  1.
          2    1    6    6  502    0  0.14495551981E+03 -0.18137770315E+02  0.20755007701E+03  0.25380724163E+03  0.00000000000E+00 0. -1.
         -1    1    6    6    0  502  0.38960218942E+03  0.31020017351E+02  0.39483440004E+03  0.55555945760E+03  0.00000000000E+00 0.  1.
<mgrwt>
<rscale>  0 0.98716265E+03</rscale>
<asrwt>0</asrwt>
<pdfrwt beam="1">  1        1 0.20674079E+00 0.98716265E+03</pdfrwt>
<pdfrwt beam="2">  1       -2 0.14138667E+00 0.98716265E+03</pdfrwt>
<totfact> 0.25818184E+00</totfact>
</mgrwt>
</event>
<event>
12    3  0.1176505E-007  0.4739502E+03  0.7818608E-02  0.1020811E+00
          1   -1    0    0  501    0  0.00000000000E+00  0.00000000000E+00  0.48000148828E+03  0.48000148828E+03  0.00000000000E+00 0. -1.
         -2   -1    0    0    0  501 -0.00000000000E+00 -0.00000000000E+00 -0.74110145381E+03  0.74110145381E+03  0.00000000000E+00 0.  1.
        -24    2    1    2    0    0  0.31228311737E+03  0.25634973223E+03 -0.27905503625E+03  0.49755689530E+03  0.80344384965E+02 0.  0.
    5000000    2    1    2    0    0 -0.31228311737E+03 -0.25634973223E+03  0.17955070728E+02  0.72354604679E+03  0.59996713798E+03 0.  0.
        -24    2    4    4    0    0 -0.23299170219E+03 -0.33352300091E+03  0.22876519971E+03  0.47347143382E+03  0.79491865090E+02 0.  0.
         24    2    4    4    0    0 -0.79291415179E+02  0.77173268685E+02 -0.21081012899E+03  0.25007461297E+03  0.76508559330E+02 0.  0.
         11    1    5    5    0    0 -0.54529736684E+02 -0.14224906889E+03  0.96515762241E+02  0.18034295701E+03  0.00000000000E+00 0. -1.
        -12    1    5    5    0    0 -0.17846196550E+03 -0.19127393203E+03  0.13224943747E+03  0.29312847681E+03  0.00000000000E+00 0.  1.
         15    1    3    3    0    0  0.17570251292E+03  0.19407994327E+03 -0.18002381171E+03  0.31772649864E+03  0.17770000000E+01 0. -1.
        -16    1    3    3    0    0  0.13658060444E+03  0.62269788954E+02 -0.99031224539E+02  0.17983039665E+03  0.00000000000E+00 0.  1.
          4    1    6    6  502    0  0.49956119987E+01  0.18972182782E+02 -0.50952182964E+01  0.20269709131E+02  0.00000000000E+00 0. -1.
         -3    1    6    6    0  502 -0.84287027177E+02  0.58201085903E+02 -0.20571491069E+03  0.22980490384E+03  0.00000000000E+00 0.  1.
<mgrwt>
<rscale>  0 0.47395020E+03</rscale>
<asrwt>0</asrwt>
<pdfrwt beam="1">  1        1 0.73846383E-01 0.47395020E+03</pdfrwt>
<pdfrwt beam="2">  1       -2 0.11401561E+00 0.47395020E+03</pdfrwt>
<totfact> 0.25837346E+01</totfact>
</mgrwt>
</event>
<event>
12    3  0.1176505E-007  0.6483903E+03  0.7818608E-02  0.9809804E-01
         -2   -1    0    0    0  501 -0.00000000000E+00  0.00000000000E+00  0.48112760416E+03  0.48112760416E+03  0.00000000000E+00 0.  1.
          1   -1    0    0  501    0  0.00000000000E+00 -0.00000000000E+00 -0.19544300521E+04  0.19544300521E+04  0.00000000000E+00 0. -1.
        -24    2    1    2    0    0 -0.32876067158E+03 -0.42992252433E+03  0.19598084865E+03  0.58103465551E+03  0.79220084302E+02 0.  0.
    5000000    2    1    2    0    0  0.32876067158E+03  0.42992252433E+03 -0.16692832966E+04  0.18545230007E+04  0.59985988360E+03 0.  0.
        -24    2    4    4    0    0 -0.11682560141E+03 -0.11166379485E+02 -0.56288440841E+03  0.58047624797E+03  0.79629818867E+02 0.  0.
         24    2    4    4    0    0  0.44558627299E+03  0.44108890382E+03 -0.11063988882E+04  0.12740467528E+04  0.77266297730E+02 0.  0.
         13    1    5    5    0    0 -0.31994798665E+01 -0.75610519014E+01 -0.23642157378E+01  0.85437517126E+01  0.00000000000E+00 0. -1.
        -14    1    5    5    0    0 -0.11362612154E+03 -0.36053275833E+01 -0.56052019267E+03  0.57193249626E+03  0.00000000000E+00 0.  1.
         15    1    3    3    0    0 -0.21353994716E+03 -0.33652215234E+03  0.13778253032E+03  0.42170327416E+03  0.17770000000E+01 0. -1.
        -16    1    3    3    0    0 -0.11522072443E+03 -0.93400371988E+02  0.58198318332E+02  0.15933138135E+03  0.00000000000E+00 0.  1.
          4    1    6    6  502    0  0.10543278457E+03  0.83689121449E+02 -0.18405073978E+03  0.22802327935E+03  0.00000000000E+00 0. -1.
         -3    1    6    6    0  502  0.34015348842E+03  0.35739978237E+03 -0.92234814838E+03  0.10460234734E+04  0.00000000000E+00 0.  1.
<mgrwt>
<rscale>  0 0.64839034E+03</rscale>
<asrwt>0</asrwt>
<pdfrwt beam="1">  1        1 0.30068154E+00 0.64839034E+03</pdfrwt>
<pdfrwt beam="2">  1       -2 0.74019633E-01 0.64839034E+03</pdfrwt>
<totfact> 0.49000774E+00</totfact>
</mgrwt>
</event>
<event>
12    3  0.1176505E-007  0.9197815E+03  0.7818608E-02  0.9401186E-01
          1   -1    0    0  501    0  0.00000000000E+00  0.00000000000E+00  0.11559626063E+04  0.11559626063E+04  0.00000000000E+00 0. -1.
         -2   -1    0    0    0  501 -0.00000000000E+00 -0.00000000000E+00 -0.77224229917E+03  0.77224229917E+03  0.00000000000E+00 0.  1.
        -24    2    1    2    0    0 -0.22315443593E+03  0.80641094436E+03  0.31097025543E+03  0.89621010076E+03  0.79959561556E+02 0.  0.
    5000000    2    1    2    0    0  0.22315443593E+03 -0.80641094436E+03  0.72750051681E+02  0.10319948047E+04  0.59968674610E+03 0.  0.
        -24    2    4    4    0    0  0.35171724834E+03 -0.27589141095E+03  0.14336613760E+03  0.47578591149E+03  0.77442176818E+02 0.  0.
         24    2    4    4    0    0 -0.12856281240E+03 -0.53051953340E+03 -0.70616085924E+02  0.55620889320E+03  0.80014556365E+02 0.  0.
         11    1    5    5    0    0  0.21236196444E+03 -0.21291705812E+03  0.92427922398E+02  0.31460165038E+03  0.00000000000E+00 0. -1.
        -12    1    5    5    0    0  0.13935528390E+03 -0.62974352833E+02  0.50938215207E+02  0.16118426112E+03  0.00000000000E+00 0.  1.
         15    1    3    3    0    0 -0.58933394041E+02  0.12153883938E+03  0.67644376333E+02  0.15107532489E+03  0.17770000000E+01 0. -1.
        -16    1    3    3    0    0 -0.16422104189E+03  0.68487210498E+03  0.24332587910E+03  0.74513477587E+03  0.00000000000E+00 0.  1.
          2    1    6    6  502    0 -0.52963913969E+02 -0.27621397105E+03  0.16026654252E+01  0.28125060448E+03  0.00000000000E+00 0. -1.
         -1    1    6    6    0  502 -0.75598898434E+02 -0.25430556235E+03 -0.72218751349E+02  0.27495828872E+03  0.00000000000E+00 0.  1.
<mgrwt>
<rscale>  0 0.91978155E+03</rscale>
<asrwt>0</asrwt>
<pdfrwt beam="1">  1        1 0.17784040E+00 0.91978155E+03</pdfrwt>
<pdfrwt beam="2">  1       -2 0.11880651E+00 0.91978155E+03</pdfrwt>
<totfact> 0.55298900E+00</totfact>
</mgrwt>
</event>
<event>
12    3  0.1176505E-007  0.7356697E+03  0.7818608E-02  0.9658105E-01
          1   -1    0    0  501    0  0.00000000000E+00  0.00000000000E+00  0.14055897540E+04  0.14055897540E+04  0.00000000000E+00 0. -1.
         -2   -1    0    0    0  501 -0.00000000000E+00 -0.00000000000E+00 -0.39651647932E+03  0.39651647932E+03  0.00000000000E+00 0.  1.
        -24    2    1    2    0    0 -0.26450419519E+03  0.56051076243E+03  0.34811737668E+03  0.71569367893E+03  0.83047878018E+02 0.  0.
    5000000    2    1    2    0    0  0.26450419519E+03 -0.56051076243E+03  0.66095589802E+03  0.10864125544E+04  0.59941200785E+03 0.  0.
        -24    2    4    4    0    0 -0.10950091918E+03 -0.43899267726E+03  0.32583797728E+03  0.56369292039E+03  0.82911392875E+02 0.  0.
         24    2    4    4    0    0  0.37400511437E+03 -0.12151808517E+03  0.33511792074E+03  0.52271963401E+03  0.79280037704E+02 0.  0.
         13    1    5    5    0    0 -0.41582047642E+02 -0.11462811650E+03  0.13228732699E+03  0.17991278070E+03  0.00000000000E+00 0. -1.
        -14    1    5    5    0    0 -0.67918871541E+02 -0.32436456076E+03  0.19355065029E+03  0.38378013969E+03  0.00000000000E+00 0.  1.
         15    1    3    3    0    0 -0.21304820818E+03  0.36704410242E+03  0.22020937054E+03  0.47812784560E+03  0.17770000000E+01 0. -1.
        -16    1    3    3    0    0 -0.51455987008E+02  0.19346666001E+03  0.12790800613E+03  0.23756583333E+03  0.00000000000E+00 0.  1.
          4    1    6    6  502    0  0.21074259182E+03 -0.74331473834E+02  0.24015409033E+03  0.32804206302E+03  0.00000000000E+00 0. -1.
         -3    1    6    6    0  502  0.16326252255E+03 -0.47186611336E+02  0.94963830406E+02  0.19467757098E+03  0.00000000000E+00 0.  1.
<mgrwt>
<rscale>  0 0.73566965E+03</rscale>
<asrwt>0</asrwt>
<pdfrwt beam="1">  1        1 0.21624457E+00 0.73566965E+03</pdfrwt>
<pdfrwt beam="2">  1       -2 0.61002536E-01 0.73566965E+03</pdfrwt>
<totfact> 0.17227977E+01</totfact>
</mgrwt>
</event>
<event>
12    3  0.1176505E-007  0.8264761E+03  0.7818608E-02  0.9522465E-01
          1   -1    0    0  501    0  0.00000000000E+00  0.00000000000E+00  0.19307955042E+04  0.19307955042E+04  0.00000000000E+00 0. -1.
         -2   -1    0    0    0  501 -0.00000000000E+00 -0.00000000000E+00 -0.39030090046E+03  0.39030090046E+03  0.00000000000E+00 0.  1.
        -24    2    1    2    0    0 -0.49178150594E+03 -0.55606065189E+03  0.44907126681E+03  0.87122964034E+03  0.79520974432E+02 0.  0.
    5000000    2    1    2    0    0  0.49178150594E+03  0.55606065189E+03  0.10914233370E+04  0.14498667644E+04  0.59988018449E+03 0.  0.
        -24    2    4    4    0    0  0.38558532504E+03  0.48332799916E+02  0.29009332515E+03  0.49157340390E+03  0.80487090230E+02 0.  0.
         24    2    4    4    0    0  0.10619618090E+03  0.50772785198E+03  0.80133001183E+03  0.95829336046E+03  0.84446292639E+02 0.  0.
         13    1    5    5    0    0  0.20118572481E+03  0.40486760350E+02  0.10635201285E+03  0.23113983705E+03  0.00000000000E+00 0. -1.
        -14    1    5    5    0    0  0.18439960022E+03  0.78460395658E+01  0.18374131229E+03  0.26043356685E+03  0.00000000000E+00 0.  1.
         15    1    3    3    0    0 -0.40203604670E+03 -0.45903551079E+03  0.33203617208E+03  0.69469256531E+03  0.17770000000E+01 0. -1.
        -16    1    3    3    0    0 -0.89745459239E+02 -0.97025141107E+02  0.11703509473E+03  0.17653707503E+03  0.00000000000E+00 0.  1.
          2    1    6    6  502    0  0.10959885257E+02  0.15653332720E+03  0.30338097032E+03  0.34155938688E+03  0.00000000000E+00 0. -1.
         -1    1    6    6    0  502  0.95236295642E+02  0.35119452477E+03  0.49794904150E+03  0.61673397359E+03  0.00000000000E+00 0.  1.
<mgrwt>
<rscale>  0 0.82647613E+03</rscale>
<asrwt>0</asrwt>
<pdfrwt beam="1">  1        1 0.29704546E+00 0.82647613E+03</pdfrwt>
<pdfrwt beam="2">  1       -2 0.60046293E-01 0.82647613E+03</pdfrwt>
<totfact> 0.77608925E+00</totfact>
</mgrwt>
</event>
<event>
12    3  0.1176505E-007  0.5240802E+03  0.7818608E-02  0.1007678E+00
         -2   -1    0    0    0  501 -0.00000000000E+00  0.00000000000E+00  0.38704768537E+03  0.38704768537E+03  0.00000000000E+00 0.  1.
          1   -1    0    0  501    0  0.00000000000E+00 -0.00000000000E+00 -0.99510010042E+03  0.99510010042E+03  0.00000000000E+00 0. -1.
        -24    2    1    2    0    0 -0.39940349854E+03 -0.52219515123E+02 -0.50729499141E+03  0.65265562530E+03  0.79756658181E+02 0.  0.
    5000000    2    1    2    0    0  0.39940349854E+03  0.52219515123E+02 -0.10075742364E+03  0.72949216049E+03  0.59979723356E+03 0.  0.
        -24    2    4    4    0    0  0.26268682461E+03  0.26571967044E+03  0.10182629170E+03  0.39529299841E+03  0.79225310548E+02 0.  0.
         24    2    4    4    0    0  0.13671667394E+03 -0.21350015532E+03 -0.20258371534E+03  0.33419916207E+03  0.79844554952E+02 0.  0.
         13    1    5    5    0    0  0.14446178244E+03  0.90172146255E+02  0.43833690715E+02  0.17584542925E+03  0.00000000000E+00 0. -1.
        -14    1    5    5    0    0  0.11822504217E+03  0.17554752419E+03  0.57992600988E+02  0.21944756917E+03  0.00000000000E+00 0.  1.
         15    1    3    3    0    0 -0.60217211908E+02  0.10515503210E+02 -0.45348466272E+02  0.76133629494E+02  0.17770000000E+01 0. -1.
        -16    1    3    3    0    0 -0.33918628664E+03 -0.62735018333E+02 -0.46194652513E+03  0.57652199581E+03  0.00000000000E+00 0.  1.
          2    1    6    6  502    0  0.71443596949E+02 -0.59898250556E+02 -0.40826411523E+02  0.10177811082E+03  0.00000000000E+00 0. -1.
         -1    1    6    6    0  502  0.65273076988E+02 -0.15360190476E+03 -0.16175730382E+03  0.23242105125E+03  0.00000000000E+00 0.  1.
<mgrwt>
<rscale>  0 0.52408024E+03</rscale>
<asrwt>0</asrwt>
<pdfrwt beam="1">  1        1 0.15309232E+00 0.52408024E+03</pdfrwt>
<pdfrwt beam="2">  1       -2 0.59545798E-01 0.52408024E+03</pdfrwt>
<totfact> 0.36928380E+01</totfact>
</mgrwt>
</event>
<event>
12    3  0.1176505E-007  0.1410213E+04  0.7818608E-02  0.8946459E-01
          1   -1    0    0  501    0  0.00000000000E+00  0.00000000000E+00  0.17977360513E+04  0.17977360513E+04  0.00000000000E+00 0. -1.
         -2   -1    0    0    0  501 -0.00000000000E+00 -0.00000000000E+00 -0.23600999190E+04  0.23600999190E+04  0.00000000000E+00 0.  1.
        -24    2    1    2    0    0 -0.39853532765E+03  0.12926695100E+04 -0.17829733526E+04  0.22395654140E+04  0.82670418401E+02 0.  0.
    5000000    2    1    2    0    0  0.39853532765E+03 -0.12926695100E+04  0.12206094850E+04  0.19182705563E+04  0.60004128451E+03 0.  0.
        -24    2    4    4    0    0  0.54310581314E+03 -0.10033284866E+04  0.10024226120E+04  0.15207716480E+04  0.79141242117E+02 0.  0.
         24    2    4    4    0    0 -0.14457048549E+03 -0.28934102339E+03  0.21818687298E+03  0.39749890829E+03  0.76033002458E+02 0.  0.
         13    1    5    5    0    0  0.47945134713E+03 -0.92473245797E+03  0.92983845295E+03  0.13962819420E+04  0.00000000000E+00 0. -1.
        -14    1    5    5    0    0  0.63654466003E+02 -0.78596028597E+02  0.72584159050E+02  0.12448970599E+03  0.00000000000E+00 0.  1.
         15    1    3    3    0    0 -0.15874119109E+03  0.41919677356E+03 -0.54654037690E+03  0.70684810392E+03  0.17770000000E+01 0. -1.
        -16    1    3    3    0    0 -0.23979413656E+03  0.87347273640E+03 -0.12364329757E+04  0.15327173101E+04  0.00000000000E+00 0.  1.
          2    1    6    6  502    0 -0.10572855120E+03 -0.20108513790E+03  0.19233502714E+03  0.29766847648E+03  0.00000000000E+00 0. -1.
         -1    1    6    6    0  502 -0.38841934297E+02 -0.88255885491E+02  0.25851845837E+02  0.99830431818E+02  0.00000000000E+00 0.  1.
<mgrwt>
<rscale>  0 0.14102132E+04</rscale>
<asrwt>0</asrwt>
<pdfrwt beam="1">  1        1 0.27657478E+00 0.14102132E+04</pdfrwt>
<pdfrwt beam="2">  1       -2 0.36309230E+00 0.14102132E+04</pdfrwt>
<totfact> 0.43976607E-02</totfact>
</mgrwt>
</event>
<event>
12    3  0.1176505E-007  0.1735350E+04  0.7818608E-02  0.8741456E-01
         -2   -1    0    0    0  501 -0.00000000000E+00  0.00000000000E+00  0.22142669319E+04  0.22142669319E+04  0.00000000000E+00 0.  1.
          1   -1    0    0  501    0  0.00000000000E+00 -0.00000000000E+00 -0.13926021614E+04  0.13926021614E+04  0.00000000000E+00 0. -1.
        -24    2    1    2    0    0  0.16788934105E+04  0.17716293793E+03  0.16245369031E+03  0.16978912063E+04  0.79834556894E+02 0.  0.
    5000000    2    1    2    0    0 -0.16788934105E+04 -0.17716293793E+03  0.65921108019E+03  0.19089778869E+04  0.59963950355E+03 0.  0.
        -24    2    4    4    0    0 -0.86192865262E+03  0.18814746554E+03  0.42131844115E+03  0.98100663499E+03  0.80896959452E+02 0.  0.
         24    2    4    4    0    0 -0.81696475787E+03 -0.36531040347E+03  0.23789263904E+03  0.92797125195E+03  0.60453537922E+02 0.  0.
         11    1    5    5    0    0 -0.34745369465E+03  0.11596437515E+03  0.18208790401E+03  0.40905722218E+03  0.00000000000E+00 0. -1.
        -12    1    5    5    0    0 -0.51447495797E+03  0.72183090389E+02  0.23923053714E+03  0.57194941282E+03  0.00000000000E+00 0.  1.
         15    1    3    3    0    0  0.96821148410E+03  0.12526259590E+03  0.61715617979E+02  0.97823114401E+03  0.17770000000E+01 0. -1.
        -16    1    3    3    0    0  0.71068192639E+03  0.51900342027E+02  0.10073807233E+03  0.71966006226E+03  0.00000000000E+00 0.  1.
          4    1    6    6  502    0 -0.41580353267E+03 -0.21037214191E+03  0.10265145444E+03  0.47716489495E+03  0.00000000000E+00 0. -1.
         -3    1    6    6    0  502 -0.40116122520E+03 -0.15493826156E+03  0.13524118459E+03  0.45080635700E+03  0.00000000000E+00 0.  1.
<mgrwt>
<rscale>  0 0.17353502E+04</rscale>
<asrwt>0</asrwt>
<pdfrwt beam="1">  1        1 0.21424649E+00 0.17353502E+04</pdfrwt>
<pdfrwt beam="2">  1       -2 0.34065645E+00 0.17353502E+04</pdfrwt>
<totfact> 0.11181845E-01</totfact>
</mgrwt>
</event>
<event>
12    3  0.1176505E-007  0.7666271E+03  0.7818608E-02  0.9609620E-01
         -2   -1    0    0    0  501 -0.00000000000E+00  0.00000000000E+00  0.10498404651E+04  0.10498404651E+04  0.00000000000E+00 0.  1.
          1   -1    0    0  501    0  0.00000000000E+00 -0.00000000000E+00 -0.66990636397E+03  0.66990636397E+03  0.00000000000E+00 0. -1.
        -24    2    1    2    0    0  0.27867654912E+03  0.62618089664E+03 -0.87995252003E+02  0.69563648248E+03  0.80023852941E+02 0.  0.
    5000000    2    1    2    0    0 -0.27867654912E+03 -0.62618089664E+03  0.46792935310E+03  0.10241103465E+04  0.60006748626E+03 0.  0.
        -24    2    4    4    0    0 -0.35650840482E+03 -0.20335905306E+03  0.54252687544E+02  0.42188693625E+03  0.81191660304E+02 0.  0.
         24    2    4    4    0    0  0.77831855703E+02 -0.42282184358E+03  0.41367666555E+03  0.60222341030E+03  0.81905696484E+02 0.  0.
         11    1    5    5    0    0 -0.16481079062E+03 -0.10819041420E+03 -0.12919894762E+02  0.19757197704E+03  0.00000000000E+00 0. -1.
        -12    1    5    5    0    0 -0.19169761420E+03 -0.95168638858E+02  0.67172582306E+02  0.22431495921E+03  0.00000000000E+00 0.  1.
         15    1    3    3    0    0  0.17063824393E+03  0.35376305762E+03 -0.88314085849E+02  0.40257700719E+03  0.17770000000E+01 0. -1.
        -16    1    3    3    0    0  0.10803830518E+03  0.27241783902E+03  0.31883384600E+00  0.29305947530E+03  0.00000000000E+00 0.  1.
          2    1    6    6  502    0 -0.98733000121E+01 -0.13513033028E+03  0.10666353822E+03  0.17243781082E+03  0.00000000000E+00 0. -1.
         -1    1    6    6    0  502  0.87705155715E+02 -0.28769151330E+03  0.30701312733E+03  0.42978559948E+03  0.00000000000E+00 0.  1.
<mgrwt>
<rscale>  0 0.76662710E+03</rscale>
<asrwt>0</asrwt>
<pdfrwt beam="1">  1        1 0.10306252E+00 0.76662710E+03</pdfrwt>
<pdfrwt beam="2">  1       -2 0.16151392E+00 0.76662710E+03</pdfrwt>
<totfact> 0.63878619E+00</totfact>
</mgrwt>
</event>
<event>
12    3  0.1176505E-007  0.3759284E+03  0.7818608E-02  0.1052449E+00
          1   -1    0    0  501    0  0.00000000000E+00  0.00000000000E+00  0.69773090004E+03  0.69773090004E+03  0.00000000000E+00 0. -1.
         -2   -1    0    0    0  501 -0.00000000000E+00 -0.00000000000E+00 -0.41569472098E+03  0.41569472098E+03  0.00000000000E+00 0.  1.
        -24    2    1    2    0    0 -0.57343027841E+02 -0.35363464634E+03  0.17446383468E+03  0.40643758422E+03  0.80051198140E+02 0.  0.
    5000000    2    1    2    0    0  0.57343027841E+02  0.35363464634E+03  0.10757234438E+03  0.70698803680E+03  0.59992881992E+03 0.  0.
        -24    2    4    4    0    0  0.43485402979E+02  0.28871780394E+03 -0.21363855665E+03  0.36932735071E+03  0.74244922454E+02 0.  0.
         24    2    4    4    0    0  0.13857624863E+02  0.64916842396E+02  0.32121090103E+03  0.33766068608E+03  0.80200160788E+02 0.  0.
         13    1    5    5    0    0 -0.11988110474E+02  0.70060458741E+02 -0.25267648559E+02  0.75436309132E+02  0.00000000000E+00 0. -1.
        -14    1    5    5    0    0  0.55473513452E+02  0.21865734520E+03 -0.18837090810E+03  0.29389104158E+03  0.00000000000E+00 0.  1.
         15    1    3    3    0    0 -0.72507448122E+02 -0.25438079331E+03  0.14571024357E+03  0.30199594508E+03  0.17770000000E+01 0. -1.
        -16    1    3    3    0    0  0.15164420280E+02 -0.99253853031E+02  0.28753591106E+02  0.10444163914E+03  0.00000000000E+00 0.  1.
          2    1    6    6  502    0 -0.24356055398E+02  0.22214528233E+02  0.46273767748E+02  0.56815176501E+02  0.00000000000E+00 0. -1.
         -1    1    6    6    0  502  0.38213680261E+02  0.42702314163E+02  0.27493713329E+03  0.28084550958E+03  0.00000000000E+00 0.  1.
<mgrwt>
<rscale>  0 0.37592837E+03</rscale>
<asrwt>0</asrwt>
<pdfrwt beam="1">  1        1 0.10734322E+00 0.37592837E+03</pdfrwt>
<pdfrwt beam="2">  1       -2 0.63953034E-01 0.37592837E+03</pdfrwt>
<totfact> 0.57363606E+01</totfact>
</mgrwt>
</event>
<event>
12    3  0.1176505E-007  0.4574855E+03  0.7818608E-02  0.1025513E+00
          1   -1    0    0  501    0  0.00000000000E+00  0.00000000000E+00  0.46048220985E+03  0.46048220985E+03  0.00000000000E+00 0. -1.
         -2   -1    0    0    0  501 -0.00000000000E+00 -0.00000000000E+00 -0.49623704179E+03  0.49623704179E+03  0.00000000000E+00 0.  1.
        -24    2    1    2    0    0  0.25479033592E+03  0.78083337528E+02 -0.11215878834E+03  0.29622617123E+03  0.64461056790E+02 0.  0.
    5000000    2    1    2    0    0 -0.25479033592E+03 -0.78083337528E+02  0.76403956399E+02  0.66049308042E+03  0.59949847527E+03 0.  0.
        -24    2    4    4    0    0 -0.23201166866E+03 -0.31519668764E+03  0.87154189697E+02  0.40925687270E+03  0.81957115470E+02 0.  0.
         24    2    4    4    0    0 -0.22778667254E+02  0.23711335011E+03 -0.10750233298E+02  0.25123620772E+03  0.79135681379E+02 0.  0.
         11    1    5    5    0    0 -0.11223381465E+03 -0.10796243622E+03  0.65415328046E+02  0.16891264586E+03  0.00000000000E+00 0. -1.
        -12    1    5    5    0    0 -0.11977785401E+03 -0.20723425142E+03  0.21738861651E+02  0.24034422684E+03  0.00000000000E+00 0.  1.
         15    1    3    3    0    0  0.49870295052E+01  0.77912716792E+01  0.59145891576E+01  0.11122700732E+02  0.17770000000E+01 0. -1.
        -16    1    3    3    0    0  0.24980330641E+03  0.70292065849E+02 -0.11807337749E+03  0.28510347049E+03  0.00000000000E+00 0.  1.
          4    1    6    6  502    0 -0.52135280581E+02  0.16687209952E+03 -0.51772695821E+01  0.17490337103E+03  0.00000000000E+00 0. -1.
         -3    1    6    6    0  502  0.29356613327E+02  0.70241250595E+02 -0.55729637164E+01  0.76332836681E+02  0.00000000000E+00 0.  1.
<mgrwt>
<rscale>  0 0.45748546E+03</rscale>
<asrwt>0</asrwt>
<pdfrwt beam="1">  1        1 0.70843417E-01 0.45748546E+03</pdfrwt>
<pdfrwt beam="2">  1       -2 0.76344160E-01 0.45748546E+03</pdfrwt>
<totfact> 0.69223192E+01</totfact>
</mgrwt>
</event>
<event>
12    3  0.1176505E-007  0.4554056E+03  0.7818608E-02  0.1026122E+00
         -2   -1    0    0    0  501 -0.00000000000E+00  0.00000000000E+00  0.20161268463E+03  0.20161268463E+03  0.00000000000E+00 0.  1.
          1   -1    0    0  501    0  0.00000000000E+00 -0.00000000000E+00 -0.14221144971E+04  0.14221144971E+04  0.00000000000E+00 0. -1.
        -24    2    1    2    0    0 -0.19330236587E+03  0.25171840044E+03 -0.68486226872E+03  0.75903573228E+03  0.79818281080E+02 0.  0.
    5000000    2    1    2    0    0  0.19330236587E+03 -0.25171840044E+03 -0.53563954372E+03  0.86469144940E+03  0.60004468509E+03 0.  0.
        -24    2    4    4    0    0  0.18435852426E+03  0.11209026950E+03 -0.24901308544E+02  0.23164875510E+03  0.80552942770E+02 0.  0.
         24    2    4    4    0    0  0.89438416153E+01 -0.36380866995E+03 -0.51073823517E+03  0.63304269430E+03  0.86329411624E+02 0.  0.
         11    1    5    5    0    0  0.12177182021E+03  0.73255071955E+02 -0.54592121726E+02  0.15223331277E+03  0.00000000000E+00 0. -1.
        -12    1    5    5    0    0  0.62586704053E+02  0.38835197547E+02  0.29690813182E+02  0.79415442328E+02  0.00000000000E+00 0.  1.
         15    1    3    3    0    0 -0.15397033672E+03  0.13849396147E+03 -0.44923088247E+03  0.49467058276E+03  0.17770000000E+01 0. -1.
        -16    1    3    3    0    0 -0.39332029156E+02  0.11322443897E+03 -0.23563138624E+03  0.26436514952E+03  0.00000000000E+00 0.  1.
          2    1    6    6  502    0  0.32443234837E+02 -0.21165738693E+03 -0.35122645484E+03  0.41135317612E+03  0.00000000000E+00 0. -1.
         -1    1    6    6    0  502 -0.23499393222E+02 -0.15215128301E+03 -0.15951178034E+03  0.22168951818E+03  0.00000000000E+00 0.  1.
<mgrwt>
<rscale>  0 0.45540556E+03</rscale>
<asrwt>0</asrwt>
<pdfrwt beam="1">  1        1 0.21878686E+00 0.45540556E+03</pdfrwt>
<pdfrwt beam="2">  1       -2 0.31017334E-01 0.45540556E+03</pdfrwt>
<totfact> 0.66464779E+01</totfact>
</mgrwt>
</event>
<event>
12    3  0.2523484E-007  0.1458282E+04  0.7818608E-02  0.8912679E-01
          1   -1    0    0  501    0  0.00000000000E+00  0.00000000000E+00  0.14725045476E+04  0.14725045476E+04  0.00000000000E+00 0. -1.
         -2   -1    0    0    0  501 -0.00000000000E+00 -0.00000000000E+00 -0.16073747148E+04  0.16073747148E+04  0.00000000000E+00 0.  1.
        -24    2    1    2    0    0  0.11587106117E+04 -0.87693031861E+03 -0.33960475264E+03  0.14944930731E+04  0.81000569418E+02 0.  0.
    5000000    2    1    2    0    0 -0.11587106117E+04  0.87693031861E+03  0.20473458543E+03  0.15853861893E+04  0.59993004042E+03 0.  0.
        -24    2    4    4    0    0 -0.26715287914E+03  0.26679477344E+03 -0.19261670607E+03  0.43132696669E+03  0.79947762772E+02 0.  0.
         24    2    4    4    0    0 -0.89155773256E+03  0.61013554517E+03  0.39735129150E+03  0.11540592226E+04  0.82607907969E+02 0.  0.
         11    1    5    5    0    0 -0.84280384889E+02  0.70464542213E+02 -0.96818933694E+02  0.14643203511E+03  0.00000000000E+00 0. -1.
        -12    1    5    5    0    0 -0.18287249425E+03  0.19633023122E+03 -0.95797772377E+02  0.28489493157E+03  0.00000000000E+00 0.  1.
         15    1    3    3    0    0  0.66080894629E+03 -0.45268775193E+03 -0.17269849127E+03  0.81940380208E+03  0.17770000000E+01 0. -1.
        -16    1    3    3    0    0  0.49790166541E+03 -0.42424256667E+03 -0.16690626137E+03  0.67508927105E+03  0.00000000000E+00 0.  1.
          4    1    6    6  502    0 -0.31757965143E+03  0.17186495174E+03  0.14352281573E+03  0.38857842873E+03  0.00000000000E+00 0. -1.
         -1    1    6    6    0  502 -0.57397808113E+03  0.43827059343E+03  0.25382847577E+03  0.76548079388E+03  0.00000000000E+00 0.  1.
<mgrwt>
<rscale>  0 0.14582824E+04</rscale>
<asrwt>0</asrwt>
<pdfrwt beam="1">  1        1 0.22653916E+00 0.14582824E+04</pdfrwt>
<pdfrwt beam="2">  1       -2 0.24728842E+00 0.14582824E+04</pdfrwt>
<totfact> 0.37897342E-01</totfact>
</mgrwt>
</event>
<event>
12    3  0.1176505E-007  0.7157659E+03  0.7818608E-02  0.9690644E-01
          1   -1    0    0  501    0  0.00000000000E+00  0.00000000000E+00  0.19111314670E+04  0.19111314670E+04  0.00000000000E+00 0. -1.
         -2   -1    0    0    0  501 -0.00000000000E+00 -0.00000000000E+00 -0.27356471033E+03  0.27356471033E+03  0.00000000000E+00 0.  1.
        -24    2    1    2    0    0  0.79505392823E+02 -0.58814152563E+03  0.60745167013E+03  0.85294334490E+03  0.79266994477E+02 0.  0.
    5000000    2    1    2    0    0 -0.79505392823E+02  0.58814152563E+03  0.10301150865E+04  0.13317528324E+04  0.60016410548E+03 0.  0.
        -24    2    4    4    0    0 -0.17764485786E+03 -0.42789461976E+02  0.21043209441E+03  0.28981560907E+03  0.79515956407E+02 0.  0.
         24    2    4    4    0    0  0.98139465033E+02  0.63093098761E+03  0.81968299212E+03  0.10419372234E+04  0.77766986029E+02 0.  0.
         11    1    5    5    0    0 -0.73589341728E+02  0.20771898975E+02  0.68073337439E+02  0.10237598485E+03  0.00000000000E+00 0. -1.
        -12    1    5    5    0    0 -0.10405551613E+03 -0.63561360951E+02  0.14235875698E+03  0.18743962423E+03  0.00000000000E+00 0.  1.
         15    1    3    3    0    0  0.80880515143E+02 -0.50305758228E+03  0.55286318655E+03  0.75184403276E+03  0.17770000000E+01 0. -1.
        -16    1    3    3    0    0 -0.13751223206E+01 -0.85083943348E+02  0.54588483583E+02  0.10109931215E+03  0.00000000000E+00 0.  1.
          2    1    6    6  502    0  0.66964602140E+02  0.43059269516E+03  0.49851520534E+03  0.66212667747E+03  0.00000000000E+00 0. -1.
         -1    1    6    6    0  502  0.31174862893E+02  0.20033829245E+03  0.32116778678E+03  0.37981054588E+03  0.00000000000E+00 0.  1.
<mgrwt>
<rscale>  0 0.71576586E+03</rscale>
<asrwt>0</asrwt>
<pdfrwt beam="1">  1        1 0.29402022E+00 0.71576586E+03</pdfrwt>
<pdfrwt beam="2">  1       -2 0.42086880E-01 0.71576586E+03</pdfrwt>
<totfact> 0.16768174E+01</totfact>
</mgrwt>
</event>
<event>
12    3  0.1176505E-007  0.7031973E+03  0.7818608E-02  0.9711780E-01
         -2   -1    0    0    0  501 -0.00000000000E+00  0.00000000000E+00  0.21034503191E+04  0.21034503191E+04  0.00000000000E+00 0.  1.
          1   -1    0    0  501    0  0.00000000000E+00 -0.00000000000E+00 -0.25512433094E+03  0.25512433094E+03  0.00000000000E+00 0. -1.
        -24    2    1    2    0    0 -0.10087593296E+03 -0.57146856275E+03  0.10568189405E+04  0.12082994399E+04  0.79805962264E+02 0.  0.
    5000000    2    1    2    0    0  0.10087593296E+03  0.57146856275E+03  0.79150704767E+03  0.11502752100E+04  0.59991447746E+03 0.  0.
        -24    2    4    4    0    0 -0.23719046338E+03  0.18276076121E+03  0.30708349637E+03  0.43858442055E+03  0.91625370118E+02 0.  0.
         24    2    4    4    0    0  0.33806639634E+03  0.38870780154E+03  0.48442355130E+03  0.71169078950E+03  0.80342762470E+02 0.  0.
         11    1    5    5    0    0 -0.72216264358E+02  0.19091272069E+02  0.11478924431E+03  0.13695340856E+03  0.00000000000E+00 0. -1.
        -12    1    5    5    0    0 -0.16497419903E+03  0.16366948914E+03  0.19229425206E+03  0.30163101199E+03  0.00000000000E+00 0.  1.
         15    1    3    3    0    0 -0.31414561011E+02 -0.23662231609E+03  0.51425159903E+03  0.56695225544E+03  0.17770000000E+01 0. -1.
        -16    1    3    3    0    0 -0.69461371949E+02 -0.33484624666E+03  0.54256734142E+03  0.64134718451E+03  0.00000000000E+00 0.  1.
          4    1    6    6  502    0  0.30365041833E+03  0.31632136505E+03  0.43431663338E+03  0.61716587768E+03  0.00000000000E+00 0. -1.
         -3    1    6    6    0  502  0.34415978015E+02  0.72386436492E+02  0.50106917919E+02  0.94524911817E+02  0.00000000000E+00 0.  1.
<mgrwt>
<rscale>  0 0.70319729E+03</rscale>
<asrwt>0</asrwt>
<pdfrwt beam="1">  1        1 0.39249898E-01 0.70319729E+03</pdfrwt>
<pdfrwt beam="2">  1       -2 0.32360773E+00 0.70319729E+03</pdfrwt>
<totfact> 0.22732060E+00</totfact>
</mgrwt>
</event>
<event>
12    3  0.1176505E-007  0.7089568E+03  0.7818608E-02  0.9702036E-01
         -2   -1    0    0    0  501 -0.00000000000E+00  0.00000000000E+00  0.57525587371E+03  0.57525587371E+03  0.00000000000E+00 0.  1.
          1   -1    0    0  501    0  0.00000000000E+00 -0.00000000000E+00 -0.12247651111E+04  0.12247651111E+04  0.00000000000E+00 0. -1.
        -24    2    1    2    0    0  0.54292043483E+03  0.43977787729E+03 -0.58275819309E+02  0.70567883881E+03  0.80120986764E+02 0.  0.
    5000000    2    1    2    0    0 -0.54292043483E+03 -0.43977787729E+03 -0.59123341806E+03  0.10943421460E+04  0.59988382036E+03 0.  0.
        -24    2    4    4    0    0 -0.28250748182E+02 -0.70447904702E+02 -0.41864938486E+03  0.43299039998E+03  0.80326626867E+02 0.  0.
         24    2    4    4    0    0 -0.51466968665E+03 -0.36932997259E+03 -0.17258403321E+03  0.66135174600E+03  0.79444121336E+02 0.  0.
         11    1    5    5    0    0 -0.80917937137E+00 -0.36369305840E+02 -0.50436131232E+02  0.62186690796E+02  0.00000000000E+00 0. -1.
        -12    1    5    5    0    0 -0.27441568810E+02 -0.34078598862E+02 -0.36821325363E+03  0.37080370919E+03  0.00000000000E+00 0.  1.
         15    1    3    3    0    0  0.47013935255E+03  0.36706266299E+03 -0.75985045281E+02  0.60128437051E+03  0.17770000000E+01 0. -1.
        -16    1    3    3    0    0  0.72781082279E+02  0.72715214299E+02  0.17709225972E+02  0.10439446831E+03  0.00000000000E+00 0.  1.
          2    1    6    6  502    0 -0.34843487308E+03 -0.29413715922E+03 -0.12316246398E+03  0.47232671081E+03  0.00000000000E+00 0. -1.
         -1    1    6    6    0  502 -0.16623481357E+03 -0.75192813374E+02 -0.49421569227E+02  0.18902503519E+03  0.00000000000E+00 0.  1.
<mgrwt>
<rscale>  0 0.70895681E+03</rscale>
<asrwt>0</asrwt>
<pdfrwt beam="1">  1        1 0.18842540E+00 0.70895681E+03</pdfrwt>
<pdfrwt beam="2">  1       -2 0.88500904E-01 0.70895681E+03</pdfrwt>
<totfact> 0.10201671E+01</totfact>
</mgrwt>
</event>
<event>
12    3  0.1176505E-007  0.6511715E+03  0.7818608E-02  0.9804583E-01
          1   -1    0    0  501    0  0.00000000000E+00  0.00000000000E+00  0.19205048632E+04  0.19205048632E+04  0.00000000000E+00 0. -1.
         -2   -1    0    0    0  501 -0.00000000000E+00 -0.00000000000E+00 -0.29484529639E+03  0.29484529639E+03  0.00000000000E+00 0.  1.
        -24    2    1    2    0    0  0.19128622392E+03  0.48136034599E+03  0.12125838485E+04  0.13215452261E+04  0.88453337256E+02 0.  0.
    5000000    2    1    2    0    0 -0.19128622392E+03 -0.48136034599E+03  0.41307571830E+03  0.89380493347E+03  0.59996458886E+03 0.  0.
        -24    2    4    4    0    0  0.18128917874E+03 -0.27383512527E+02  0.11612645859E+03  0.23090233867E+03  0.78834716561E+02 0.  0.
         24    2    4    4    0    0 -0.37257540266E+03 -0.45397683346E+03  0.29694925971E+03  0.66290259479E+03  0.79709418232E+02 0.  0.
         13    1    5    5    0    0  0.98483596398E+02 -0.47959942678E+02  0.89695624721E+02  0.14157852929E+03  0.00000000000E+00 0. -1.
        -14    1    5    5    0    0  0.82805582340E+02  0.20576430151E+02  0.26430833868E+02  0.89323809387E+02  0.00000000000E+00 0.  1.
         15    1    3    3    0    0  0.66162127938E+02  0.12148718858E+03  0.41877902486E+03  0.44103921997E+03  0.17770000000E+01 0. -1.
        -16    1    3    3    0    0  0.12512409598E+03  0.35987315741E+03  0.79380482365E+03  0.88050600615E+03  0.00000000000E+00 0.  1.
          4    1    6    6  502    0 -0.18421566050E+03 -0.19978383261E+03  0.96525884387E+02  0.28838556778E+03  0.00000000000E+00 0. -1.
         -3    1    6    6    0  502 -0.18835974215E+03 -0.25419300086E+03  0.20042337533E+03  0.37451702702E+03  0.00000000000E+00 0.  1.
<mgrwt>
<rscale>  0 0.65117154E+03</rscale>
<asrwt>0</asrwt>
<pdfrwt beam="1">  1        1 0.29546228E+00 0.65117154E+03</pdfrwt>
<pdfrwt beam="2">  1       -2 0.45360816E-01 0.65117154E+03</pdfrwt>
<totfact> 0.14390255E+01</totfact>
</mgrwt>
</event>
<event>
12    3  0.1176505E-007  0.6512114E+03  0.7818608E-02  0.9804509E-01
         -2   -1    0    0    0  501 -0.00000000000E+00  0.00000000000E+00  0.21644590036E+03  0.21644590036E+03  0.00000000000E+00 0.  1.
          1   -1    0    0  501    0  0.00000000000E+00 -0.00000000000E+00 -0.28123832026E+04  0.28123832026E+04  0.00000000000E+00 0. -1.
        -24    2    1    2    0    0 -0.55011869656E+02  0.56412036473E+03 -0.17750261283E+04  0.18647109316E+04  0.71909739538E+02 0.  0.
    5000000    2    1    2    0    0  0.55011869656E+02 -0.56412036473E+03 -0.82091117395E+03  0.11641181713E+04  0.60001489118E+03 0.  0.
        -24    2    4    4    0    0  0.25536143392E+03 -0.22502213272E+03 -0.14709833639E+03  0.37935515846E+03  0.80174768687E+02 0.  0.
         24    2    4    4    0    0 -0.20034956426E+03 -0.33909823201E+03 -0.67381283756E+03  0.78476301289E+03  0.81863835029E+02 0.  0.
         11    1    5    5    0    0  0.94145655294E+02 -0.96733946225E+02 -0.17898931918E+02  0.13616619451E+03  0.00000000000E+00 0. -1.
        -12    1    5    5    0    0  0.16121577862E+03 -0.12828818650E+03 -0.12919940447E+03  0.24318896395E+03  0.00000000000E+00 0.  1.
         15    1    3    3    0    0 -0.34320476055E+02  0.23937764119E+03 -0.64824602477E+03  0.69188555162E+03  0.17770000000E+01 0. -1.
        -16    1    3    3    0    0 -0.20691393600E+02  0.32474272354E+03 -0.11267801035E+04  0.11728253800E+04  0.00000000000E+00 0.  1.
          2    1    6    6  502    0 -0.11720347800E+02 -0.28050277693E+02 -0.19472404704E+02  0.36102066093E+02  0.00000000000E+00 0. -1.
         -1    1    6    6    0  502 -0.18862921646E+03 -0.31104795432E+03 -0.65434043285E+03  0.74866094680E+03  0.00000000000E+00 0.  1.
<mgrwt>
<rscale>  0 0.65121138E+03</rscale>
<asrwt>0</asrwt>
<pdfrwt beam="1">  1        1 0.43267435E+00 0.65121138E+03</pdfrwt>
<pdfrwt beam="2">  1       -2 0.33299368E-01 0.65121138E+03</pdfrwt>
<totfact> 0.65176430E+00</totfact>
</mgrwt>
</event>
<event>
12    3  0.1176505E-007  0.6424091E+03  0.7818608E-02  0.9821128E-01
         -2   -1    0    0    0  501 -0.00000000000E+00  0.00000000000E+00  0.49579024399E+03  0.49579024399E+03  0.00000000000E+00 0.  1.
          1   -1    0    0  501    0  0.00000000000E+00 -0.00000000000E+00 -0.11518819569E+04  0.11518819569E+04  0.00000000000E+00 0. -1.
        -24    2    1    2    0    0 -0.57071371300E+03 -0.13829209028E+03 -0.53757627022E+03  0.80002429111E+03  0.78814818498E+02 0.  0.
    5000000    2    1    2    0    0  0.57071371300E+03  0.13829209028E+03 -0.11851544268E+03  0.84764790976E+03  0.59968510430E+03 0.  0.
        -24    2    4    4    0    0  0.49603547526E+03 -0.41835999869E+02 -0.28658146587E+03  0.57944587095E+03  0.76335687443E+02 0.  0.
         24    2    4    4    0    0  0.74678237744E+02  0.18012809015E+03  0.16806602319E+03  0.26820203881E+03  0.75254085734E+02 0.  0.
         13    1    5    5    0    0  0.18119914846E+03 -0.44101060607E+02 -0.80294290398E+02  0.20303991730E+03  0.00000000000E+00 0. -1.
        -14    1    5    5    0    0  0.31483632680E+03  0.22650607380E+01 -0.20628717547E+03  0.37640595364E+03  0.00000000000E+00 0.  1.
         15    1    3    3    0    0 -0.24590347468E+03 -0.59705287194E+02 -0.17963296597E+03  0.31032950290E+03  0.17770000000E+01 0. -1.
        -16    1    3    3    0    0 -0.32481023832E+03 -0.78586803084E+02 -0.35794330425E+03  0.48969478821E+03  0.00000000000E+00 0.  1.
          2    1    6    6  502    0  0.20809957349E+02  0.28151894184E+02  0.73158055689E+02  0.81102925861E+02  0.00000000000E+00 0. -1.
         -1    1    6    6    0  502  0.53868280395E+02  0.15197619596E+03  0.94907967502E+02  0.18709911295E+03  0.00000000000E+00 0.  1.
<mgrwt>
<rscale>  0 0.64240914E+03</rscale>
<asrwt>0</asrwt>
<pdfrwt beam="1">  1        1 0.17721261E+00 0.64240914E+03</pdfrwt>
<pdfrwt beam="2">  1       -2 0.76275423E-01 0.64240914E+03</pdfrwt>
<totfact> 0.16259818E+01</totfact>
</mgrwt>
</event>
<event>
12    3  0.1176505E-007  0.5954607E+03  0.7818608E-02  0.9914869E-01
          1   -1    0    0  501    0  0.00000000000E+00  0.00000000000E+00  0.10974549736E+04  0.10974549736E+04  0.00000000000E+00 0. -1.
         -2   -1    0    0    0  501 -0.00000000000E+00 -0.00000000000E+00 -0.37905332498E+03  0.37905332498E+03  0.00000000000E+00 0.  1.
        -24    2    1    2    0    0 -0.35758796773E+03 -0.28849688897E+03  0.52898821251E+02  0.46948377048E+03  0.80728655657E+02 0.  0.
    5000000    2    1    2    0    0  0.35758796773E+03  0.28849688897E+03  0.66550282739E+03  0.10070245281E+04  0.60008730812E+03 0.  0.
        -24    2    4    4    0    0  0.49704110878E+03  0.13850170018E+03  0.55249055434E+03  0.76052741839E+03  0.83207912586E+02 0.  0.
         24    2    4    4    0    0 -0.13945314105E+03  0.14999518880E+03  0.11301227305E+03  0.24649710974E+03  0.77738767921E+02 0.  0.
         11    1    5    5    0    0  0.15120331278E+03  0.81547676367E+02  0.16867947575E+03  0.24075969525E+03  0.00000000000E+00 0. -1.
        -12    1    5    5    0    0  0.34583779600E+03  0.56954023808E+02  0.38381107859E+03  0.51976772315E+03  0.00000000000E+00 0.  1.
         15    1    3    3    0    0 -0.42569565560E+02 -0.18119497779E+02 -0.15337950471E+02  0.48773912754E+02  0.17770000000E+01 0. -1.
        -16    1    3    3    0    0 -0.31501840217E+03 -0.27037739119E+03  0.68236771722E+02  0.42070985773E+03  0.00000000000E+00 0.  1.
          2    1    6    6  502    0 -0.72451078924E+02  0.10050416777E+03  0.10573606808E+03  0.16288143746E+03  0.00000000000E+00 0. -1.
         -1    1    6    6    0  502 -0.67002062125E+02  0.49491021025E+02  0.72762049696E+01  0.83615672274E+02  0.00000000000E+00 0.  1.
<mgrwt>
<rscale>  0 0.59546065E+03</rscale>
<asrwt>0</asrwt>
<pdfrwt beam="1">  1        1 0.16883923E+00 0.59546065E+03</pdfrwt>
<pdfrwt beam="2">  1       -2 0.58315897E-01 0.59546065E+03</pdfrwt>
<totfact> 0.31993671E+01</totfact>
</mgrwt>
</event>
<event>
12    3  0.1176505E-007  0.5205802E+03  0.7818608E-02  0.1008543E+00
          1   -1    0    0  501    0  0.00000000000E+00  0.00000000000E+00  0.20081201006E+03  0.20081201006E+03  0.00000000000E+00 0. -1.
         -2   -1    0    0    0  501 -0.00000000000E+00 -0.00000000000E+00 -0.16880309192E+04  0.16880309192E+04  0.00000000000E+00 0.  1.
        -24    2    1    2    0    0  0.33803221554E+03 -0.19423481083E+03 -0.28320137431E+03  0.48828801451E+03  0.78925447241E+02 0.  0.
    5000000    2    1    2    0    0 -0.33803221554E+03  0.19423481083E+03 -0.12040175348E+04  0.14005549148E+04  0.59991908168E+03 0.  0.
        -24    2    4    4    0    0  0.13988908062E+03  0.73236537767E+02 -0.14420180680E+03  0.22903772526E+03  0.82046164862E+02 0.  0.
         24    2    4    4    0    0 -0.47792129616E+03  0.12099827307E+03 -0.10598157280E+04  0.11715171895E+04  0.78700701869E+02 0.  0.
         13    1    5    5    0    0  0.52553003075E+02  0.33408424843E+02 -0.11135426064E+03  0.12758413829E+03  0.00000000000E+00 0. -1.
        -14    1    5    5    0    0  0.87336077543E+02  0.39828112924E+02 -0.32847546166E+02  0.10145358697E+03  0.00000000000E+00 0.  1.
         15    1    3    3    0    0  0.27612323458E+03 -0.15671095432E+03 -0.18904293680E+03  0.36951691918E+03  0.17770000000E+01 0. -1.
        -16    1    3    3    0    0  0.61908980957E+02 -0.37523856513E+02 -0.94158437512E+02  0.11877109533E+03  0.00000000000E+00 0.  1.
          2    1    6    6  502    0 -0.35303977426E+03  0.90488221882E+02 -0.85850881931E+03  0.93266424470E+03  0.00000000000E+00 0. -1.
         -1    1    6    6    0  502 -0.12488152189E+03  0.30510051185E+02 -0.20130690873E+03  0.23885294479E+03  0.00000000000E+00 0.  1.
<mgrwt>
<rscale>  0 0.52058019E+03</rscale>
<asrwt>0</asrwt>
<pdfrwt beam="1">  1        1 0.30894155E-01 0.52058019E+03</pdfrwt>
<pdfrwt beam="2">  1       -2 0.25969707E+00 0.52058019E+03</pdfrwt>
<totfact> 0.76929314E+00</totfact>
</mgrwt>
</event>
<event>
12    3  0.1176505E-007  0.5001305E+03  0.7818608E-02  0.1013745E+00
          1   -1    0    0  501    0  0.00000000000E+00  0.00000000000E+00  0.19062179408E+04  0.19062179408E+04  0.00000000000E+00 0. -1.
         -2   -1    0    0    0  501 -0.00000000000E+00 -0.00000000000E+00 -0.16221024555E+03  0.16221024555E+03  0.00000000000E+00 0.  1.
        -24    2    1    2    0    0 -0.36325812193E+03  0.88885924275E+02  0.42624675069E+03  0.57301294295E+03  0.82464353711E+02 0.  0.
    5000000    2    1    2    0    0  0.36325812193E+03 -0.88885924275E+02  0.13177609445E+04  0.14954152434E+04  0.59992972298E+03 0.  0.
        -24    2    4    4    0    0  0.74689909001E+02  0.19798025599E+03  0.19597436966E+03  0.29935379270E+03  0.80199597056E+02 0.  0.
         24    2    4    4    0    0  0.28856821293E+03 -0.28686618027E+03  0.11217865749E+04  0.11960614507E+04  0.81203789073E+02 0.  0.
         13    1    5    5    0    0  0.58865330262E+02  0.11308621854E+03  0.16295320737E+03  0.20689941451E+03  0.00000000000E+00 0. -1.
        -14    1    5    5    0    0  0.15824578738E+02  0.84894037455E+02  0.33021162291E+02  0.92454378191E+02  0.00000000000E+00 0.  1.
         15    1    3    3    0    0 -0.52990310673E+02  0.10376410707E+02  0.24372438707E+02  0.59269017386E+02  0.17770000000E+01 0. -1.
        -16    1    3    3    0    0 -0.31026781126E+03  0.78509513568E+02  0.40187431198E+03  0.51374392556E+03  0.00000000000E+00 0.  1.
          2    1    6    6  502    0  0.17445278453E+03 -0.12637555767E+03  0.65221365166E+03  0.68686767504E+03  0.00000000000E+00 0. -1.
         -1    1    6    6    0  502  0.11411542840E+03 -0.16049062260E+03  0.46957292321E+03  0.50919377564E+03  0.00000000000E+00 0.  1.
<mgrwt>
<rscale>  0 0.50013052E+03</rscale>
<asrwt>0</asrwt>
<pdfrwt beam="1">  1        1 0.29326428E+00 0.50013052E+03</pdfrwt>
<pdfrwt beam="2">  1       -2 0.24955424E-01 0.50013052E+03</pdfrwt>
<totfact> 0.46554005E+01</totfact>
</mgrwt>
</event>
<event>
12    3  0.1176505E-007  0.9473074E+03  0.7818608E-02  0.9368303E-01
         -2   -1    0    0    0  501 -0.00000000000E+00  0.00000000000E+00  0.78124188474E+03  0.78124188474E+03  0.00000000000E+00 0.  1.
          1   -1    0    0  501    0  0.00000000000E+00 -0.00000000000E+00 -0.14877292844E+04  0.14877292844E+04  0.00000000000E+00 0. -1.
        -24    2    1    2    0    0  0.88584062405E+03 -0.30750005375E+03  0.17034975619E+02  0.94132369229E+03  0.80809708547E+02 0.  0.
    5000000    2    1    2    0    0 -0.88584062405E+03  0.30750005375E+03 -0.72352237529E+03  0.13276474769E+04  0.59991107760E+03 0.  0.
        -24    2    4    4    0    0 -0.21839844711E+03  0.13382936215E+03 -0.55145030404E+03  0.61236224052E+03  0.72676653140E+02 0.  0.
         24    2    4    4    0    0 -0.66744217694E+03  0.17367069160E+03 -0.17207207125E+03  0.71528523635E+03  0.79897452837E+02 0.  0.
         11    1    5    5    0    0 -0.13416266293E+03  0.40260163538E+02 -0.27640641124E+03  0.30987256262E+03  0.00000000000E+00 0. -1.
        -12    1    5    5    0    0 -0.84235784184E+02  0.93569198615E+02 -0.27504389280E+03  0.30248967789E+03  0.00000000000E+00 0.  1.
         15    1    3    3    0    0  0.18636125529E+03 -0.73018479445E+02  0.35851486794E+02  0.20334872178E+03  0.17770000000E+01 0. -1.
        -16    1    3    3    0    0  0.69947936876E+03 -0.23448157430E+03 -0.18816511175E+02  0.73797497051E+03  0.00000000000E+00 0.  1.
          2    1    6    6  502    0 -0.21111477694E+03  0.36517185734E+02 -0.20322006258E+02  0.21521137943E+03  0.00000000000E+00 0. -1.
         -1    1    6    6    0  502 -0.45632739999E+03  0.13715350586E+03 -0.15175006499E+03  0.50007385693E+03  0.00000000000E+00 0.  1.
<mgrwt>
<rscale>  0 0.94730739E+03</rscale>
<asrwt>0</asrwt>
<pdfrwt beam="1">  1        1 0.22888143E+00 0.94730739E+03</pdfrwt>
<pdfrwt beam="2">  1       -2 0.12019106E+00 0.94730739E+03</pdfrwt>
<totfact> 0.31130373E+00</totfact>
</mgrwt>
</event>
<event>
12    3  0.1176505E-007  0.1670401E+04  0.7818608E-02  0.8778428E-01
         -2   -1    0    0    0  501 -0.00000000000E+00  0.00000000000E+00  0.30597098007E+04  0.30597098007E+04  0.00000000000E+00 0.  1.
          1   -1    0    0  501    0  0.00000000000E+00 -0.00000000000E+00 -0.19711901092E+04  0.19711901092E+04  0.00000000000E+00 0. -1.
        -24    2    1    2    0    0  0.16243672926E+04 -0.95866271107E+02 -0.12964562652E+04  0.20820396136E+04  0.79565455847E+02 0.  0.
    5000000    2    1    2    0    0 -0.16243672926E+04  0.95866271107E+02  0.23849759567E+04  0.29488602963E+04  0.59992273654E+03 0.  0.
        -24    2    4    4    0    0 -0.14953899309E+04  0.22622104698E+03  0.19427128065E+04  0.24633137786E+04  0.80091921421E+02 0.  0.
         24    2    4    4    0    0 -0.12897736174E+03 -0.13035477587E+03  0.44226315020E+03  0.48554651770E+03  0.80815836249E+02 0.  0.
         11    1    5    5    0    0 -0.11047851149E+04  0.14986448490E+03  0.13804579521E+04  0.17744502448E+04  0.00000000000E+00 0. -1.
        -12    1    5    5    0    0 -0.39060481593E+03  0.76356562076E+02  0.56225485446E+03  0.68886353378E+03  0.00000000000E+00 0.  1.
         15    1    3    3    0    0  0.69337229897E+03 -0.79361086925E+02 -0.54429803322E+03  0.88505753134E+03  0.17770000000E+01 0. -1.
        -16    1    3    3    0    0  0.93099499364E+03 -0.16505184183E+02 -0.75215823203E+03  0.11969820823E+04  0.00000000000E+00 0.  1.
          4    1    6    6  502    0  0.44083261620E+01 -0.34064606694E+02  0.10142852407E+03  0.10708676979E+03  0.00000000000E+00 0. -1.
         -3    1    6    6    0  502 -0.13338568790E+03 -0.96290169178E+02  0.34083462613E+03  0.37845974791E+03  0.00000000000E+00 0.  1.
<mgrwt>
<rscale>  0 0.16704014E+04</rscale>
<asrwt>0</asrwt>
<pdfrwt beam="1">  1        1 0.30326002E+00 0.16704014E+04</pdfrwt>
<pdfrwt beam="2">  1       -2 0.47072458E+00 0.16704014E+04</pdfrwt>
<totfact> 0.63512185E-03</totfact>
</mgrwt>
</event>
<event>
12    3  0.1176505E-007  0.5932799E+03  0.7818608E-02  0.9919447E-01
          1   -1    0    0  501    0  0.00000000000E+00  0.00000000000E+00  0.22256204594E+04  0.22256204594E+04  0.00000000000E+00 0. -1.
         -2   -1    0    0    0  501 -0.00000000000E+00 -0.00000000000E+00 -0.26465604620E+03  0.26465604620E+03  0.00000000000E+00 0.  1.
        -24    2    1    2    0    0  0.17886472919E+03  0.41594997019E+03  0.15838814179E+04  0.16492986229E+04  0.80614095024E+02 0.  0.
    5000000    2    1    2    0    0 -0.17886472919E+03 -0.41594997019E+03  0.37708299524E+03  0.84097788269E+03  0.60003770285E+03 0.  0.
        -24    2    4    4    0    0  0.20498180502E+03 -0.20662423780E+03  0.10019337029E+03  0.31760675962E+03  0.78257435889E+02 0.  0.
         24    2    4    4    0    0 -0.38384653421E+03 -0.20932573239E+03  0.27688962495E+03  0.52337112308E+03  0.78064358070E+02 0.  0.
         11    1    5    5    0    0  0.14542160408E+03 -0.14820651983E+03  0.10758539917E+03  0.23385301702E+03  0.00000000000E+00 0. -1.
        -12    1    5    5    0    0  0.59560200933E+02 -0.58417717970E+02 -0.73920288883E+01  0.83753742598E+02  0.00000000000E+00 0.  1.
         15    1    3    3    0    0  0.87802604717E+02  0.23852457781E+03  0.74997227168E+03  0.79187425620E+03  0.17770000000E+01 0. -1.
        -16    1    3    3    0    0  0.91062124475E+02  0.17742539238E+03  0.83390914624E+03  0.85742436667E+03  0.00000000000E+00 0.  1.
          4    1    6    6  502    0 -0.27301385806E+03 -0.18077478776E+03  0.18147951775E+03  0.37436734092E+03  0.00000000000E+00 0. -1.
         -1    1    6    6    0  502 -0.11083267615E+03 -0.28550944625E+02  0.95410107200E+02  0.14900378216E+03  0.00000000000E+00 0.  1.
<mgrwt>
<rscale>  0 0.59327986E+03</rscale>
<asrwt>0</asrwt>
<pdfrwt beam="1">  1        1 0.34240314E+00 0.59327986E+03</pdfrwt>
<pdfrwt beam="2">  1       -2 0.40716316E-01 0.59327986E+03</pdfrwt>
<totfact> 0.11262621E+01</totfact>
</mgrwt>
</event>
<event>
12    3  0.1176505E-007  0.5265590E+03  0.7818608E-02  0.1007070E+00
          1   -1    0    0  501    0  0.00000000000E+00  0.00000000000E+00  0.22184241902E+04  0.22184241902E+04  0.00000000000E+00 0. -1.
         -2   -1    0    0    0  501 -0.00000000000E+00 -0.00000000000E+00 -0.14954004995E+03  0.14954004995E+03  0.00000000000E+00 0.  1.
        -24    2    1    2    0    0  0.38917724699E+03  0.64223242804E+02  0.49494735756E+03  0.63795201920E+03  0.80164440667E+02 0.  0.
    5000000    2    1    2    0    0 -0.38917724699E+03 -0.64223242804E+02  0.15739367826E+04  0.17300122209E+04  0.60006810799E+03 0.  0.
        -24    2    4    4    0    0  0.77781653755E+02  0.11536340355E+03  0.71501716613E+03  0.73282953493E+03  0.80192760730E+02 0.  0.
         24    2    4    4    0    0 -0.46695890075E+03 -0.17958664635E+03  0.85891961652E+03  0.99718268598E+03  0.79551386073E+02 0.  0.
         13    1    5    5    0    0  0.21569144171E+02  0.88906281502E+02  0.31498371634E+03  0.32800045187E+03  0.00000000000E+00 0. -1.
        -14    1    5    5    0    0  0.56212509584E+02  0.26457122049E+02  0.40003344979E+03  0.40482908306E+03  0.00000000000E+00 0.  1.
         15    1    3    3    0    0  0.24940482370E+03  0.25470485827E+02  0.25521385218E+03  0.35775519535E+03  0.17770000000E+01 0. -1.
        -16    1    3    3    0    0  0.13977242330E+03  0.38752756977E+02  0.23973350539E+03  0.28019682385E+03  0.00000000000E+00 0.  1.
          2    1    6    6  502    0 -0.45755116438E+03 -0.16499681867E+03  0.84476068519E+03  0.97478081302E+03  0.00000000000E+00 0. -1.
         -1    1    6    6    0  502 -0.94077363710E+01 -0.14589827680E+02  0.14158931338E+02  0.22401872957E+02  0.00000000000E+00 0.  1.
<mgrwt>
<rscale>  0 0.52655905E+03</rscale>
<asrwt>0</asrwt>
<pdfrwt beam="1">  1        1 0.34129600E+00 0.52655905E+03</pdfrwt>
<pdfrwt beam="2">  1       -2 0.23006163E-01 0.52655905E+03</pdfrwt>
<totfact> 0.33262468E+01</totfact>
</mgrwt>
</event>
<event>
12    3  0.1176505E-007  0.1370259E+04  0.7818608E-02  0.8975632E-01
         -2   -1    0    0    0  501 -0.00000000000E+00  0.00000000000E+00  0.15327586407E+04  0.15327586407E+04  0.00000000000E+00 0.  1.
          1   -1    0    0  501    0  0.00000000000E+00 -0.00000000000E+00 -0.16599161768E+04  0.16599161768E+04  0.00000000000E+00 0. -1.
        -24    2    1    2    0    0 -0.12665277838E+04 -0.49727558220E+03  0.65572947820E+03  0.15123448462E+04  0.76355440703E+02 0.  0.
    5000000    2    1    2    0    0  0.12665277838E+04  0.49727558220E+03 -0.78288701431E+03  0.16803299713E+04  0.59935056802E+03 0.  0.
        -24    2    4    4    0    0  0.96144381474E+03  0.43928693284E+03 -0.30116452189E+03  0.11019877197E+04  0.79559077677E+02 0.  0.
         24    2    4    4    0    0  0.30508396909E+03  0.57988649358E+02 -0.48172249242E+03  0.57834225160E+03  0.77358184032E+02 0.  0.
         11    1    5    5    0    0  0.97944386285E+02  0.71719584864E+02 -0.28335310873E+02  0.12465829896E+03  0.00000000000E+00 0. -1.
        -12    1    5    5    0    0  0.86349942846E+03  0.36756734798E+03 -0.27282921102E+03  0.97732942073E+03  0.00000000000E+00 0.  1.
         15    1    3    3    0    0 -0.18681251516E+03 -0.77027717134E+02  0.12797290204E+03  0.23919115037E+03  0.17770000000E+01 0. -1.
        -16    1    3    3    0    0 -0.10797152687E+04 -0.42024786506E+03  0.52775657616E+03  0.12731536958E+04  0.00000000000E+00 0.  1.
          4    1    6    6  502    0  0.34446044463E+02  0.33762423104E+02 -0.77423432780E+02  0.91218524086E+02  0.00000000000E+00 0. -1.
         -3    1    6    6    0  502  0.27063792463E+03  0.24226226254E+02 -0.40429905964E+03  0.48712372751E+03  0.00000000000E+00 0.  1.
<mgrwt>
<rscale>  0 0.13702594E+04</rscale>
<asrwt>0</asrwt>
<pdfrwt beam="1">  1        1 0.25537172E+00 0.13702594E+04</pdfrwt>
<pdfrwt beam="2">  1       -2 0.23580902E+00 0.13702594E+04</pdfrwt>
<totfact> 0.33435518E-01</totfact>
</mgrwt>
</event>
<event>
12    3  0.1176505E-007  0.2227642E+04  0.7818608E-02  0.8507010E-01
          1   -1    0    0  501    0  0.00000000000E+00  0.00000000000E+00  0.30448435285E+04  0.30448435285E+04  0.00000000000E+00 0. -1.
         -2   -1    0    0    0  501 -0.00000000000E+00 -0.00000000000E+00 -0.16366975368E+04  0.16366975368E+04  0.00000000000E+00 0.  1.
        -24    2    1    2    0    0  0.87599924794E+03  0.20065455582E+04  0.59625663553E+03  0.22705848896E+04  0.80212255046E+02 0.  0.
    5000000    2    1    2    0    0 -0.87599924794E+03 -0.20065455582E+04  0.81188935624E+03  0.24109561757E+04  0.59995466084E+03 0.  0.
        -24    2    4    4    0    0 -0.87243516102E+03 -0.13612789355E+04  0.59235561178E+03  0.17235250809E+04  0.73689099315E+02 0.  0.
         24    2    4    4    0    0 -0.35640869191E+01 -0.64526662274E+03  0.21953374446E+03  0.68743109485E+03  0.89357305631E+02 0.  0.
         11    1    5    5    0    0 -0.68075600974E+03 -0.10051123615E+04  0.43548252932E+03  0.12896994368E+04  0.00000000000E+00 0. -1.
        -12    1    5    5    0    0 -0.19167915128E+03 -0.35616657395E+03  0.15687308246E+03  0.43382564405E+03  0.00000000000E+00 0.  1.
         15    1    3    3    0    0  0.50024781779E+03  0.11129152653E+04  0.37117828290E+03  0.12753841548E+04  0.17770000000E+01 0. -1.
        -16    1    3    3    0    0  0.37575143015E+03  0.89363029287E+03  0.22507835263E+03  0.99520073474E+03  0.00000000000E+00 0.  1.
          2    1    6    6  502    0 -0.26033180194E+02 -0.24599412354E+03  0.46515222061E+02  0.25170320056E+03  0.00000000000E+00 0. -1.
         -1    1    6    6    0  502  0.22469093275E+02 -0.39927249919E+03  0.17301852240E+03  0.43572789428E+03  0.00000000000E+00 0.  1.
<mgrwt>
<rscale>  0 0.22276424E+04</rscale>
<asrwt>0</asrwt>
<pdfrwt beam="1">  1        1 0.46843746E+00 0.22276424E+04</pdfrwt>
<pdfrwt beam="2">  1       -2 0.25179962E+00 0.22276424E+04</pdfrwt>
<totfact> 0.26433020E-02</totfact>
</mgrwt>
</event>
<event>
12    3  0.1176505E-007  0.5293175E+03  0.7818608E-02  0.1006398E+00
         -2   -1    0    0    0  501 -0.00000000000E+00  0.00000000000E+00  0.56573358032E+03  0.56573358032E+03  0.00000000000E+00 0.  1.
          1   -1    0    0  501    0  0.00000000000E+00 -0.00000000000E+00 -0.70798642938E+03  0.70798642938E+03  0.00000000000E+00 0. -1.
        -24    2    1    2    0    0  0.35955696145E+03  0.23702068673E+03  0.17275230296E+03  0.47075513964E+03  0.79416804581E+02 0.  0.
    5000000    2    1    2    0    0 -0.35955696145E+03 -0.23702068673E+03 -0.31500515202E+03  0.80296487006E+03  0.60005359951E+03 0.  0.
        -24    2    4    4    0    0  0.72250390295E+02  0.40083703229E+02  0.89159475253E+02  0.14524012552E+03  0.79488740527E+02 0.  0.
         24    2    4    4    0    0 -0.43180735174E+03 -0.27710438996E+03 -0.40416462728E+03  0.65772474455E+03  0.77513622612E+02 0.  0.
         13    1    5    5    0    0  0.37672134978E+01  0.32890488555E+02  0.63765309101E+02  0.71846995620E+02  0.00000000000E+00 0. -1.
        -14    1    5    5    0    0  0.68483176797E+02  0.71932146748E+01  0.25394166151E+02  0.73393129897E+02  0.00000000000E+00 0.  1.
         15    1    3    3    0    0  0.21647287874E+03  0.18755561604E+03  0.11758273818E+03  0.30962311668E+03  0.17770000000E+01 0. -1.
        -16    1    3    3    0    0  0.14308408270E+03  0.49465070699E+02  0.55169564778E+02  0.16113202295E+03  0.00000000000E+00 0.  1.
          4    1    6    6  502    0 -0.22460572476E+03 -0.18958425665E+03 -0.23332816883E+03  0.37527584033E+03  0.00000000000E+00 0. -1.
         -3    1    6    6    0  502 -0.20720162698E+03 -0.87520133313E+02 -0.17083645844E+03  0.28244890421E+03  0.00000000000E+00 0.  1.
<mgrwt>
<rscale>  0 0.52931750E+03</rscale>
<asrwt>0</asrwt>
<pdfrwt beam="1">  1        1 0.10892099E+00 0.52931750E+03</pdfrwt>
<pdfrwt beam="2">  1       -2 0.87035935E-01 0.52931750E+03</pdfrwt>
<totfact> 0.27934203E+01</totfact>
</mgrwt>
</event>
<event>
12    3  0.1176505E-007  0.6151583E+03  0.7818608E-02  0.9874447E-01
         -4   -1    0    0    0  501 -0.00000000000E+00  0.00000000000E+00  0.14773329812E+04  0.14773329812E+04  0.00000000000E+00 0.  1.
          3   -1    0    0  501    0  0.00000000000E+00 -0.00000000000E+00 -0.35602904776E+03  0.35602904776E+03  0.00000000000E+00 0. -1.
        -24    2    1    2    0    0 -0.37678056872E+03 -0.33371314922E+03  0.58135983799E+02  0.51277985397E+03  0.78964062053E+02 0.  0.
    5000000    2    1    2    0    0  0.37678056872E+03  0.33371314922E+03  0.10631679497E+04  0.13205821750E+04  0.60023589432E+03 0.  0.
        -24    2    4    4    0    0  0.48509741900E+03  0.17242935271E+03  0.94631002112E+03  0.10802795131E+04  0.80310539423E+02 0.  0.
         24    2    4    4    0    0 -0.10831685028E+03  0.16128379651E+03  0.11685792855E+03  0.24030266192E+03  0.79652939611E+02 0.  0.
         11    1    5    5    0    0  0.47621722525E+03  0.16693526696E+03  0.94263300320E+03  0.10692086830E+04  0.00000000000E+00 0. -1.
        -12    1    5    5    0    0  0.88801937459E+01  0.54940857489E+01  0.36770179191E+01  0.11070830139E+02  0.00000000000E+00 0.  1.
         15    1    3    3    0    0 -0.28235513307E+03 -0.28323331458E+03  0.66313048246E+02  0.40539623796E+03  0.17770000000E+01 0. -1.
        -16    1    3    3    0    0 -0.94425435651E+02 -0.50479834638E+02 -0.81770644468E+01  0.10738361600E+03  0.00000000000E+00 0.  1.
          4    1    6    6  502    0 -0.19892367534E+02  0.96736655040E+02  0.70876106118E+02  0.12156113332E+03  0.00000000000E+00 0. -1.
         -3    1    6    6    0  502 -0.88424482744E+02  0.64547141469E+02  0.45981822430E+02  0.11874152860E+03  0.00000000000E+00 0.  1.
<mgrwt>
<rscale>  0 0.61515832E+03</rscale>
<asrwt>0</asrwt>
<pdfrwt beam="1">  1        3 0.54773700E-01 0.61515832E+03</pdfrwt>
<pdfrwt beam="2">  1       -4 0.22728199E+00 0.61515832E+03</pdfrwt>
<totfact> 0.66317943E-01</totfact>
</mgrwt>
</event>
<event>
12    3  0.1176505E-007  0.6250025E+03  0.7818608E-02  0.9854850E-01
          1   -1    0    0  501    0  0.00000000000E+00  0.00000000000E+00  0.24661757261E+04  0.24661757261E+04  0.00000000000E+00 0. -1.
         -2   -1    0    0    0  501 -0.00000000000E+00 -0.00000000000E+00 -0.17768347313E+03  0.17768347313E+03  0.00000000000E+00 0.  1.
        -24    2    1    2    0    0 -0.21265276707E+03  0.44932213518E+03  0.59256161840E+03  0.77758780024E+03  0.80012092696E+02 0.  0.
    5000000    2    1    2    0    0  0.21265276707E+03 -0.44932213518E+03  0.16959306346E+04  0.18662713990E+04  0.59973047018E+03 0.  0.
        -24    2    4    4    0    0  0.16200355245E+03 -0.57754558835E+03  0.14723919783E+04  0.15919720066E+04  0.81441234139E+02 0.  0.
         24    2    4    4    0    0  0.50649214614E+02  0.12822345317E+03  0.22353865629E+03  0.27429939233E+03  0.79145618279E+02 0.  0.
         11    1    5    5    0    0  0.26851997990E+02 -0.23163547991E+03  0.52907241391E+03  0.57818132494E+03  0.00000000000E+00 0. -1.
        -12    1    5    5    0    0  0.13515155446E+03 -0.34591010844E+03  0.94331956437E+03  0.10137906817E+04  0.00000000000E+00 0.  1.
         15    1    3    3    0    0 -0.11880767940E+03  0.16958405659E+03  0.21638869728E+03  0.29950165771E+03  0.17770000000E+01 0. -1.
        -16    1    3    3    0    0 -0.93845087669E+02  0.27973807860E+03  0.37617292111E+03  0.47808614252E+03  0.00000000000E+00 0.  1.
          2    1    6    6  502    0  0.45133707136E+01  0.64424222815E+02  0.43690275503E+02  0.77972374428E+02  0.00000000000E+00 0. -1.
         -1    1    6    6    0  502  0.46135843901E+02  0.63799230353E+02  0.17984838079E+03  0.19632701790E+03  0.00000000000E+00 0.  1.
<mgrwt>
<rscale>  0 0.62500248E+03</rscale>
<asrwt>0</asrwt>
<pdfrwt beam="1">  1        1 0.37941163E+00 0.62500248E+03</pdfrwt>
<pdfrwt beam="2">  1       -2 0.27335921E-01 0.62500248E+03</pdfrwt>
<totfact> 0.16341149E+01</totfact>
</mgrwt>
</event>
<event>
12    3  0.1176505E-007  0.5122735E+03  0.7818608E-02  0.1010624E+00
          1   -1    0    0  501    0  0.00000000000E+00  0.00000000000E+00  0.55760098630E+03  0.55760098630E+03  0.00000000000E+00 0. -1.
         -2   -1    0    0    0  501 -0.00000000000E+00 -0.00000000000E+00 -0.12984938496E+04  0.12984938496E+04  0.00000000000E+00 0.  1.
        -24    2    1    2    0    0 -0.19387629375E+02 -0.38161849011E+03  0.36939919860E+03  0.53743819097E+03  0.79846659417E+02 0.  0.
    5000000    2    1    2    0    0  0.19387629375E+02  0.38161849011E+03 -0.11102920619E+04  0.13186566449E+04  0.60008193801E+03 0.  0.
        -24    2    4    4    0    0 -0.23968296282E+03  0.19784416672E+03 -0.28189472183E+03  0.42768325240E+03  0.82813605260E+02 0.  0.
         24    2    4    4    0    0  0.25907059219E+03  0.18377432339E+03 -0.82839734002E+03  0.89097339249E+03  0.81858777690E+02 0.  0.
         11    1    5    5    0    0 -0.15966434223E+03  0.79708012814E+02 -0.16836912683E+03  0.24534512906E+03  0.00000000000E+00 0. -1.
        -12    1    5    5    0    0 -0.80018620588E+02  0.11813615391E+03 -0.11352559500E+03  0.18233812333E+03  0.00000000000E+00 0.  1.
         15    1    3    3    0    0  0.13750592552E+02 -0.10061512188E+03  0.59132322544E+02  0.11752561782E+03  0.17770000000E+01 0. -1.
        -16    1    3    3    0    0 -0.33138221927E+02 -0.28100336824E+03  0.31026687606E+03  0.41991257315E+03  0.00000000000E+00 0.  1.
          2    1    6    6  502    0  0.10595740863E+03  0.58335211705E+02 -0.21828199817E+03  0.24955360164E+03  0.00000000000E+00 0. -1.
         -1    1    6    6    0  502  0.15311318357E+03  0.12543911168E+03 -0.61011534186E+03  0.64141979085E+03  0.00000000000E+00 0.  1.
<mgrwt>
<rscale>  0 0.51227346E+03</rscale>
<asrwt>0</asrwt>
<pdfrwt beam="1">  1        1 0.85784769E-01 0.51227346E+03</pdfrwt>
<pdfrwt beam="2">  1       -2 0.19976828E+00 0.51227346E+03</pdfrwt>
<totfact> 0.47270509E+00</totfact>
</mgrwt>
</event>
<event>
12    3  0.1220590E-007  0.1059627E+04  0.7818608E-02  0.9245461E-01
          1   -1    0    0  501    0  0.00000000000E+00  0.00000000000E+00  0.10300226254E+04  0.10300226254E+04  0.00000000000E+00 0. -1.
         -2   -1    0    0    0  501 -0.00000000000E+00 -0.00000000000E+00 -0.12735846894E+04  0.12735846894E+04  0.00000000000E+00 0.  1.
        -24    2    1    2    0    0  0.33408639068E+03 -0.99217172816E+03  0.83823059771E+02  0.10533114178E+04  0.80126044279E+02 0.  0.
    5000000    2    1    2    0    0 -0.33408639068E+03  0.99217172816E+03 -0.32738512373E+03  0.12502958969E+04  0.60003362911E+03 0.  0.
        -24    2    4    4    0    0 -0.28941935887E+03  0.92102998148E+03 -0.46136707283E+03  0.10729751233E+04  0.79726076189E+02 0.  0.
         24    2    4    4    0    0 -0.44667031808E+02  0.71141746679E+02  0.13398194910E+03  0.17732077365E+03  0.80219712252E+02 0.  0.
         13    1    5    5    0    0 -0.14015455502E+03  0.34668750848E+03 -0.15090254027E+03  0.40324571230E+03  0.00000000000E+00 0. -1.
        -14    1    5    5    0    0 -0.14926480385E+03  0.57434247301E+03 -0.31046453256E+03  0.66972941099E+03  0.00000000000E+00 0.  1.
         15    1    3    3    0    0  0.15187449707E+03 -0.45332490161E+03 -0.17114044414E+01  0.47809561378E+03  0.17770000000E+01 0. -1.
        -16    1    3    3    0    0  0.18221189361E+03 -0.53884682656E+03  0.85534464213E+02  0.57521580405E+03  0.00000000000E+00 0.  1.
          2    1    6    6  502    0 -0.44291788660E+02  0.82484162683E+02  0.83084970668E+02  0.12517392695E+03  0.00000000000E+00 0. -1.
         -1    1    6    6    0  502 -0.37524314836E+00 -0.11342416004E+02  0.50896978428E+02  0.52146846706E+02  0.00000000000E+00 0.  1.
<mgrwt>
<rscale>  0 0.10596266E+04</rscale>
<asrwt>0</asrwt>
<pdfrwt beam="1">  1        1 0.15846502E+00 0.10596266E+04</pdfrwt>
<pdfrwt beam="2">  1       -2 0.19593610E+00 0.10596266E+04</pdfrwt>
<totfact> 0.17603284E+00</totfact>
</mgrwt>
</event>
<event>
12    3  0.1176505E-007  0.7020610E+03  0.7818608E-02  0.9713714E-01
         -2   -1    0    0    0  501 -0.00000000000E+00  0.00000000000E+00  0.16153293439E+03  0.16153293439E+03  0.00000000000E+00 0.  1.
          1   -1    0    0  501    0  0.00000000000E+00 -0.00000000000E+00 -0.32748006981E+04  0.32748006981E+04  0.00000000000E+00 0. -1.
        -24    2    1    2    0    0 -0.34059943013E+03 -0.48321485939E+03 -0.10458510600E+04  0.12039449917E+04  0.78578186073E+02 0.  0.
    5000000    2    1    2    0    0  0.34059943013E+03  0.48321485939E+03 -0.20674167037E+04  0.22323886407E+04  0.59986885592E+03 0.  0.
        -24    2    4    4    0    0 -0.10682461458E+03  0.29267144103E+03 -0.11148583051E+04  0.11602341646E+04  0.78525190642E+02 0.  0.
         24    2    4    4    0    0  0.44742404471E+03  0.19054341836E+03 -0.95255839862E+03  0.10721544761E+04  0.75184093080E+02 0.  0.
         11    1    5    5    0    0 -0.84221117318E+02  0.27672986032E+03 -0.94968294676E+03  0.99275893930E+03  0.00000000000E+00 0. -1.
        -12    1    5    5    0    0 -0.22603497263E+02  0.15941580709E+02 -0.16517535835E+03  0.16747522530E+03  0.00000000000E+00 0.  1.
         15    1    3    3    0    0 -0.29356767680E+02 -0.88246272148E+02 -0.18188361460E+03  0.20428908768E+03  0.17770000000E+01 0. -1.
        -16    1    3    3    0    0 -0.31124266245E+03 -0.39496858724E+03 -0.86396744537E+03  0.99965590404E+03  0.00000000000E+00 0.  1.
          2    1    6    6  502    0  0.13105329076E+03  0.91395437228E+02 -0.28225171897E+03  0.32433643617E+03  0.00000000000E+00 0. -1.
         -1    1    6    6    0  502  0.31637075396E+03  0.99147981135E+02 -0.67030667964E+03  0.74781803997E+03  0.00000000000E+00 0.  1.
<mgrwt>
<rscale>  0 0.70206103E+03</rscale>
<asrwt>0</asrwt>
<pdfrwt beam="1">  1        1 0.50381547E+00 0.70206103E+03</pdfrwt>
<pdfrwt beam="2">  1       -2 0.24851222E-01 0.70206103E+03</pdfrwt>
<totfact> 0.51365556E+00</totfact>
</mgrwt>
</event>
<event>
12    3  0.1176505E-007  0.8297897E+03  0.7818608E-02  0.9517871E-01
         -2   -1    0    0    0  501 -0.00000000000E+00  0.00000000000E+00  0.82017690925E+03  0.82017690925E+03  0.00000000000E+00 0.  1.
          1   -1    0    0  501    0  0.00000000000E+00 -0.00000000000E+00 -0.11191260331E+04  0.11191260331E+04  0.00000000000E+00 0. -1.
        -24    2    1    2    0    0  0.71241201406E+03 -0.39340165070E+03  0.15255128840E+03  0.83190785123E+03  0.80641433483E+02 0.  0.
    5000000    2    1    2    0    0 -0.71241201406E+03  0.39340165070E+03 -0.45150041224E+03  0.11073950911E+04  0.60014625637E+03 0.  0.
        -24    2    4    4    0    0 -0.54754494697E+03  0.20721759842E+03 -0.63509936807E+01  0.59090331459E+03  0.79886106596E+02 0.  0.
         24    2    4    4    0    0 -0.16486706709E+03  0.18618405228E+03 -0.44514941856E+03  0.51649177653E+03  0.82219822672E+02 0.  0.
         11    1    5    5    0    0 -0.45003823965E+03  0.16938511403E+03 -0.35965410116E+02  0.48220249349E+03  0.00000000000E+00 0. -1.
        -12    1    5    5    0    0 -0.97506707317E+02  0.37832484396E+02  0.29614416435E+02  0.10870082110E+03  0.00000000000E+00 0.  1.
         15    1    3    3    0    0  0.40882498425E+03 -0.23265298111E+03  0.48018341653E+02  0.47283633133E+03  0.17770000000E+01 0. -1.
        -16    1    3    3    0    0  0.30358702981E+03 -0.16074866960E+03  0.10453294675E+03  0.35907151990E+03  0.00000000000E+00 0.  1.
          2    1    6    6  502    0 -0.16465854325E+03  0.14608573276E+03 -0.35317518667E+03  0.41615644854E+03  0.00000000000E+00 0. -1.
         -1    1    6    6    0  502 -0.20852384065E+00  0.40098319517E+02 -0.91974231895E+02  0.10033532799E+03  0.00000000000E+00 0.  1.
<mgrwt>
<rscale>  0 0.82978969E+03</rscale>
<asrwt>0</asrwt>
<pdfrwt beam="1">  1        1 0.17217323E+00 0.82978969E+03</pdfrwt>
<pdfrwt beam="2">  1       -2 0.12618106E+00 0.82978969E+03</pdfrwt>
<totfact> 0.51179626E+00</totfact>
</mgrwt>
</event>
<event>
12    3  0.1176505E-007  0.1311770E+04  0.7818608E-02  0.9020283E-01
         -4   -1    0    0    0  501 -0.00000000000E+00  0.00000000000E+00  0.19472902489E+04  0.19472902489E+04  0.00000000000E+00 0.  1.
          3   -1    0    0  501    0  0.00000000000E+00 -0.00000000000E+00 -0.22518872155E+04  0.22518872155E+04  0.00000000000E+00 0. -1.
        -24    2    1    2    0    0 -0.12220461706E+04 -0.44926295735E+03 -0.17372144209E+04  0.21724589212E+04  0.80185861383E+02 0.  0.
    5000000    2    1    2    0    0  0.12220461706E+04  0.44926295735E+03  0.14326174543E+04  0.20267185432E+04  0.59996769496E+03 0.  0.
        -24    2    4    4    0    0  0.43149153219E+03  0.27432530909E+03  0.21089482627E+03  0.55884044505E+03  0.79916817518E+02 0.  0.
         24    2    4    4    0    0  0.79055463840E+03  0.17493764826E+03  0.12217226280E+04  0.14678780981E+04  0.80499155564E+02 0.  0.
         11    1    5    5    0    0  0.42040676763E+02  0.30973126895E+02  0.49845451083E+02  0.72189487365E+02  0.00000000000E+00 0. -1.
        -12    1    5    5    0    0  0.38945085543E+03  0.24335218219E+03  0.16104937518E+03  0.48665095769E+03  0.00000000000E+00 0.  1.
         15    1    3    3    0    0 -0.17227827188E+03 -0.67066449899E+02 -0.20272074977E+03  0.27436576277E+03  0.17770000000E+01 0. -1.
        -16    1    3    3    0    0 -0.10497678987E+04 -0.38219650745E+03 -0.15344936711E+04  0.18980931585E+04  0.00000000000E+00 0.  1.
          2    1    6    6  502    0  0.48519992377E+03  0.95415805226E+02  0.67697834269E+03  0.83834528590E+03  0.00000000000E+00 0. -1.
         -1    1    6    6    0  502  0.30535471463E+03  0.79521843038E+02  0.54474428531E+03  0.62953281220E+03  0.00000000000E+00 0.  1.
<mgrwt>
<rscale>  0 0.13117698E+04</rscale>
<asrwt>0</asrwt>
<pdfrwt beam="1">  1        3 0.34644419E+00 0.13117698E+04</pdfrwt>
<pdfrwt beam="2">  1       -4 0.29958311E+00 0.13117698E+04</pdfrwt>
<totfact> 0.14250886E-03</totfact>
</mgrwt>
</event>
<event>
12    3  0.1176505E-007  0.1040177E+04  0.7818608E-02  0.9265544E-01
         -2   -1    0    0    0  501 -0.00000000000E+00  0.00000000000E+00  0.17880656211E+04  0.17880656211E+04  0.00000000000E+00 0.  1.
          1   -1    0    0  501    0  0.00000000000E+00 -0.00000000000E+00 -0.70228854335E+03  0.70228854335E+03  0.00000000000E+00 0. -1.
        -24    2    1    2    0    0  0.96746409170E+03  0.31199945624E+03  0.74201513361E+03  0.12610214981E+04  0.79109612201E+02 0.  0.
    5000000    2    1    2    0    0 -0.96746409170E+03 -0.31199945624E+03  0.34376194418E+03  0.12293326664E+04  0.59979671634E+03 0.  0.
        -24    2    4    4    0    0 -0.14393643823E+03  0.45604400809E+02 -0.13037190349E+03  0.21086795495E+03  0.68344726080E+02 0.  0.
         24    2    4    4    0    0 -0.82352765347E+03 -0.35760385705E+03  0.47413384766E+03  0.10184647114E+04  0.79932148141E+02 0.  0.
         11    1    5    5    0    0 -0.36953900134E+02  0.44574751383E+02 -0.56151504443E+02  0.80656621843E+02  0.00000000000E+00 0. -1.
        -12    1    5    5    0    0 -0.10698253810E+03  0.10296494270E+01 -0.74220399045E+02  0.13021133311E+03  0.00000000000E+00 0.  1.
         15    1    3    3    0    0  0.80028967775E+03  0.27552330345E+03  0.64654155103E+03  0.10650801820E+04  0.17770000000E+01 0. -1.
        -16    1    3    3    0    0  0.16717441395E+03  0.36476152790E+02  0.95473582579E+02  0.19594131615E+03  0.00000000000E+00 0.  1.
          2    1    6    6  502    0 -0.41344286694E+03 -0.18841849798E+03  0.28408602052E+03  0.53585576572E+03  0.00000000000E+00 0. -1.
         -3    1    6    6    0  502 -0.41008478653E+03 -0.16918535907E+03  0.19004782715E+03  0.48260894570E+03  0.00000000000E+00 0.  1.
<mgrwt>
<rscale>  0 0.10401774E+04</rscale>
<asrwt>0</asrwt>
<pdfrwt beam="1">  1        1 0.10804439E+00 0.10401774E+04</pdfrwt>
<pdfrwt beam="2">  1       -2 0.27508702E+00 0.10401774E+04</pdfrwt>
<totfact> 0.10719219E+00</totfact>
</mgrwt>
</event>
<event>
12    3  0.1176505E-007  0.6432582E+03  0.7818608E-02  0.9819513E-01
         -2   -1    0    0    0  501 -0.00000000000E+00  0.00000000000E+00  0.99573131088E+03  0.99573131088E+03  0.00000000000E+00 0.  1.
          1   -1    0    0  501    0  0.00000000000E+00 -0.00000000000E+00 -0.59918268040E+03  0.59918268040E+03  0.00000000000E+00 0. -1.
        -24    2    1    2    0    0 -0.61361161523E+02 -0.57942924541E+03  0.47305328142E+03  0.75500504658E+03  0.82156988306E+02 0.  0.
    5000000    2    1    2    0    0  0.61361161523E+02  0.57942924541E+03 -0.76504650946E+02  0.83990894469E+03  0.60007552123E+03 0.  0.
        -24    2    4    4    0    0  0.13542256768E+03  0.57496100168E+03  0.12662444576E+03  0.60943122528E+03  0.80332078242E+02 0.  0.
         24    2    4    4    0    0 -0.74061406156E+02  0.44682437263E+01 -0.20312909670E+03  0.23047771941E+03  0.79708795830E+02 0.  0.
         11    1    5    5    0    0  0.90697949011E+00  0.13214842967E+03  0.44257562888E+02  0.13936556945E+03  0.00000000000E+00 0. -1.
        -12    1    5    5    0    0  0.13451558819E+03  0.44281257201E+03  0.82366882867E+02  0.47006565583E+03  0.00000000000E+00 0.  1.
         15    1    3    3    0    0 -0.73492015562E+02 -0.33057880937E+03  0.25516727044E+03  0.42402466813E+03  0.17770000000E+01 0. -1.
        -16    1    3    3    0    0  0.12130854039E+02 -0.24885043604E+03  0.21788601099E+03  0.33098037845E+03  0.00000000000E+00 0.  1.
          4    1    6    6  502    0 -0.25840657169E+02 -0.33563046506E+02 -0.11902724656E+03  0.12633963383E+03  0.00000000000E+00 0. -1.
         -3    1    6    6    0  502 -0.48220748987E+02  0.38031290232E+02 -0.84101850140E+02  0.10413808557E+03  0.00000000000E+00 0.  1.
<mgrwt>
<rscale>  0 0.64325817E+03</rscale>
<asrwt>0</asrwt>
<pdfrwt beam="1">  1        1 0.92181951E-01 0.64325817E+03</pdfrwt>
<pdfrwt beam="2">  1       -2 0.15318943E+00 0.64325817E+03</pdfrwt>
<totfact> 0.87986253E+00</totfact>
</mgrwt>
</event>
<event>
12    3  0.1176505E-007  0.1294567E+04  0.7818608E-02  0.9033884E-01
         -2   -1    0    0    0  501 -0.00000000000E+00  0.00000000000E+00  0.81371036219E+03  0.81371036219E+03  0.00000000000E+00 0.  1.
          1   -1    0    0  501    0  0.00000000000E+00 -0.00000000000E+00 -0.25611655558E+04  0.25611655558E+04  0.00000000000E+00 0. -1.
        -24    2    1    2    0    0 -0.10228839887E+04 -0.77160158954E+03 -0.23779099603E+03  0.13058599258E+04  0.84053083565E+02 0.  0.
    5000000    2    1    2    0    0  0.10228839887E+04  0.77160158954E+03 -0.15096641976E+04  0.20690159922E+04  0.60006709556E+03 0.  0.
        -24    2    4    4    0    0  0.56857925966E+03  0.58341546746E+03 -0.54518411883E+03  0.98346551272E+03  0.79515464496E+02 0.  0.
         24    2    4    4    0    0  0.45430472899E+03  0.18818612207E+03 -0.96448007876E+03  0.10855504795E+04  0.79945092363E+02 0.  0.
         11    1    5    5    0    0  0.34079606473E+03  0.37255603810E+03 -0.37936884048E+03  0.63155417534E+03  0.00000000000E+00 0. -1.
        -12    1    5    5    0    0  0.22778319493E+03  0.21085942936E+03 -0.16581527836E+03  0.35191133739E+03  0.00000000000E+00 0.  1.
         15    1    3    3    0    0 -0.80572736968E+03 -0.58918537409E+03 -0.15282503080E+03  0.10097993103E+04  0.17770000000E+01 0. -1.
        -16    1    3    3    0    0 -0.21715661897E+03 -0.18241621545E+03 -0.84965965234E+02  0.29606061553E+03  0.00000000000E+00 0.  1.
          2    1    6    6  502    0  0.88451421402E+02  0.29260577146E+02 -0.12284559593E+03  0.15417806511E+03  0.00000000000E+00 0. -1.
         -1    1    6    6    0  502  0.36585330759E+03  0.15892554493E+03 -0.84163448283E+03  0.93137241434E+03  0.00000000000E+00 0.  1.
<mgrwt>
<rscale>  0 0.12945674E+04</rscale>
<asrwt>0</asrwt>
<pdfrwt beam="1">  1        1 0.39402547E+00 0.12945674E+04</pdfrwt>
<pdfrwt beam="2">  1       -2 0.12518621E+00 0.12945674E+04</pdfrwt>
<totfact> 0.50071274E-01</totfact>
</mgrwt>
</event>
<event>
12    3  0.1176505E-007  0.5250957E+03  0.7818608E-02  0.1007428E+00
         -2   -1    0    0    0  501 -0.00000000000E+00  0.00000000000E+00  0.20090614633E+03  0.20090614633E+03  0.00000000000E+00 0.  1.
          1   -1    0    0  501    0  0.00000000000E+00 -0.00000000000E+00 -0.14654352458E+04  0.14654352458E+04  0.00000000000E+00 0. -1.
        -24    2    1    2    0    0 -0.33102152962E+03 -0.16859001504E+03 -0.47432686661E+03  0.60693990062E+03  0.73431739274E+02 0.  0.
    5000000    2    1    2    0    0  0.33102152962E+03  0.16859001504E+03 -0.79020223290E+03  0.10594014916E+04  0.59992841673E+03 0.  0.
        -24    2    4    4    0    0 -0.60531457958E+02  0.25609232649E+03 -0.19636078339E+03  0.33826587812E+03  0.81356683540E+02 0.  0.
         24    2    4    4    0    0  0.39155298758E+03 -0.87502311453E+02 -0.59384144951E+03  0.72113561344E+03  0.80115599145E+02 0.  0.
         13    1    5    5    0    0 -0.19504621854E+02  0.20298701956E+03 -0.12000745952E+03  0.23661350495E+03  0.00000000000E+00 0. -1.
        -14    1    5    5    0    0 -0.41026836104E+02  0.53105306928E+02 -0.76353323874E+02  0.10165237317E+03  0.00000000000E+00 0.  1.
         15    1    3    3    0    0 -0.24122114092E+03 -0.11454323594E+03 -0.28514214780E+03  0.39066225042E+03  0.17770000000E+01 0. -1.
        -16    1    3    3    0    0 -0.89800388697E+02 -0.54046779097E+02 -0.18918471881E+03  0.21627765019E+03  0.00000000000E+00 0.  1.
          4    1    6    6  502    0  0.32461811794E+03 -0.44256501445E+02 -0.44902102829E+03  0.55583760602E+03  0.00000000000E+00 0. -1.
         -3    1    6    6    0  502  0.66934869641E+02 -0.43245810009E+02 -0.14482042122E+03  0.16529800742E+03  0.00000000000E+00 0.  1.
<mgrwt>
<rscale>  0 0.52509566E+03</rscale>
<asrwt>0</asrwt>
<pdfrwt beam="1">  1        1 0.22545158E+00 0.52509566E+03</pdfrwt>
<pdfrwt beam="2">  1       -2 0.30908638E-01 0.52509566E+03</pdfrwt>
<totfact> 0.61861794E+01</totfact>
</mgrwt>
</event>
<event>
12    3  0.1176505E-007  0.7377632E+03  0.7818608E-02  0.9654746E-01
         -2   -1    0    0    0  501 -0.00000000000E+00  0.00000000000E+00  0.14646876967E+04  0.14646876967E+04  0.00000000000E+00 0.  1.
          1   -1    0    0  501    0  0.00000000000E+00 -0.00000000000E+00 -0.10608529888E+04  0.10608529888E+04  0.00000000000E+00 0. -1.
        -24    2    1    2    0    0  0.44755970995E+03  0.43406663758E+03 -0.81507412966E+03  0.10307500128E+04  0.96830843775E+02 0.  0.
    5000000    2    1    2    0    0 -0.44755970995E+03 -0.43406663758E+03  0.12189088375E+04  0.14947906726E+04  0.59994738186E+03 0.  0.
        -24    2    4    4    0    0  0.67063050565E+02 -0.30943880434E+03  0.43839114194E+03  0.54646598665E+03  0.78666732823E+02 0.  0.
         24    2    4    4    0    0 -0.51462276052E+03 -0.12462783323E+03  0.78051769556E+03  0.94832468597E+03  0.98707418574E+02 0.  0.
         11    1    5    5    0    0  0.51526911309E+02 -0.16409760292E+03  0.17586667551E+03  0.24599214099E+03  0.00000000000E+00 0. -1.
        -12    1    5    5    0    0  0.15536139256E+02 -0.14534120143E+03  0.26252446643E+03  0.30047384567E+03  0.00000000000E+00 0.  1.
         15    1    3    3    0    0  0.38987487443E+03  0.40298990159E+03 -0.68605650655E+03  0.88604738384E+03  0.17770000000E+01 0. -1.
        -16    1    3    3    0    0  0.57684835524E+02  0.31076735987E+02 -0.12901762310E+03  0.14470262900E+03  0.00000000000E+00 0.  1.
          2    1    6    6  502    0 -0.48420239310E+03 -0.12707115720E+03  0.68761048912E+03  0.85053349212E+03  0.00000000000E+00 0. -1.
         -1    1    6    6    0  502 -0.30420367423E+02  0.24433239663E+01  0.92907206447E+02  0.97791193857E+02  0.00000000000E+00 0.  1.
<mgrwt>
<rscale>  0 0.73776316E+03</rscale>
<asrwt>0</asrwt>
<pdfrwt beam="1">  1        1 0.16320815E+00 0.73776316E+03</pdfrwt>
<pdfrwt beam="2">  1       -2 0.22533657E+00 0.73776316E+03</pdfrwt>
<totfact> 0.11318446E+00</totfact>
</mgrwt>
</event>
<event>
12    3  0.1176505E-007  0.4682326E+03  0.7818608E-02  0.1022420E+00
         -2   -1    0    0    0  501 -0.00000000000E+00  0.00000000000E+00  0.13310729691E+03  0.13310729691E+03  0.00000000000E+00 0.  1.
          1   -1    0    0  501    0  0.00000000000E+00 -0.00000000000E+00 -0.18518391864E+04  0.18518391864E+04  0.00000000000E+00 0. -1.
        -24    2    1    2    0    0  0.23590246489E+03 -0.19771364215E+03 -0.52378442765E+03  0.61283551616E+03  0.80477238890E+02 0.  0.
    5000000    2    1    2    0    0 -0.23590246489E+03  0.19771364215E+03 -0.11949474619E+04  0.13721109672E+04  0.60004034231E+03 0.  0.
        -24    2    4    4    0    0 -0.26780459666E+03  0.36537261112E+03 -0.65659526226E+03  0.80166836480E+03  0.79613954539E+02 0.  0.
         24    2    4    4    0    0  0.31902131765E+02 -0.16765896897E+03 -0.53835219959E+03  0.57044260236E+03  0.80339255018E+02 0.  0.
         13    1    5    5    0    0 -0.16005653299E+03  0.23490158564E+03 -0.47422414928E+03  0.55288822781E+03  0.00000000000E+00 0. -1.
        -14    1    5    5    0    0 -0.10774806366E+03  0.13047102548E+03 -0.18237111298E+03  0.24878013699E+03  0.00000000000E+00 0.  1.
         15    1    3    3    0    0  0.21370953217E+03 -0.17762070502E+03 -0.50788067043E+03  0.57893593093E+03  0.17770000000E+01 0. -1.
        -16    1    3    3    0    0  0.22192932717E+02 -0.20092937127E+02 -0.15903757225E+02  0.33899585231E+02  0.00000000000E+00 0.  1.
          4    1    6    6  502    0 -0.86863606244E+01 -0.49105918294E+02 -0.26615977336E+03  0.27079119082E+03  0.00000000000E+00 0. -1.
         -3    1    6    6    0  502  0.40588492390E+02 -0.11855305068E+03 -0.27219242623E+03  0.29965141154E+03  0.00000000000E+00 0.  1.
<mgrwt>
<rscale>  0 0.46823264E+03</rscale>
<asrwt>0</asrwt>
<pdfrwt beam="1">  1        1 0.28489830E+00 0.46823264E+03</pdfrwt>
<pdfrwt beam="2">  1       -2 0.20478048E-01 0.46823264E+03</pdfrwt>
<totfact> 0.72090931E+01</totfact>
</mgrwt>
</event>
<event>
12    3  0.1176505E-007  0.1268157E+04  0.7818608E-02  0.9055205E-01
          1   -1    0    0  501    0  0.00000000000E+00  0.00000000000E+00  0.25899941310E+04  0.25899941310E+04  0.00000000000E+00 0. -1.
         -2   -1    0    0    0  501 -0.00000000000E+00 -0.00000000000E+00 -0.86501242119E+03  0.86501242119E+03  0.00000000000E+00 0.  1.
        -24    2    1    2    0    0  0.14791295923E+03  0.12360929397E+04  0.52293588408E+01  0.12488197960E+04  0.98587714399E+02 0.  0.
    5000000    2    1    2    0    0 -0.14791295923E+03 -0.12360929397E+04  0.17197523510E+04  0.22061867562E+04  0.59992320796E+03 0.  0.
        -24    2    4    4    0    0 -0.74222940478E+02 -0.11552934299E+04  0.11987529509E+04  0.16683435585E+04  0.78419626077E+02 0.  0.
         24    2    4    4    0    0 -0.73690018751E+02 -0.80799509840E+02  0.52099940002E+03  0.53784319770E+03  0.76656055473E+02 0.  0.
         13    1    5    5    0    0  0.65437269324E+01 -0.47407883969E+03  0.47404674515E+03  0.67045796527E+03  0.00000000000E+00 0. -1.
        -14    1    5    5    0    0 -0.80766667411E+02 -0.68121459021E+03  0.72470620578E+03  0.99788559323E+03  0.00000000000E+00 0.  1.
         15    1    3    3    0    0  0.11171776279E+03  0.75650390062E+03 -0.39923652220E+02  0.76575196109E+03  0.17770000000E+01 0. -1.
        -16    1    3    3    0    0  0.36195196443E+02  0.47958903912E+03  0.45153011061E+02  0.48306783488E+03  0.00000000000E+00 0.  1.
          2    1    6    6  502    0  0.26735864339E+01 -0.46925541793E+02  0.24540738870E+03  0.24986784700E+03  0.00000000000E+00 0. -1.
         -1    1    6    6    0  502 -0.76363605185E+02 -0.33873968047E+02  0.27559201132E+03  0.28797535070E+03  0.00000000000E+00 0.  1.
<mgrwt>
<rscale>  0 0.12681572E+04</rscale>
<asrwt>0</asrwt>
<pdfrwt beam="1">  1        1 0.39846063E+00 0.12681572E+04</pdfrwt>
<pdfrwt beam="2">  1       -2 0.13307884E+00 0.12681572E+04</pdfrwt>
<totfact> 0.41049325E-01</totfact>
</mgrwt>
</event>
<event>
12    3  0.1176505E-007  0.4459097E+03  0.7818608E-02  0.1028949E+00
         -2   -1    0    0    0  501 -0.00000000000E+00  0.00000000000E+00  0.17408547141E+03  0.17408547141E+03  0.00000000000E+00 0.  1.
          1   -1    0    0  501    0  0.00000000000E+00 -0.00000000000E+00 -0.19192495323E+04  0.19192495323E+04  0.00000000000E+00 0. -1.
        -24    2    1    2    0    0 -0.76258738706E+02  0.40942839335E+03 -0.68116204155E+03  0.80246794040E+03  0.80784057892E+02 0.  0.
    5000000    2    1    2    0    0  0.76258738706E+02 -0.40942839335E+03 -0.10640020193E+04  0.12908670633E+04  0.60065836667E+03 0.  0.
        -24    2    4    4    0    0  0.14669213368E+03 -0.25600785232E+03 -0.11863240192E+03  0.32743556030E+03  0.77985875841E+02 0.  0.
         24    2    4    4    0    0 -0.70433394971E+02 -0.15342054103E+03 -0.94536961741E+03  0.96343150300E+03  0.77316375408E+02 0.  0.
         13    1    5    5    0    0  0.44846637803E+02 -0.13318430271E+03 -0.25930722533E+02  0.14290444984E+03  0.00000000000E+00 0. -1.
        -14    1    5    5    0    0  0.10184549587E+03 -0.12282354960E+03 -0.92701679386E+02  0.18453111046E+03  0.00000000000E+00 0.  1.
         15    1    3    3    0    0 -0.14888282077E+02  0.17304190330E+03 -0.35283315692E+03  0.39326779120E+03  0.17770000000E+01 0. -1.
        -16    1    3    3    0    0 -0.61370456629E+02  0.23638649005E+03 -0.32832888462E+03  0.40920014920E+03  0.00000000000E+00 0.  1.
          4    1    6    6  502    0 -0.11203546959E+02 -0.73462351837E+02 -0.58048376360E+03  0.58522101501E+03  0.00000000000E+00 0. -1.
         -3    1    6    6    0  502 -0.59229848012E+02 -0.79958189197E+02 -0.36488585381E+03  0.37821048799E+03  0.00000000000E+00 0.  1.
<mgrwt>
<rscale>  0 0.44590975E+03</rscale>
<asrwt>0</asrwt>
<pdfrwt beam="1">  1        1 0.29526917E+00 0.44590975E+03</pdfrwt>
<pdfrwt beam="2">  1       -2 0.26782380E-01 0.44590975E+03</pdfrwt>
<totfact> 0.40601403E+01</totfact>
</mgrwt>
</event>
<event>
12    3  0.1176505E-007  0.6563535E+03  0.7818608E-02  0.9794930E-01
          1   -1    0    0  501    0  0.00000000000E+00  0.00000000000E+00  0.44712730651E+03  0.44712730651E+03  0.00000000000E+00 0. -1.
         -2   -1    0    0    0  501 -0.00000000000E+00 -0.00000000000E+00 -0.13018718413E+04  0.13018718413E+04  0.00000000000E+00 0.  1.
        -24    2    1    2    0    0 -0.45913288144E+03  0.26312346645E+03  0.54684349177E+02  0.53787379303E+03  0.79251989055E+02 0.  0.
    5000000    2    1    2    0    0  0.45913288144E+03 -0.26312346645E+03 -0.90942888399E+03  0.12111253548E+04  0.59977226396E+03 0.  0.
        -24    2    4    4    0    0  0.22632903742E+03  0.16581173497E+03 -0.23681786606E+03  0.37590735582E+03  0.80655277806E+02 0.  0.
         24    2    4    4    0    0  0.23280384401E+03 -0.42893520142E+03 -0.67261101793E+03  0.83521799899E+03  0.83668916527E+02 0.  0.
         11    1    5    5    0    0  0.55577362735E+02  0.87896148666E+02 -0.91929400438E+02  0.13880054346E+03  0.00000000000E+00 0. -1.
        -12    1    5    5    0    0  0.17075167469E+03  0.77915586307E+02 -0.14488846562E+03  0.23710681236E+03  0.00000000000E+00 0.  1.
         15    1    3    3    0    0 -0.15166894424E+03  0.10883099876E+03  0.52254366250E+02  0.19385905049E+03  0.17770000000E+01 0. -1.
        -16    1    3    3    0    0 -0.30746393720E+03  0.15429246768E+03  0.24299829270E+01  0.34401474253E+03  0.00000000000E+00 0.  1.
          4    1    6    6  502    0  0.11496003675E+02 -0.51813956275E+02 -0.11460177223E+03  0.12629493404E+03  0.00000000000E+00 0. -1.
         -3    1    6    6    0  502  0.22130784034E+03 -0.37712124514E+03 -0.55800924569E+03  0.70892306495E+03  0.00000000000E+00 0.  1.
<mgrwt>
<rscale>  0 0.65635348E+03</rscale>
<asrwt>0</asrwt>
<pdfrwt beam="1">  1        1 0.68788817E-01 0.65635348E+03</pdfrwt>
<pdfrwt beam="2">  1       -2 0.20028797E+00 0.65635348E+03</pdfrwt>
<totfact> 0.62009728E+00</totfact>
</mgrwt>
</event>
<event>
12    3  0.1204113E-007  0.1895329E+04  0.7818608E-02  0.8657185E-01
          1   -1    0    0  501    0  0.00000000000E+00  0.00000000000E+00  0.23107737651E+04  0.23107737651E+04  0.00000000000E+00 0. -1.
         -2   -1    0    0    0  501 -0.00000000000E+00 -0.00000000000E+00 -0.16389470017E+04  0.16389470017E+04  0.00000000000E+00 0.  1.
        -24    2    1    2    0    0 -0.12587851923E+04  0.14102320640E+04  0.51114630750E+03  0.19599532891E+04  0.82775076052E+02 0.  0.
    5000000    2    1    2    0    0  0.12587851923E+04 -0.14102320640E+04  0.16068045585E+03  0.19897674777E+04  0.60005147430E+03 0.  0.
        -24    2    4    4    0    0  0.17007683865E+03 -0.12489616921E+03 -0.15525564387E+03  0.27382729471E+03  0.79698734289E+02 0.  0.
         24    2    4    4    0    0  0.10887083536E+04 -0.12853358947E+04  0.31593609972E+03  0.17159401830E+04  0.85210626262E+02 0.  0.
         11    1    5    5    0    0  0.15632682292E+03 -0.12508085469E+03 -0.16288761681E+03  0.25810011911E+03  0.00000000000E+00 0. -1.
        -12    1    5    5    0    0  0.13750015729E+02  0.18468548497E+00  0.76319729433E+01  0.15727175598E+02  0.00000000000E+00 0.  1.
         15    1    3    3    0    0 -0.83906258161E+03  0.91234362379E+03  0.29899604641E+03  0.12750681147E+04  0.17770000000E+01 0. -1.
        -16    1    3    3    0    0 -0.41972261067E+03  0.49788844017E+03  0.21215026109E+03  0.68488517435E+03  0.00000000000E+00 0.  1.
          4    1    6    6  502    0  0.58592842435E+03 -0.74692437427E+03  0.15479766817E+03  0.96185781559E+03  0.00000000000E+00 0. -1.
         -3    1    6    6    0  502  0.50277992928E+03 -0.53841152048E+03  0.16113843154E+03  0.75408236738E+03  0.00000000000E+00 0.  1.
<mgrwt>
<rscale>  0 0.18953293E+04</rscale>
<asrwt>0</asrwt>
<pdfrwt beam="1">  1        1 0.35550366E+00 0.18953293E+04</pdfrwt>
<pdfrwt beam="2">  1       -2 0.25214569E+00 0.18953293E+04</pdfrwt>
<totfact> 0.90040667E-02</totfact>
</mgrwt>
</event>
<event>
12    3  0.1176505E-007  0.2120033E+04  0.7818608E-02  0.8552470E-01
          1   -1    0    0  501    0  0.00000000000E+00  0.00000000000E+00  0.25329746876E+04  0.25329746876E+04  0.00000000000E+00 0. -1.
         -2   -1    0    0    0  501 -0.00000000000E+00 -0.00000000000E+00 -0.18433912141E+04  0.18433912141E+04  0.00000000000E+00 0.  1.
        -24    2    1    2    0    0  0.64769086449E+03 -0.19869261461E+04 -0.13126261464E+02  0.20913713473E+04  0.79264415778E+02 0.  0.
    5000000    2    1    2    0    0 -0.64769086449E+03  0.19869261461E+04  0.70270973497E+03  0.22849945545E+04  0.60001681340E+03 0.  0.
        -24    2    4    4    0    0 -0.32983401281E+03  0.37476828636E+03  0.31259919320E+03  0.59421808554E+03  0.78327090664E+02 0.  0.
         24    2    4    4    0    0 -0.31785685168E+03  0.16121578597E+04  0.39011054178E+03  0.16907764689E+04  0.80329883679E+02 0.  0.
         13    1    5    5    0    0 -0.50700483824E+02  0.23559465056E+02  0.45665236476E+02  0.72186572686E+02  0.00000000000E+00 0. -1.
        -14    1    5    5    0    0 -0.27913352898E+03  0.35120882130E+03  0.26693395672E+03  0.52203151285E+03  0.00000000000E+00 0.  1.
         15    1    3    3    0    0  0.14315427238E+03 -0.37460277051E+03 -0.26426055156E+02  0.40189784211E+03  0.17770000000E+01 0. -1.
        -16    1    3    3    0    0  0.50453659211E+03 -0.16123233756E+04  0.13299793692E+02  0.16894735052E+04  0.00000000000E+00 0.  1.
          2    1    6    6  502    0 -0.90983212135E+02  0.30122661035E+03  0.68455850662E+02  0.32202735778E+03  0.00000000000E+00 0. -1.
         -1    1    6    6    0  502 -0.22687363955E+03  0.13109312494E+04  0.32165469111E+03  0.13687491112E+04  0.00000000000E+00 0.  1.
<mgrwt>
<rscale>  0 0.21200326E+04</rscale>
<asrwt>0</asrwt>
<pdfrwt beam="1">  1        1 0.38968841E+00 0.21200326E+04</pdfrwt>
<pdfrwt beam="2">  1       -2 0.28359865E+00 0.21200326E+04</pdfrwt>
<totfact> 0.39581860E-02</totfact>
</mgrwt>
</event>
<event>
12    3  0.1176505E-007  0.4257356E+03  0.7818608E-02  0.1035216E+00
          1   -1    0    0  501    0  0.00000000000E+00  0.00000000000E+00  0.89718032803E+03  0.89718032803E+03  0.00000000000E+00 0. -1.
         -2   -1    0    0    0  501 -0.00000000000E+00 -0.00000000000E+00 -0.35715471884E+03  0.35715471884E+03  0.00000000000E+00 0.  1.
        -24    2    1    2    0    0  0.34289528570E+03  0.12395416563E+03  0.38578745436E+03  0.53550356164E+03  0.70642002022E+02 0.  0.
    5000000    2    1    2    0    0 -0.34289528570E+03 -0.12395416563E+03  0.15423815483E+03  0.71883148523E+03  0.59998956959E+03 0.  0.
        -24    2    4    4    0    0 -0.22718591032E+03 -0.21365175415E+03 -0.16235004086E+03  0.35996866762E+03  0.77197124296E+02 0.  0.
         24    2    4    4    0    0 -0.11570937538E+03  0.89697588518E+02  0.31658819569E+03  0.35886281761E+03  0.84380799200E+02 0.  0.
         11    1    5    5    0    0 -0.50113355427E+02 -0.89612540017E+02 -0.32122055779E+02  0.10758058462E+03  0.00000000000E+00 0. -1.
        -12    1    5    5    0    0 -0.17707255490E+03 -0.12403921414E+03 -0.13022798508E+03  0.25238808300E+03  0.00000000000E+00 0.  1.
         15    1    3    3    0    0  0.92253817898E+02  0.19739975706E+02  0.61624838258E+02  0.11269965385E+03  0.17770000000E+01 0. -1.
        -16    1    3    3    0    0  0.25064146780E+03  0.10421418993E+03  0.32416261611E+03  0.42280390779E+03  0.00000000000E+00 0.  1.
          2    1    6    6  502    0 -0.55797101473E+02  0.91147983547E+02  0.22929936646E+03  0.25298116707E+03  0.00000000000E+00 0. -1.
         -1    1    6    6    0  502 -0.59912273906E+02 -0.14503950281E+01  0.87288829237E+02  0.10588165053E+03  0.00000000000E+00 0.  1.
<mgrwt>
<rscale>  0 0.42573560E+03</rscale>
<asrwt>0</asrwt>
<pdfrwt beam="1">  1        1 0.13802774E+00 0.42573560E+03</pdfrwt>
<pdfrwt beam="2">  1       -2 0.54946880E-01 0.42573560E+03</pdfrwt>
<totfact> 0.52801331E+01</totfact>
</mgrwt>
</event>
<event>
12    3  0.1176505E-007  0.5596762E+03  0.7818608E-02  0.9992787E-01
          1   -1    0    0  501    0  0.00000000000E+00  0.00000000000E+00  0.59695301983E+03  0.59695301983E+03  0.00000000000E+00 0. -1.
         -2   -1    0    0    0  501 -0.00000000000E+00 -0.00000000000E+00 -0.53924205700E+03  0.53924205700E+03  0.00000000000E+00 0.  1.
        -24    2    1    2    0    0  0.33557352617E+03  0.22158707538E+03 -0.92578043197E+01  0.41047435766E+03  0.81811172313E+02 0.  0.
    5000000    2    1    2    0    0 -0.33557352617E+03 -0.22158707538E+03  0.66968767156E+02  0.72572071916E+03  0.60039597185E+03 0.  0.
        -24    2    4    4    0    0  0.13419058938E+03 -0.18851420731E+03  0.15127337716E+02  0.24518754616E+03  0.79645312550E+02 0.  0.
         24    2    4    4    0    0 -0.46976411555E+03 -0.33072868070E+02  0.51841429440E+02  0.48053317300E+03  0.80327191488E+02 0.  0.
         11    1    5    5    0    0  0.52464409449E+02 -0.27215815193E+02 -0.17076549643E+02  0.61520918419E+02  0.00000000000E+00 0. -1.
        -12    1    5    5    0    0  0.81726179928E+02 -0.16129839212E+03  0.32203887358E+02  0.18366662774E+03  0.00000000000E+00 0.  1.
         15    1    3    3    0    0  0.30043531815E+03  0.19443737072E+03  0.18085431813E+02  0.35832598579E+03  0.17770000000E+01 0. -1.
        -16    1    3    3    0    0  0.35138208023E+02  0.27149704662E+02 -0.27343236133E+02  0.52148371868E+02  0.00000000000E+00 0.  1.
          4    1    6    6  502    0 -0.45599165431E+03 -0.17448146228E+02  0.44676859633E+02  0.45850719557E+03  0.00000000000E+00 0. -1.
         -1    1    6    6    0  502 -0.13772461237E+02 -0.15624721842E+02  0.71645698070E+01  0.22025977428E+02  0.00000000000E+00 0.  1.
<mgrwt>
<rscale>  0 0.55967624E+03</rscale>
<asrwt>0</asrwt>
<pdfrwt beam="1">  1        1 0.91838925E-01 0.55967624E+03</pdfrwt>
<pdfrwt beam="2">  1       -2 0.82960317E-01 0.55967624E+03</pdfrwt>
<totfact> 0.39823413E+01</totfact>
</mgrwt>
</event>
<event>
12    3  0.1176505E-007  0.5847047E+03  0.7818608E-02  0.9937657E-01
          1   -1    0    0  501    0  0.00000000000E+00  0.00000000000E+00  0.23560798288E+04  0.23560798288E+04  0.00000000000E+00 0. -1.
         -4   -1    0    0    0  501 -0.00000000000E+00 -0.00000000000E+00 -0.19807685193E+03  0.19807685193E+03  0.00000000000E+00 0.  1.
        -24    2    1    2    0    0  0.22227332283E+03 -0.37273530711E+03  0.24992879196E+03  0.50742287773E+03  0.81710076404E+02 0.  0.
    5000000    2    1    2    0    0 -0.22227332283E+03  0.37273530711E+03  0.19080741849E+04  0.20467338030E+04  0.60002927096E+03 0.  0.
        -24    2    4    4    0    0  0.15720827361E+03  0.29664969582E+03  0.89982955912E+03  0.96370244977E+03  0.79458749806E+02 0.  0.
         24    2    4    4    0    0 -0.37948159644E+03  0.76085611294E+02  0.10082446258E+04  0.10830313532E+04  0.81267363358E+02 0.  0.
         13    1    5    5    0    0  0.10471303243E+03  0.21681344023E+03  0.53710099732E+03  0.58860034688E+03  0.00000000000E+00 0. -1.
        -14    1    5    5    0    0  0.52495241171E+02  0.79836255591E+02  0.36272856180E+03  0.37510210290E+03  0.00000000000E+00 0.  1.
         15    1    3    3    0    0  0.59874164394E+02 -0.55833209498E+02  0.73442047212E+02  0.10999615844E+03  0.17770000000E+01 0. -1.
        -16    1    3    3    0    0  0.16239915844E+03 -0.31690209761E+03  0.17648674475E+03  0.39742671929E+03  0.00000000000E+00 0.  1.
          4    1    6    6  502    0 -0.20920811541E+03  0.14954767924E+01  0.55707463975E+03  0.59506506052E+03  0.00000000000E+00 0. -1.
         -3    1    6    6    0  502 -0.17027348102E+03  0.74590134501E+02  0.45116998607E+03  0.48796629273E+03  0.00000000000E+00 0.  1.
<mgrwt>
<rscale>  0 0.58470472E+03</rscale>
<asrwt>0</asrwt>
<pdfrwt beam="1">  1        1 0.36247380E+00 0.58470472E+03</pdfrwt>
<pdfrwt beam="2">  1       -4 0.30473364E-01 0.58470472E+03</pdfrwt>
<totfact> 0.92061448E+00</totfact>
</mgrwt>
</event>
<event>
12    3  0.1176505E-007  0.1060382E+04  0.7818608E-02  0.9244691E-01
          1   -1    0    0  501    0  0.00000000000E+00  0.00000000000E+00  0.14659953069E+04  0.14659953069E+04  0.00000000000E+00 0. -1.
         -2   -1    0    0    0  501 -0.00000000000E+00 -0.00000000000E+00 -0.12120827929E+04  0.12120827929E+04  0.00000000000E+00 0.  1.
        -24    2    1    2    0    0  0.50863942658E+03 -0.84078828377E+03  0.91948155006E+03  0.13481850637E+04  0.80731905886E+02 0.  0.
    5000000    2    1    2    0    0 -0.50863942658E+03  0.84078828377E+03 -0.66556903602E+03  0.13298930361E+04  0.59999528437E+03 0.  0.
        -24    2    4    4    0    0 -0.55391629375E+03  0.87506161309E+03 -0.54076959876E+03  0.11711333674E+04  0.81027885254E+02 0.  0.
         24    2    4    4    0    0  0.45276867169E+02 -0.34273329317E+02 -0.12479943725E+03  0.15875966863E+03  0.80031725221E+02 0.  0.
         13    1    5    5    0    0 -0.29109138660E+03  0.39551380827E+03 -0.23190770055E+03  0.54308981712E+03  0.00000000000E+00 0. -1.
        -14    1    5    5    0    0 -0.26282490716E+03  0.47954780482E+03 -0.30886189821E+03  0.62804355032E+03  0.00000000000E+00 0.  1.
         15    1    3    3    0    0  0.43437122015E+03 -0.75882263919E+03  0.83486724365E+03  0.12089237473E+04  0.17770000000E+01 0. -1.
        -16    1    3    3    0    0  0.74268206438E+02 -0.81965644582E+02  0.84614306409E+02  0.13926131634E+03  0.00000000000E+00 0.  1.
          4    1    6    6  502    0  0.62823312716E+02 -0.40909195226E+01 -0.74622173223E+02  0.97631823601E+02  0.00000000000E+00 0. -1.
         -3    1    6    6    0  502 -0.17546445547E+02 -0.30182409795E+02 -0.50177264029E+02  0.61127845029E+02  0.00000000000E+00 0.  1.
<mgrwt>
<rscale>  0 0.10603819E+04</rscale>
<asrwt>0</asrwt>
<pdfrwt beam="1">  1        1 0.22553774E+00 0.10603819E+04</pdfrwt>
<pdfrwt beam="2">  1       -2 0.18647428E+00 0.10603819E+04</pdfrwt>
<totfact> 0.98246179E-01</totfact>
</mgrwt>
</event>
<event>
12    3  0.1176505E-007  0.5677054E+03  0.7818608E-02  0.9974769E-01
         -2   -1    0    0    0  501 -0.00000000000E+00  0.00000000000E+00  0.60396571070E+03  0.60396571070E+03  0.00000000000E+00 0.  1.
          1   -1    0    0  501    0  0.00000000000E+00 -0.00000000000E+00 -0.54406845053E+03  0.54406845053E+03  0.00000000000E+00 0. -1.
        -24    2    1    2    0    0 -0.84665055797E+02 -0.40266354023E+03  0.33265321775E+02  0.42008884798E+03  0.77858591455E+02 0.  0.
    5000000    2    1    2    0    0  0.84665055797E+02  0.40266354023E+03  0.26631938395E+02  0.72794531326E+03  0.59990751008E+03 0.  0.
        -24    2    4    4    0    0  0.65763785049E+02  0.54999918335E+03  0.38775990531E+02  0.56119743997E+03  0.81332724471E+02 0.  0.
         24    2    4    4    0    0  0.18901270748E+02 -0.14733564313E+03 -0.12144052136E+02  0.16674787329E+03  0.74781852567E+02 0.  0.
         11    1    5    5    0    0  0.17437157375E+02  0.23462304010E+03  0.55409167196E+02  0.24170684975E+03  0.00000000000E+00 0. -1.
        -12    1    5    5    0    0  0.48326627675E+02  0.31537614325E+03 -0.16633176665E+02  0.31949059022E+03  0.00000000000E+00 0.  1.
         15    1    3    3    0    0 -0.74765903304E+02 -0.22775109730E+03  0.47290739502E+02  0.24433598669E+03  0.17770000000E+01 0. -1.
        -16    1    3    3    0    0 -0.98991524934E+01 -0.17491244292E+03 -0.14025417726E+02  0.17575286129E+03  0.00000000000E+00 0.  1.
          4    1    6    6  502    0 -0.27786125461E+02 -0.36224783292E+02 -0.39997667305E+00  0.45655927041E+02  0.00000000000E+00 0. -1.
         -3    1    6    6    0  502  0.46687396209E+02 -0.11111085984E+03 -0.11744075463E+02  0.12109194625E+03  0.00000000000E+00 0.  1.
<mgrwt>
<rscale>  0 0.56770542E+03</rscale>
<asrwt>0</asrwt>
<pdfrwt beam="1">  1        1 0.83702838E-01 0.56770542E+03</pdfrwt>
<pdfrwt beam="2">  1       -2 0.92917802E-01 0.56770542E+03</pdfrwt>
<totfact> 0.34994970E+01</totfact>
</mgrwt>
</event>
<event>
12    3  0.1176505E-007  0.6597212E+03  0.7818608E-02  0.9788707E-01
          1   -1    0    0  501    0  0.00000000000E+00  0.00000000000E+00  0.93871717020E+03  0.93871717020E+03  0.00000000000E+00 0. -1.
         -2   -1    0    0    0  501 -0.00000000000E+00 -0.00000000000E+00 -0.48892122066E+03  0.48892122066E+03  0.00000000000E+00 0.  1.
        -24    2    1    2    0    0  0.30146636831E+03  0.44790305719E+03  0.21752025253E+03  0.58738216127E+03  0.78763083110E+02 0.  0.
    5000000    2    1    2    0    0 -0.30146636831E+03 -0.44790305719E+03  0.23227569702E+03  0.84025622959E+03  0.60048264928E+03 0.  0.
        -24    2    4    4    0    0 -0.38252385188E+03 -0.70922902770E+02  0.32196581329E+02  0.39865325532E+03  0.80828477256E+02 0.  0.
         24    2    4    4    0    0  0.81057483570E+02 -0.37698015442E+03  0.20007911569E+03  0.44160297427E+03  0.79354784866E+02 0.  0.
         11    1    5    5    0    0 -0.28063829982E+03 -0.58234632023E+02  0.58809000741E+02  0.29258780949E+03  0.00000000000E+00 0. -1.
        -12    1    5    5    0    0 -0.10188555206E+03 -0.12688270747E+02 -0.26612419413E+02  0.10606544583E+03  0.00000000000E+00 0.  1.
         15    1    3    3    0    0  0.11984359688E+03  0.22575971492E+03  0.13364998565E+03  0.28843615063E+03  0.17770000000E+01 0. -1.
        -16    1    3    3    0    0  0.18162277143E+03  0.22214334227E+03  0.83870266876E+02  0.29894601065E+03  0.00000000000E+00 0.  1.
          4    1    6    6  502    0  0.66979304961E+01 -0.11735078149E+03  0.97476702333E+02  0.15270159033E+03  0.00000000000E+00 0. -1.
         -3    1    6    6    0  502  0.74359553074E+02 -0.25962937292E+03  0.10260241335E+03  0.28890138394E+03  0.00000000000E+00 0.  1.
<mgrwt>
<rscale>  0 0.65972118E+03</rscale>
<asrwt>0</asrwt>
<pdfrwt beam="1">  1        1 0.14441803E+00 0.65972118E+03</pdfrwt>
<pdfrwt beam="2">  1       -2 0.75218649E-01 0.65972118E+03</pdfrwt>
<totfact> 0.24295363E+01</totfact>
</mgrwt>
</event>
<event>
12    3  0.1176505E-007  0.7027943E+03  0.7818608E-02  0.9712465E-01
          1   -1    0    0  501    0  0.00000000000E+00  0.00000000000E+00  0.34191703730E+04  0.34191703730E+04  0.00000000000E+00 0. -1.
         -2   -1    0    0    0  501 -0.00000000000E+00 -0.00000000000E+00 -0.16374513836E+03  0.16374513836E+03  0.00000000000E+00 0.  1.
        -24    2    1    2    0    0 -0.45084471508E+03 -0.43238151290E+03  0.12990892575E+04  0.14433755329E+04  0.74062812518E+02 0.  0.
    5000000    2    1    2    0    0  0.45084471508E+03  0.43238151290E+03  0.19563359772E+04  0.21395399785E+04  0.60013842922E+03 0.  0.
        -24    2    4    4    0    0 -0.94459894817E+02  0.82267744998E+02  0.78789629951E+03  0.80165753503E+03  0.78635685883E+02 0.  0.
         24    2    4    4    0    0  0.54530460989E+03  0.35011376790E+03  0.11684396777E+04  0.13378824435E+04  0.68857709616E+02 0.  0.
         13    1    5    5    0    0 -0.12816085009E+02 -0.11334278629E+01  0.14015777984E+02  0.19025738519E+02  0.00000000000E+00 0. -1.
        -14    1    5    5    0    0 -0.81643809808E+02  0.83401172861E+02  0.77388052152E+03  0.78263179651E+03  0.00000000000E+00 0.  1.
         15    1    3    3    0    0 -0.12895572725E+03 -0.13041568697E+03  0.46161831278E+03  0.49672170822E+03  0.17770000000E+01 0. -1.
        -16    1    3    3    0    0 -0.32188898783E+03 -0.30196582592E+03  0.83747094470E+03  0.94665382466E+03  0.00000000000E+00 0.  1.
          4    1    6    6  502    0  0.14582127912E+03  0.60764370546E+02  0.26291576093E+03  0.30672602028E+03  0.00000000000E+00 0. -1.
         -3    1    6    6    0  502  0.39948333077E+03  0.28934939735E+03  0.90552391677E+03  0.10311564232E+04  0.00000000000E+00 0.  1.
<mgrwt>
<rscale>  0 0.70279431E+03</rscale>
<asrwt>0</asrwt>
<pdfrwt beam="1">  1        1 0.52602616E+00 0.70279431E+03</pdfrwt>
<pdfrwt beam="2">  1       -2 0.25191562E-01 0.70279431E+03</pdfrwt>
<totfact> 0.39022223E+00</totfact>
</mgrwt>
</event>
<event>
12    3  0.1176505E-007  0.1120715E+04  0.7818608E-02  0.9185234E-01
          1   -1    0    0  501    0  0.00000000000E+00  0.00000000000E+00  0.14151023420E+04  0.14151023420E+04  0.00000000000E+00 0. -1.
         -2   -1    0    0    0  501 -0.00000000000E+00 -0.00000000000E+00 -0.12402736880E+04  0.12402736880E+04  0.00000000000E+00 0.  1.
        -24    2    1    2    0    0 -0.76887228260E+03 -0.75225744069E+03 -0.56623330077E+03  0.12179108841E+04  0.75039501432E+02 0.  0.
    5000000    2    1    2    0    0  0.76887228260E+03  0.75225744069E+03  0.74106195480E+03  0.14374651458E+04  0.60006448030E+03 0.  0.
        -24    2    4    4    0    0  0.27921686807E+02 -0.26400289027E+02  0.22482857143E+03  0.24241770182E+03  0.82108828829E+02 0.  0.
         24    2    4    4    0    0  0.74095059579E+03  0.77865772972E+03  0.51623338338E+03  0.11950474440E+04  0.79535160810E+02 0.  0.
         11    1    5    5    0    0 -0.13144680510E+02  0.22946444639E+02  0.63831559412E+02  0.69092618450E+02  0.00000000000E+00 0. -1.
        -12    1    5    5    0    0  0.41066367317E+02 -0.49346733666E+02  0.16099701201E+03  0.17332508337E+03  0.00000000000E+00 0.  1.
         15    1    3    3    0    0 -0.52820501127E+03 -0.53171421435E+03 -0.43100354345E+03  0.86457373998E+03  0.17770000000E+01 0. -1.
        -16    1    3    3    0    0 -0.24066727133E+03 -0.22054322634E+03 -0.13522975732E+03  0.35333714415E+03  0.00000000000E+00 0.  1.
          2    1    6    6  502    0  0.56051700032E+03  0.59223694813E+03  0.42860160104E+03  0.92120749172E+03  0.00000000000E+00 0. -1.
         -1    1    6    6    0  502  0.18043359546E+03  0.18642078159E+03  0.87631782334E+02  0.27383995226E+03  0.00000000000E+00 0.  1.
<mgrwt>
<rscale>  0 0.11207150E+04</rscale>
<asrwt>0</asrwt>
<pdfrwt beam="1">  1        1 0.21770805E+00 0.11207150E+04</pdfrwt>
<pdfrwt beam="2">  1       -2 0.19081134E+00 0.11207150E+04</pdfrwt>
<totfact> 0.98936841E-01</totfact>
</mgrwt>
</event>
<event>
12    3  0.1176505E-007  0.8048623E+03  0.7818608E-02  0.9553006E-01
          1   -1    0    0  501    0  0.00000000000E+00  0.00000000000E+00  0.37832255169E+03  0.37832255169E+03  0.00000000000E+00 0. -1.
         -2   -1    0    0    0  501 -0.00000000000E+00 -0.00000000000E+00 -0.20145403911E+04  0.20145403911E+04  0.00000000000E+00 0.  1.
        -24    2    1    2    0    0  0.58290408916E+03  0.39725272617E+03 -0.11370429456E+04  0.13405973412E+04  0.82144175416E+02 0.  0.
    5000000    2    1    2    0    0 -0.58290408916E+03 -0.39725272617E+03 -0.49917489377E+03  0.10522656015E+04  0.60041686850E+03 0.  0.
        -24    2    4    4    0    0  0.99518515250E+02 -0.69869443107E+01 -0.12024232471E+03  0.17594392130E+03  0.80902994528E+02 0.  0.
         24    2    4    4    0    0 -0.68242260441E+03 -0.39026578186E+03 -0.37893256906E+03  0.87632168022E+03  0.79635443327E+02 0.  0.
         11    1    5    5    0    0  0.53931712786E+02  0.25034668473E+02 -0.10062912752E+03  0.11688278562E+03  0.00000000000E+00 0. -1.
        -12    1    5    5    0    0  0.45586802464E+02 -0.32021612784E+02 -0.19613197196E+02  0.59061135686E+02  0.00000000000E+00 0.  1.
         15    1    3    3    0    0  0.47441867389E+03  0.34905838450E+03 -0.98546647765E+03  0.11480688874E+04  0.17770000000E+01 0. -1.
        -16    1    3    3    0    0  0.10848541527E+03  0.48194341670E+02 -0.15157646797E+03  0.19252845383E+03  0.00000000000E+00 0.  1.
          4    1    6    6  502    0 -0.35278831521E+03 -0.18243570363E+03 -0.23130395352E+03  0.45961277204E+03  0.00000000000E+00 0. -1.
         -3    1    6    6    0  502 -0.32963428920E+03 -0.20783007823E+03 -0.14762861554E+03  0.41670890818E+03  0.00000000000E+00 0.  1.
<mgrwt>
<rscale>  0 0.80486231E+03</rscale>
<asrwt>0</asrwt>
<pdfrwt beam="1">  1        1 0.58203470E-01 0.80486231E+03</pdfrwt>
<pdfrwt beam="2">  1       -2 0.30992929E+00 0.80486231E+03</pdfrwt>
<totfact> 0.16222383E+00</totfact>
</mgrwt>
</event>
<event>
12    3  0.1176505E-007  0.1061364E+04  0.7818608E-02  0.9243690E-01
          1   -1    0    0  501    0  0.00000000000E+00  0.00000000000E+00  0.15979220346E+04  0.15979220346E+04  0.00000000000E+00 0. -1.
         -2   -1    0    0    0  501 -0.00000000000E+00 -0.00000000000E+00 -0.76495859573E+03  0.76495859573E+03  0.00000000000E+00 0.  1.
        -24    2    1    2    0    0 -0.85387485040E+03  0.49308833722E+03  0.67563851942E+03  0.11979461307E+04  0.79681582403E+02 0.  0.
    5000000    2    1    2    0    0  0.85387485040E+03 -0.49308833722E+03  0.15732491944E+03  0.11649344997E+04  0.60006907085E+03 0.  0.
        -24    2    4    4    0    0  0.12907378438E+03  0.12653837325E+03  0.27834548697E+02  0.19964160577E+03  0.80062518909E+02 0.  0.
         24    2    4    4    0    0  0.72480106602E+03 -0.61962671047E+03  0.12949037075E+03  0.96529289390E+03  0.75820638698E+02 0.  0.
         13    1    5    5    0    0  0.10364847913E+02  0.17341948703E+02 -0.22917705513E+02  0.30551505414E+02  0.00000000000E+00 0. -1.
        -14    1    5    5    0    0  0.11870893646E+03  0.10919642455E+03  0.50752254210E+02  0.16909010036E+03  0.00000000000E+00 0.  1.
         15    1    3    3    0    0 -0.51002951226E+03  0.27278645592E+03  0.35406117583E+03  0.67816298031E+03  0.17770000000E+01 0. -1.
        -16    1    3    3    0    0 -0.34384533814E+03  0.22030188130E+03  0.32157734359E+03  0.51978315034E+03  0.00000000000E+00 0.  1.
          4    1    6    6  502    0  0.29639068291E+02 -0.37197935762E+02 -0.73409372440E+01  0.48125358739E+02  0.00000000000E+00 0. -1.
         -3    1    6    6    0  502  0.69516199773E+03 -0.58242877471E+03  0.13683130799E+03  0.91716753516E+03  0.00000000000E+00 0.  1.
<mgrwt>
<rscale>  0 0.10613637E+04</rscale>
<asrwt>0</asrwt>
<pdfrwt beam="1">  1        1 0.24583416E+00 0.10613637E+04</pdfrwt>
<pdfrwt beam="2">  1       -2 0.11768594E+00 0.10613637E+04</pdfrwt>
<totfact> 0.27187510E+00</totfact>
</mgrwt>
</event>
<event>
12    3  0.1176505E-007  0.1030691E+04  0.7818608E-02  0.9275510E-01
          1   -1    0    0  501    0  0.00000000000E+00  0.00000000000E+00  0.24548967909E+04  0.24548967909E+04  0.00000000000E+00 0. -1.
         -2   -1    0    0    0  501 -0.00000000000E+00 -0.00000000000E+00 -0.49643378990E+03  0.49643378990E+03  0.00000000000E+00 0.  1.
        -24    2    1    2    0    0 -0.83029218306E+03 -0.52245314159E+03  0.53145756899E+03  0.11186123324E+04  0.80647431569E+02 0.  0.
    5000000    2    1    2    0    0  0.83029218306E+03  0.52245314159E+03  0.14270054320E+04  0.18327182483E+04  0.60014105048E+03 0.  0.
        -24    2    4    4    0    0  0.22565029986E+03  0.39571437092E+03  0.32130580867E+03  0.56344105878E+03  0.81978551211E+02 0.  0.
         24    2    4    4    0    0  0.60464188320E+03  0.12673877067E+03  0.11056996233E+04  0.12692771895E+04  0.82694643212E+02 0.  0.
         11    1    5    5    0    0  0.95709017917E+01  0.71125022113E+02  0.36090103509E+02  0.80329736107E+02  0.00000000000E+00 0. -1.
        -12    1    5    5    0    0  0.21607939806E+03  0.32458934881E+03  0.28521570516E+03  0.48311132267E+03  0.00000000000E+00 0.  1.
         15    1    3    3    0    0 -0.26670379019E+03 -0.17084493464E+03  0.12947519122E+03  0.34217814989E+03  0.17770000000E+01 0. -1.
        -16    1    3    3    0    0 -0.56358839287E+03 -0.35160820695E+03  0.40198237777E+03  0.77643418254E+03  0.00000000000E+00 0.  1.
          2    1    6    6  502    0  0.58379342380E+02  0.22420157570E+02  0.16538630789E+03  0.17681471070E+03  0.00000000000E+00 0. -1.
         -1    1    6    6    0  502  0.54626254082E+03  0.10431861310E+03  0.94031331541E+03  0.10924624788E+04  0.00000000000E+00 0.  1.
<mgrwt>
<rscale>  0 0.10306907E+04</rscale>
<asrwt>0</asrwt>
<pdfrwt beam="1">  1        1 0.37767642E+00 0.10306907E+04</pdfrwt>
<pdfrwt beam="2">  1       -2 0.76374430E-01 0.10306907E+04</pdfrwt>
<totfact> 0.19799973E+00</totfact>
</mgrwt>
</event>
<event>
12    3  0.1176505E-007  0.3368221E+03  0.7818608E-02  0.1068158E+00
         -2   -1    0    0    0  501 -0.00000000000E+00  0.00000000000E+00  0.45297062341E+03  0.45297062341E+03  0.00000000000E+00 0.  1.
          1   -1    0    0  501    0  0.00000000000E+00 -0.00000000000E+00 -0.55060510793E+03  0.55060510793E+03  0.00000000000E+00 0. -1.
        -24    2    1    2    0    0  0.24442917735E+03 -0.80111079786E+02 -0.21017134207E+03  0.34147847065E+03  0.79196875219E+02 0.  0.
    5000000    2    1    2    0    0 -0.24442917735E+03  0.80111079786E+02  0.11253685755E+03  0.66209726068E+03  0.59962057207E+03 0.  0.
        -24    2    4    4    0    0 -0.28519727130E+03  0.13298610770E+03  0.30388616735E+03  0.44385199581E+03  0.75066657612E+02 0.  0.
         24    2    4    4    0    0  0.40768093946E+02 -0.52875027910E+02 -0.19134930980E+03  0.21824526487E+03  0.80985376561E+02 0.  0.
         13    1    5    5    0    0 -0.21002299895E+03  0.93008537427E+02  0.17236186739E+03  0.28717392196E+03  0.00000000000E+00 0. -1.
        -14    1    5    5    0    0 -0.75174272352E+02  0.39977570269E+02  0.13152429996E+03  0.15667807386E+03  0.00000000000E+00 0.  1.
         15    1    3    3    0    0  0.77951449761E+02  0.25504055668E+01 -0.94555668437E+02  0.12258411500E+03  0.17770000000E+01 0. -1.
        -16    1    3    3    0    0  0.16647772759E+03 -0.82661485353E+02 -0.11561567363E+03  0.21889435565E+03  0.00000000000E+00 0.  1.
          2    1    6    6  502    0 -0.17033791985E+02 -0.26225569272E+02 -0.11328202664E+03  0.11751913935E+03  0.00000000000E+00 0. -1.
         -1    1    6    6    0  502  0.57801885932E+02 -0.26649458638E+02 -0.78067283158E+02  0.10072612552E+03  0.00000000000E+00 0.  1.
<mgrwt>
<rscale>  0 0.33682213E+03</rscale>
<asrwt>0</asrwt>
<pdfrwt beam="1">  1        1 0.84708478E-01 0.33682213E+03</pdfrwt>
<pdfrwt beam="2">  1       -2 0.69687788E-01 0.33682213E+03</pdfrwt>
<totfact> 0.67244587E+01</totfact>
</mgrwt>
</event>
<event>
12    3  0.1176505E-007  0.1117389E+04  0.7818608E-02  0.9188408E-01
         -2   -1    0    0    0  501 -0.00000000000E+00  0.00000000000E+00  0.17848378562E+04  0.17848378562E+04  0.00000000000E+00 0.  1.
          1   -1    0    0  501    0  0.00000000000E+00 -0.00000000000E+00 -0.81060584054E+03  0.81060584054E+03  0.00000000000E+00 0. -1.
        -24    2    1    2    0    0  0.56842898727E+03 -0.90042688508E+03  0.61036704589E+02  0.10697169771E+04  0.81785345970E+02 0.  0.
    5000000    2    1    2    0    0 -0.56842898727E+03  0.90042688508E+03  0.91319531105E+03  0.15257267196E+04  0.60003021418E+03 0.  0.
        -24    2    4    4    0    0 -0.28791873718E+03  0.82088669147E+03  0.47691605793E+03  0.99513220884E+03  0.78019403432E+02 0.  0.
         24    2    4    4    0    0 -0.28051025009E+03  0.79540193612E+02  0.43627925312E+03  0.53059451079E+03  0.78602197000E+02 0.  0.
         11    1    5    5    0    0 -0.14814622750E+03  0.47380439728E+03  0.23222366689E+03  0.54805633202E+03  0.00000000000E+00 0. -1.
        -12    1    5    5    0    0 -0.13977250968E+03  0.34708229419E+03  0.24469239104E+03  0.44707587682E+03  0.00000000000E+00 0.  1.
         15    1    3    3    0    0  0.51527235388E+03 -0.83252197505E+03  0.76653223392E+02  0.98207805799E+03  0.17770000000E+01 0. -1.
        -16    1    3    3    0    0  0.53156633391E+02 -0.67904910034E+02 -0.15616518804E+02  0.87638919093E+02  0.00000000000E+00 0.  1.
          4    1    6    6  502    0 -0.24051286447E+03  0.91166730442E+02  0.34563415954E+03  0.43083730451E+03  0.00000000000E+00 0. -1.
         -3    1    6    6    0  502 -0.39997385615E+02 -0.11626536829E+02  0.90645093581E+02  0.99757206281E+02  0.00000000000E+00 0.  1.
<mgrwt>
<rscale>  0 0.11173885E+04</rscale>
<asrwt>0</asrwt>
<pdfrwt beam="1">  1        1 0.12470859E+00 0.11173885E+04</pdfrwt>
<pdfrwt beam="2">  1       -2 0.27459044E+00 0.11173885E+04</pdfrwt>
<totfact> 0.85337399E-01</totfact>
</mgrwt>
</event>
<event>
12    3  0.1176505E-007  0.5125037E+03  0.7818608E-02  0.1010566E+00
         -4   -1    0    0    0  501 -0.00000000000E+00  0.00000000000E+00  0.59144013525E+03  0.59144013525E+03  0.00000000000E+00 0.  1.
          3   -1    0    0  501    0  0.00000000000E+00 -0.00000000000E+00 -0.75450970962E+03  0.75450970962E+03  0.00000000000E+00 0. -1.
        -24    2    1    2    0    0  0.22117421457E+03  0.33924612457E+03 -0.40941651735E+03  0.58148792722E+03  0.80624801373E+02 0.  0.
    5000000    2    1    2    0    0 -0.22117421457E+03 -0.33924612457E+03  0.24634694297E+03  0.76446191765E+03  0.59975765189E+03 0.  0.
        -24    2    4    4    0    0 -0.12657905671E+03  0.10266431081E+03 -0.82873894869E+02  0.19949806141E+03  0.79807115885E+02 0.  0.
         24    2    4    4    0    0 -0.94595157868E+02 -0.44191043538E+03  0.32922083784E+03  0.56496385624E+03  0.81022972065E+02 0.  0.
         11    1    5    5    0    0 -0.77676053053E+02  0.70524210844E+02 -0.90661166795E+01  0.10530635311E+03  0.00000000000E+00 0. -1.
        -12    1    5    5    0    0 -0.48903003652E+02  0.32140099964E+02 -0.73807778190E+02  0.94191708304E+02  0.00000000000E+00 0.  1.
         15    1    3    3    0    0  0.30644008286E+02  0.90889733156E+02 -0.13232994998E+03  0.16344531877E+03  0.17770000000E+01 0. -1.
        -16    1    3    3    0    0  0.19053020629E+03  0.24835639141E+03 -0.27708656737E+03  0.41804260845E+03  0.00000000000E+00 0.  1.
          4    1    6    6  502    0 -0.33299216077E+02 -0.21547742507E+03  0.20612862802E+03  0.30004727926E+03  0.00000000000E+00 0. -1.
         -3    1    6    6    0  502 -0.61295941791E+02 -0.22643301031E+03  0.12309220982E+03  0.26491657698E+03  0.00000000000E+00 0.  1.
<mgrwt>
<rscale>  0 0.51250372E+03</rscale>
<asrwt>0</asrwt>
<pdfrwt beam="1">  1        3 0.11607842E+00 0.51250372E+03</pdfrwt>
<pdfrwt beam="2">  1       -4 0.90990790E-01 0.51250372E+03</pdfrwt>
<totfact> 0.14324675E+00</totfact>
</mgrwt>
</event>
<event>
12    3  0.1176505E-007  0.5125672E+03  0.7818608E-02  0.1010550E+00
         -2   -1    0    0    0  501 -0.00000000000E+00  0.00000000000E+00  0.87065352331E+03  0.87065352331E+03  0.00000000000E+00 0.  1.
          1   -1    0    0  501    0  0.00000000000E+00 -0.00000000000E+00 -0.44203894908E+03  0.44203894908E+03  0.00000000000E+00 0. -1.
        -24    2    1    2    0    0 -0.38556696153E+03  0.30920311412E+02  0.44895576195E+03  0.59828247492E+03  0.82235613525E+02 0.  0.
    5000000    2    1    2    0    0  0.38556696153E+03 -0.30920311412E+02 -0.20341187723E+02  0.71440999746E+03  0.60029154007E+03 0.  0.
        -24    2    4    4    0    0  0.49526985040E+03 -0.55832016180E+02 -0.14820352016E+03  0.52632729034E+03  0.81527261882E+02 0.  0.
         24    2    4    4    0    0 -0.10970288887E+03  0.24911704767E+02  0.12786233244E+03  0.18808270712E+03  0.79818618137E+02 0.  0.
         11    1    5    5    0    0  0.26027355058E+03 -0.67407458771E+02 -0.94592372977E+02  0.28501544459E+03  0.00000000000E+00 0. -1.
        -12    1    5    5    0    0  0.23499629982E+03  0.11575442591E+02 -0.53611147182E+02  0.24131184575E+03  0.00000000000E+00 0.  1.
         15    1    3    3    0    0 -0.13058280251E+03  0.48993021992E+01  0.96353626510E+02  0.16236702419E+03  0.17770000000E+01 0. -1.
        -16    1    3    3    0    0 -0.25498415901E+03  0.26021009213E+02  0.35260213544E+03  0.43591545073E+03  0.00000000000E+00 0.  1.
          2    1    6    6  502    0 -0.71462852070E+01 -0.20593697802E+02  0.63758067693E+01  0.22711686273E+02  0.00000000000E+00 0. -1.
         -1    1    6    6    0  502 -0.10255660366E+03  0.45505402569E+02  0.12148652567E+03  0.16537102085E+03  0.00000000000E+00 0.  1.
<mgrwt>
<rscale>  0 0.51256722E+03</rscale>
<asrwt>0</asrwt>
<pdfrwt beam="1">  1        1 0.68005993E-01 0.51256722E+03</pdfrwt>
<pdfrwt beam="2">  1       -2 0.13394670E+00 0.51256722E+03</pdfrwt>
<totfact> 0.19257828E+01</totfact>
</mgrwt>
</event>
<event>
12    3  0.1176505E-007  0.1073338E+04  0.7818608E-02  0.9231575E-01
          1   -1    0    0  501    0  0.00000000000E+00  0.00000000000E+00  0.23949355107E+04  0.23949355107E+04  0.00000000000E+00 0. -1.
         -2   -1    0    0    0  501 -0.00000000000E+00 -0.00000000000E+00 -0.51987142239E+03  0.51987142239E+03  0.00000000000E+00 0.  1.
        -24    2    1    2    0    0 -0.33673082823E+03 -0.97693192787E+03  0.84043927956E+03  0.13342818781E+04  0.78653068887E+02 0.  0.
    5000000    2    1    2    0    0  0.33673082823E+03  0.97693192787E+03  0.10346248087E+04  0.15805250549E+04  0.59985607617E+03 0.  0.
        -24    2    4    4    0    0  0.36774273897E+03  0.97256154938E+03  0.74835207955E+03  0.12823833212E+04  0.58012569593E+02 0.  0.
         24    2    4    4    0    0 -0.31011910735E+02  0.43703784880E+01  0.28627272915E+03  0.29814173369E+03  0.77172398549E+02 0.  0.
         11    1    5    5    0    0  0.19204436788E+03  0.55418305818E+03  0.45095332907E+03  0.73983701327E+03  0.00000000000E+00 0. -1.
        -12    1    5    5    0    0  0.17569837109E+03  0.41837849120E+03  0.29739875048E+03  0.54254630797E+03  0.00000000000E+00 0.  1.
         15    1    3    3    0    0 -0.14996359579E+03 -0.40554463132E+03  0.30361347013E+03  0.52833684807E+03  0.17770000000E+01 0. -1.
        -16    1    3    3    0    0 -0.18676723245E+03 -0.57138729655E+03  0.53682580943E+03  0.80594503004E+03  0.00000000000E+00 0.  1.
          2    1    6    6  502    0  0.70787031474E+01  0.27435410413E+02  0.18961051735E+03  0.19171582635E+03  0.00000000000E+00 0. -1.
         -1    1    6    6    0  502 -0.38090613882E+02 -0.23065031925E+02  0.96662211798E+02  0.10642590734E+03  0.00000000000E+00 0.  1.
<mgrwt>
<rscale>  0 0.10733381E+04</rscale>
<asrwt>0</asrwt>
<pdfrwt beam="1">  1        1 0.36845161E+00 0.10733381E+04</pdfrwt>
<pdfrwt beam="2">  1       -2 0.79980220E-01 0.10733381E+04</pdfrwt>
<totfact> 0.19510644E+00</totfact>
</mgrwt>
</event>
<event>
12    3  0.1176505E-007  0.5583095E+03  0.7818608E-02  0.9995887E-01
         -2   -1    0    0    0  501 -0.00000000000E+00  0.00000000000E+00  0.45250963446E+03  0.45250963446E+03  0.00000000000E+00 0.  1.
          1   -1    0    0  501    0  0.00000000000E+00 -0.00000000000E+00 -0.98884488729E+03  0.98884488729E+03  0.00000000000E+00 0. -1.
        -24    2    1    2    0    0  0.40396156710E+03  0.17816862103E+03  0.10288188524E+03  0.45969257057E+03  0.76181178228E+02 0.  0.
    5000000    2    1    2    0    0 -0.40396156710E+03 -0.17816862103E+03 -0.63921713807E+03  0.98166195118E+03  0.60011051614E+03 0.  0.
        -24    2    4    4    0    0 -0.29227638762E+03  0.13850419353E+03 -0.11089292459E+03  0.35076576850E+03  0.78297415298E+02 0.  0.
         24    2    4    4    0    0 -0.11168517948E+03 -0.31667281456E+03 -0.52832421348E+03  0.63089618268E+03  0.78410891959E+02 0.  0.
         11    1    5    5    0    0 -0.89701326817E+02  0.82126261113E+01 -0.14040185851E+02  0.91164149089E+02  0.00000000000E+00 0. -1.
        -12    1    5    5    0    0 -0.20257506080E+03  0.13029156742E+03 -0.96852738742E+02  0.25960161941E+03  0.00000000000E+00 0.  1.
         15    1    3    3    0    0  0.63389049942E+02  0.39065319953E+02 -0.93578287576E+01  0.75066620836E+02  0.17770000000E+01 0. -1.
        -16    1    3    3    0    0  0.34057251715E+03  0.13910330108E+03  0.11223971400E+03  0.38462594974E+03  0.00000000000E+00 0.  1.
          4    1    6    6  502    0 -0.39658528493E+02 -0.21554246167E+03 -0.36492844259E+03  0.42568077227E+03  0.00000000000E+00 0. -1.
         -3    1    6    6    0  502 -0.72026650988E+02 -0.10113035290E+03 -0.16339577088E+03  0.20521541042E+03  0.00000000000E+00 0.  1.
<mgrwt>
<rscale>  0 0.55830948E+03</rscale>
<asrwt>0</asrwt>
<pdfrwt beam="1">  1        1 0.15212998E+00 0.55830948E+03</pdfrwt>
<pdfrwt beam="2">  1       -2 0.69616867E-01 0.55830948E+03</pdfrwt>
<totfact> 0.26630617E+01</totfact>
</mgrwt>
</event>
<event>
12    3  0.1176505E-007  0.5150573E+03  0.7818608E-02  0.1009922E+00
          1   -1    0    0  501    0  0.00000000000E+00  0.00000000000E+00  0.13967221782E+04  0.13967221782E+04  0.00000000000E+00 0. -1.
         -2   -1    0    0    0  501 -0.00000000000E+00 -0.00000000000E+00 -0.20077963378E+03  0.20077963378E+03  0.00000000000E+00 0.  1.
        -24    2    1    2    0    0  0.34590004381E+03 -0.42619839486E+02  0.50388878406E+03  0.61782591843E+03  0.79634589015E+02 0.  0.
    5000000    2    1    2    0    0 -0.34590004381E+03  0.42619839486E+02  0.69205376038E+03  0.97967589357E+03  0.59946906355E+03 0.  0.
        -24    2    4    4    0    0 -0.43788790841E+03  0.19869573252E+03  0.42645857149E+03  0.64845320560E+03  0.86016464726E+02 0.  0.
         24    2    4    4    0    0  0.91987864607E+02 -0.15607589303E+03  0.26559518889E+03  0.33122268797E+03  0.79663122218E+02 0.  0.
         13    1    5    5    0    0 -0.10218490787E+03  0.80927793644E+02  0.86946896033E+02  0.15668703172E+03  0.00000000000E+00 0. -1.
        -14    1    5    5    0    0 -0.33570300054E+03  0.11776793887E+03  0.33951167546E+03  0.49176617388E+03  0.00000000000E+00 0.  1.
         15    1    3    3    0    0  0.11530649860E+03  0.63049768881E+01  0.11441282833E+03  0.16256935249E+03  0.17770000000E+01 0. -1.
        -16    1    3    3    0    0  0.23059354521E+03 -0.48924816374E+02  0.38947595572E+03  0.45525656594E+03  0.00000000000E+00 0.  1.
          2    1    6    6  502    0  0.84335416091E+02 -0.79733046758E+02  0.12181632293E+03  0.16825289800E+03  0.00000000000E+00 0. -1.
         -1    1    6    6    0  502  0.76524485165E+01 -0.76342846273E+02  0.14377886596E+03  0.16296978997E+03  0.00000000000E+00 0.  1.
<mgrwt>
<rscale>  0 0.51505731E+03</rscale>
<asrwt>0</asrwt>
<pdfrwt beam="1">  1        1 0.21488033E+00 0.51505731E+03</pdfrwt>
<pdfrwt beam="2">  1       -2 0.30889175E-01 0.51505731E+03</pdfrwt>
<totfact> 0.69105877E+01</totfact>
</mgrwt>
</event>
<event>
12    3  0.1176505E-007  0.9187703E+03  0.7818608E-02  0.9402417E-01
         -2   -1    0    0    0  501 -0.00000000000E+00  0.00000000000E+00  0.91528544141E+03  0.91528544141E+03  0.00000000000E+00 0.  1.
          1   -1    0    0  501    0  0.00000000000E+00 -0.00000000000E+00 -0.11789182248E+04  0.11789182248E+04  0.00000000000E+00 0. -1.
        -24    2    1    2    0    0 -0.50504984326E+03  0.73522417202E+03 -0.45150278202E+03  0.10029038784E+04  0.79570721750E+02 0.  0.
    5000000    2    1    2    0    0  0.50504984326E+03 -0.73522417202E+03  0.18786999864E+03  0.10912997878E+04  0.60000846930E+03 0.  0.
        -24    2    4    4    0    0  0.25061431053E+03 -0.12122290252E+03  0.29549328862E+03  0.41335648218E+03  0.77748138241E+02 0.  0.
         24    2    4    4    0    0  0.25443553273E+03 -0.61400126951E+03 -0.10762328998E+03  0.67794330565E+03  0.79305446618E+02 0.  0.
         13    1    5    5    0    0  0.77028692664E+02 -0.36276791633E+02  0.14606201977E+03  0.16906666946E+03  0.00000000000E+00 0. -1.
        -14    1    5    5    0    0  0.17358561786E+03 -0.84946110883E+02  0.14943126885E+03  0.24428981271E+03  0.00000000000E+00 0.  1.
         15    1    3    3    0    0 -0.40887328603E+03  0.55229837742E+03 -0.37253570378E+03  0.78166288772E+03  0.17770000000E+01 0. -1.
        -16    1    3    3    0    0 -0.96176557230E+02  0.18292579461E+03 -0.78967078242E+02  0.22124099064E+03  0.00000000000E+00 0.  1.
          4    1    6    6  502    0  0.84916729472E+01 -0.38810271398E+02 -0.25011317661E+02  0.46945837798E+02  0.00000000000E+00 0. -1.
         -1    1    6    6    0  502  0.24594385978E+03 -0.57519099811E+03 -0.82611972322E+02  0.63099746786E+03  0.00000000000E+00 0.  1.
<mgrwt>
<rscale>  0 0.91877027E+03</rscale>
<asrwt>0</asrwt>
<pdfrwt beam="1">  1        1 0.18137203E+00 0.91877027E+03</pdfrwt>
<pdfrwt beam="2">  1       -2 0.14081315E+00 0.91877027E+03</pdfrwt>
<totfact> 0.34556185E+00</totfact>
</mgrwt>
</event>
<event>
12    3  0.1176505E-007  0.4404134E+03  0.7818608E-02  0.1030620E+00
          1   -1    0    0  501    0  0.00000000000E+00  0.00000000000E+00  0.85406889744E+03  0.85406889744E+03  0.00000000000E+00 0. -1.
         -2   -1    0    0    0  501 -0.00000000000E+00 -0.00000000000E+00 -0.34707154125E+03  0.34707154125E+03  0.00000000000E+00 0.  1.
        -24    2    1    2    0    0 -0.34333683274E+03 -0.31230704852E+02  0.33711726734E+03  0.48850038717E+03  0.78288177170E+02 0.  0.
    5000000    2    1    2    0    0  0.34333683274E+03  0.31230704852E+02  0.16988008884E+03  0.71264005152E+03  0.60011753915E+03 0.  0.
        -24    2    4    4    0    0  0.14558027380E+03 -0.17705908196E+03 -0.14383252325E+03  0.28120377852E+03  0.76447600888E+02 0.  0.
         24    2    4    4    0    0  0.19775655894E+03  0.20828978681E+03  0.31371261210E+03  0.43143627300E+03  0.72314333135E+02 0.  0.
         11    1    5    5    0    0  0.85569909136E+02 -0.13854022214E+03 -0.13046116054E+03  0.20865214332E+03  0.00000000000E+00 0. -1.
        -12    1    5    5    0    0  0.60010364669E+02 -0.38518859816E+02 -0.13371362709E+02  0.72551635198E+02  0.00000000000E+00 0.  1.
         15    1    3    3    0    0 -0.92411738083E+02 -0.41942104094E+02  0.11296983175E+03  0.15186971405E+03  0.17770000000E+01 0. -1.
        -16    1    3    3    0    0 -0.25092509466E+03  0.10711399242E+02  0.22414743559E+03  0.33663067312E+03  0.00000000000E+00 0.  1.
          4    1    6    6  502    0  0.92275336898E+02  0.14232042704E+03  0.15498168223E+03  0.22975892492E+03  0.00000000000E+00 0. -1.
         -3    1    6    6    0  502  0.10548122204E+03  0.65969359767E+02  0.15873092987E+03  0.20167734808E+03  0.00000000000E+00 0.  1.
<mgrwt>
<rscale>  0 0.44041339E+03</rscale>
<asrwt>0</asrwt>
<pdfrwt beam="1">  1        1 0.13139521E+00 0.44041339E+03</pdfrwt>
<pdfrwt beam="2">  1       -2 0.53395622E-01 0.44041339E+03</pdfrwt>
<totfact> 0.60569849E+01</totfact>
</mgrwt>
</event>
<event>
12    3  0.1176505E-007  0.4053454E+03  0.7818608E-02  0.1041944E+00
         -2   -1    0    0    0  501 -0.00000000000E+00  0.00000000000E+00  0.17907527500E+04  0.17907527500E+04  0.00000000000E+00 0.  1.
          1   -1    0    0  501    0  0.00000000000E+00 -0.00000000000E+00 -0.11419807953E+03  0.11419807953E+03  0.00000000000E+00 0. -1.
        -24    2    1    2    0    0 -0.11988206636E+03  0.15673237006E+03  0.17351571986E+03  0.27461955787E+03  0.79821368491E+02 0.  0.
    5000000    2    1    2    0    0  0.11988206636E+03 -0.15673237006E+03  0.15030389507E+04  0.16303312717E+04  0.59993101488E+03 0.  0.
        -24    2    4    4    0    0  0.33222349527E+03 -0.16871019132E+03  0.11516240006E+04  0.12129720541E+04  0.78916321389E+02 0.  0.
         24    2    4    4    0    0 -0.21234142892E+03  0.11977821262E+02  0.35141495005E+03  0.41735921760E+03  0.73918189626E+02 0.  0.
         11    1    5    5    0    0  0.34184044680E+02 -0.39080609835E+02  0.22787757713E+03  0.23371784941E+03  0.00000000000E+00 0. -1.
        -12    1    5    5    0    0  0.29803945059E+03 -0.12962958149E+03  0.92374642348E+03  0.97925420469E+03  0.00000000000E+00 0.  1.
         15    1    3    3    0    0 -0.49247016651E+02  0.14344747350E+02  0.25010230920E+02  0.57093868368E+02  0.17770000000E+01 0. -1.
        -16    1    3    3    0    0 -0.70635049704E+02  0.14238762271E+03  0.14850548894E+03  0.21752568950E+03  0.00000000000E+00 0.  1.
          2    1    6    6  502    0 -0.12743044224E+03 -0.26679575859E+02  0.22930002215E+03  0.26368317644E+03  0.00000000000E+00 0. -1.
         -1    1    6    6    0  502 -0.84910986681E+02  0.38657397121E+02  0.12211492790E+03  0.15367604116E+03  0.00000000000E+00 0.  1.
<mgrwt>
<rscale>  0 0.40534543E+03</rscale>
<asrwt>0</asrwt>
<pdfrwt beam="1">  1        1 0.17568937E-01 0.40534543E+03</pdfrwt>
<pdfrwt beam="2">  1       -2 0.27550040E+00 0.40534543E+03</pdfrwt>
<totfact> 0.13173433E+01</totfact>
</mgrwt>
</event>
<event>
12    3  0.1176505E-007  0.1486992E+04  0.7818608E-02  0.8893149E-01
          1   -1    0    0  501    0  0.00000000000E+00  0.00000000000E+00  0.15359131179E+04  0.15359131179E+04  0.00000000000E+00 0. -1.
         -2   -1    0    0    0  501 -0.00000000000E+00 -0.00000000000E+00 -0.15513460232E+04  0.15513460232E+04  0.00000000000E+00 0.  1.
        -24    2    1    2    0    0 -0.63557495790E+03 -0.12923954792E+04  0.35099205727E+03  0.14846020602E+04  0.81278847102E+02 0.  0.
    5000000    2    1    2    0    0  0.63557495790E+03  0.12923954792E+04 -0.36642496252E+03  0.16026570809E+04  0.60000071997E+03 0.  0.
        -24    2    4    4    0    0  0.70477739356E+03  0.98951795348E+03 -0.17723332883E+03  0.12302971220E+04  0.79764658360E+02 0.  0.
         24    2    4    4    0    0 -0.69202435662E+02  0.30287752577E+03 -0.18919163369E+03  0.37235995896E+03  0.79590778733E+02 0.  0.
         13    1    5    5    0    0  0.51988149869E+03  0.78677548861E+03 -0.14190577313E+03  0.95364023121E+03  0.00000000000E+00 0. -1.
        -14    1    5    5    0    0  0.18489589487E+03  0.20274246487E+03 -0.35327555708E+02  0.27665689074E+03  0.00000000000E+00 0.  1.
         15    1    3    3    0    0 -0.50622517517E+03 -0.10264934236E+04  0.31238356044E+03  0.11863976244E+04  0.17770000000E+01 0. -1.
        -16    1    3    3    0    0 -0.12934978272E+03 -0.26590205564E+03  0.38608496840E+02  0.29820443577E+03  0.00000000000E+00 0.  1.
          4    1    6    6  502    0  0.91204121403E+01  0.71220876844E+02 -0.18521864687E+02  0.74152914222E+02  0.00000000000E+00 0. -1.
         -3    1    6    6    0  502 -0.78322847802E+02  0.23165664893E+03 -0.17066976900E+03  0.29820704474E+03  0.00000000000E+00 0.  1.
<mgrwt>
<rscale>  0 0.14869920E+04</rscale>
<asrwt>0</asrwt>
<pdfrwt beam="1">  1        1 0.23629432E+00 0.14869920E+04</pdfrwt>
<pdfrwt beam="2">  1       -2 0.23866862E+00 0.14869920E+04</pdfrwt>
<totfact> 0.38585980E-01</totfact>
</mgrwt>
</event>
<event>
12    3  0.1176505E-007  0.8088796E+03  0.7818608E-02  0.9547252E-01
          1   -1    0    0  501    0  0.00000000000E+00  0.00000000000E+00  0.18012907745E+04  0.18012907745E+04  0.00000000000E+00 0. -1.
         -2   -1    0    0    0  501 -0.00000000000E+00 -0.00000000000E+00 -0.61503042190E+03  0.61503042190E+03  0.00000000000E+00 0.  1.
        -24    2    1    2    0    0 -0.36902628206E+03 -0.62503683186E+03  0.12761865460E+04  0.14702535051E+04  0.78369834847E+02 0.  0.
    5000000    2    1    2    0    0  0.36902628206E+03  0.62503683186E+03 -0.89926193449E+02  0.94606769126E+03  0.60008825863E+03 0.  0.
        -24    2    4    4    0    0  0.26606938758E+03  0.21222007296E+02  0.10622787329E+03  0.29817359518E+03  0.79873895591E+02 0.  0.
         24    2    4    4    0    0  0.10295689449E+03  0.60381482456E+03 -0.19615406674E+03  0.64789409608E+03  0.78088906759E+02 0.  0.
         13    1    5    5    0    0  0.21118803042E+03  0.47074158767E+02  0.69511331433E+02  0.22726237219E+03  0.00000000000E+00 0. -1.
        -14    1    5    5    0    0  0.54881357153E+02 -0.25852151471E+02  0.36716541860E+02  0.70911222982E+02  0.00000000000E+00 0.  1.
         15    1    3    3    0    0 -0.25105311711E+03 -0.37351969405E+03  0.73276001638E+03  0.85993315368E+03  0.17770000000E+01 0. -1.
        -16    1    3    3    0    0 -0.11797316495E+03 -0.25151713781E+03  0.54342652965E+03  0.61032035145E+03  0.00000000000E+00 0.  1.
          2    1    6    6  502    0  0.64795443224E+02  0.32032190296E+03 -0.65003380302E+02  0.33321166011E+03  0.00000000000E+00 0. -1.
         -1    1    6    6    0  502  0.38161451263E+02  0.28349292160E+03 -0.13115068644E+03  0.31468243598E+03  0.00000000000E+00 0.  1.
<mgrwt>
<rscale>  0 0.80887963E+03</rscale>
<asrwt>0</asrwt>
<pdfrwt beam="1">  1        1 0.27712166E+00 0.80887963E+03</pdfrwt>
<pdfrwt beam="2">  1       -2 0.94620065E-01 0.80887963E+03</pdfrwt>
<totfact> 0.34581222E+00</totfact>
</mgrwt>
</event>
<event>
12    3  0.1411168E-007  0.1319340E+04  0.7818608E-02  0.9014367E-01
          1   -1    0    0  501    0  0.00000000000E+00  0.00000000000E+00  0.11717882721E+04  0.11717882721E+04  0.00000000000E+00 0. -1.
         -2   -1    0    0    0  501 -0.00000000000E+00 -0.00000000000E+00 -0.16601882979E+04  0.16601882979E+04  0.00000000000E+00 0.  1.
        -24    2    1    2    0    0 -0.12923522015E+04  0.19753731656E+03 -0.47562535243E+03  0.13934326574E+04  0.78992978752E+02 0.  0.
    5000000    2    1    2    0    0  0.12923522015E+04 -0.19753731656E+03 -0.12774673394E+02  0.14385439125E+04  0.60004182501E+03 0.  0.
        -24    2    4    4    0    0  0.10989274754E+04 -0.10083781665E+03 -0.22068952865E+03  0.11281932850E+04  0.79412585173E+02 0.  0.
         24    2    4    4    0    0  0.19342472611E+03 -0.96699499914E+02  0.20791485525E+03  0.31035062756E+03  0.79529912856E+02 0.  0.
         13    1    5    5    0    0  0.26623201052E+03 -0.10588028566E+02 -0.21811828583E+02  0.26733377198E+03  0.00000000000E+00 0. -1.
        -14    1    5    5    0    0  0.83269546492E+03 -0.90249788080E+02 -0.19887770006E+03  0.86085951300E+03  0.00000000000E+00 0.  1.
         15    1    3    3    0    0 -0.80697524306E+03  0.12250895419E+03 -0.25605178893E+03  0.85544325534E+03  0.17770000000E+01 0. -1.
        -16    1    3    3    0    0 -0.48537695849E+03  0.75028362367E+02 -0.21957356350E+03  0.53798940210E+03  0.00000000000E+00 0.  1.
          4    1    6    6  502    0  0.16700506695E+03 -0.51182314549E+02  0.13672831108E+03  0.22182189423E+03  0.00000000000E+00 0. -1.
         -3    1    6    6    0  502  0.26419659160E+02 -0.45517185366E+02  0.71186544178E+02  0.88528733334E+02  0.00000000000E+00 0.  1.
<mgrwt>
<rscale>  0 0.13193402E+04</rscale>
<asrwt>0</asrwt>
<pdfrwt beam="1">  1        1 0.18027512E+00 0.13193402E+04</pdfrwt>
<pdfrwt beam="2">  1       -2 0.25541358E+00 0.13193402E+04</pdfrwt>
<totfact> 0.56348214E-01</totfact>
</mgrwt>
</event>
<event>
12    3  0.1176505E-007  0.9981886E+03  0.7818608E-02  0.9310534E-01
         -4   -1    0    0    0  501 -0.00000000000E+00  0.00000000000E+00  0.51134148081E+03  0.51134148081E+03  0.00000000000E+00 0.  1.
          3   -1    0    0  501    0  0.00000000000E+00 -0.00000000000E+00 -0.21331774480E+04  0.21331774480E+04  0.00000000000E+00 0. -1.
        -24    2    1    2    0    0  0.48650552544E+03 -0.78934479769E+03 -0.10422138354E+04  0.13971890644E+04  0.78579686855E+02 0.  0.
    5000000    2    1    2    0    0 -0.48650552544E+03  0.78934479769E+03 -0.57962213183E+03  0.12473298644E+04  0.60009760787E+03 0.  0.
        -24    2    4    4    0    0 -0.58358013859E+03  0.57019032147E+03 -0.56120361499E+03  0.99347607126E+03  0.79764815780E+02 0.  0.
         24    2    4    4    0    0  0.97074613147E+02  0.21915447621E+03 -0.18418516841E+02  0.25385379313E+03  0.81549626376E+02 0.  0.
         13    1    5    5    0    0 -0.79412229435E+02  0.10147327489E+03 -0.11823102846E+03  0.17487625279E+03  0.00000000000E+00 0. -1.
        -14    1    5    5    0    0 -0.50416790915E+03  0.46871704659E+03 -0.44297258652E+03  0.81859981847E+03  0.00000000000E+00 0.  1.
         15    1    3    3    0    0  0.28235332259E+03 -0.45500563113E+03 -0.65952987364E+03  0.84955066658E+03  0.17770000000E+01 0. -1.
        -16    1    3    3    0    0  0.20415220285E+03 -0.33433916656E+03 -0.38268396171E+03  0.54763839783E+03  0.00000000000E+00 0.  1.
          4    1    6    6  502    0  0.84584508978E+02  0.95336999567E+02 -0.22104526509E+02  0.12935336384E+03  0.00000000000E+00 0. -1.
         -3    1    6    6    0  502  0.12490104168E+02  0.12381747665E+03  0.36860096677E+01  0.12450042929E+03  0.00000000000E+00 0.  1.
<mgrwt>
<rscale>  0 0.99818860E+03</rscale>
<asrwt>0</asrwt>
<pdfrwt beam="1">  1        3 0.32818114E+00 0.99818860E+03</pdfrwt>
<pdfrwt beam="2">  1       -4 0.78667921E-01 0.99818860E+03</pdfrwt>
<totfact> 0.87919633E-02</totfact>
</mgrwt>
</event>
<event>
12    3  0.1176505E-007  0.9196748E+03  0.7818608E-02  0.9401316E-01
          1   -1    0    0  501    0  0.00000000000E+00  0.00000000000E+00  0.15174389660E+04  0.15174389660E+04  0.00000000000E+00 0. -1.
         -2   -1    0    0    0  501 -0.00000000000E+00 -0.00000000000E+00 -0.57107115430E+03  0.57107115430E+03  0.00000000000E+00 0.  1.
        -24    2    1    2    0    0  0.69706310455E+03 -0.45445275938E+03  0.43454998774E+03  0.94205228105E+03  0.78768814668E+02 0.  0.
    5000000    2    1    2    0    0 -0.69706310455E+03  0.45445275938E+03  0.51181782401E+03  0.11464578393E+04  0.59998650822E+03 0.  0.
        -24    2    4    4    0    0  0.54922131343E+02 -0.36348995790E+02  0.93611352151E+02  0.15234622309E+03  0.10054151597E+03 0.  0.
         24    2    4    4    0    0 -0.75198523590E+03  0.49080175517E+03  0.41820647186E+03  0.99411161619E+03  0.83624723940E+02 0.  0.
         11    1    5    5    0    0 -0.20234998493E+02  0.29391855857E+01  0.55920009444E+02  0.59541090284E+02  0.00000000000E+00 0. -1.
        -12    1    5    5    0    0  0.75157129836E+02 -0.39288181376E+02  0.37691342706E+02  0.92805132811E+02  0.00000000000E+00 0.  1.
         15    1    3    3    0    0  0.23574570936E+03 -0.14613688600E+03  0.18667875545E+03  0.33434135909E+03  0.17770000000E+01 0. -1.
        -16    1    3    3    0    0  0.46131739519E+03 -0.30831587337E+03  0.24787123229E+03  0.60771092197E+03  0.00000000000E+00 0.  1.
          2    1    6    6  502    0 -0.33868435175E+03  0.27091737417E+03  0.20262255043E+03  0.47870576735E+03  0.00000000000E+00 0. -1.
         -1    1    6    6    0  502 -0.41330088414E+03  0.21988438100E+03  0.21558392143E+03  0.51540584884E+03  0.00000000000E+00 0.  1.
<mgrwt>
<rscale>  0 0.91967483E+03</rscale>
<asrwt>0</asrwt>
<pdfrwt beam="1">  1        1 0.23345215E+00 0.91967483E+03</pdfrwt>
<pdfrwt beam="2">  1       -2 0.87857101E-01 0.91967483E+03</pdfrwt>
<totfact> 0.63040406E+00</totfact>
</mgrwt>
</event>
<event>
12    3  0.1176505E-007  0.2948413E+03  0.7818608E-02  0.1087848E+00
         -4   -1    0    0    0  501 -0.00000000000E+00  0.00000000000E+00  0.17922509719E+04  0.17922509719E+04  0.00000000000E+00 0.  1.
          3   -1    0    0  501    0  0.00000000000E+00 -0.00000000000E+00 -0.17582211015E+03  0.17582211015E+03  0.00000000000E+00 0. -1.
        -24    2    1    2    0    0 -0.16081415059E+03 -0.18505278490E+03  0.11262111526E+04  0.11554388918E+04  0.81127975161E+02 0.  0.
    5000000    2    1    2    0    0  0.16081415059E+03  0.18505278490E+03  0.49021770920E+03  0.81263419024E+03  0.59996266592E+03 0.  0.
        -24    2    4    4    0    0  0.93775845793E+01  0.10401311491E+03 -0.10726429400E+03  0.18595168678E+03  0.11029838568E+03 0.  0.
         24    2    4    4    0    0  0.15143656601E+03  0.81039669996E+02  0.59748200320E+03  0.62668250346E+03  0.79030085152E+02 0.  0.
         11    1    5    5    0    0 -0.25682390497E+02  0.10428772440E+03 -0.49230118660E+02  0.11814871657E+03  0.00000000000E+00 0. -1.
        -12    1    5    5    0    0  0.35059975076E+02 -0.27460949611E+00 -0.58034175337E+02  0.67802970213E+02  0.00000000000E+00 0.  1.
         15    1    3    3    0    0 -0.75875490174E+02 -0.14641257101E+03  0.72402315977E+03  0.74256745456E+03  0.17770000000E+01 0. -1.
        -16    1    3    3    0    0 -0.84938660411E+02 -0.38640213896E+02  0.40218799280E+03  0.41287143728E+03  0.00000000000E+00 0.  1.
          4    1    6    6  502    0  0.96622324376E+02  0.91629181036E+02  0.42910617337E+03  0.44929265341E+03  0.00000000000E+00 0. -1.
         -3    1    6    6    0  502  0.54814241630E+02 -0.10589511040E+02  0.16837582983E+03  0.17738985005E+03  0.00000000000E+00 0.  1.
<mgrwt>
<rscale>  0 0.29484130E+03</rscale>
<asrwt>0</asrwt>
<pdfrwt beam="1">  1        3 0.27049557E-01 0.29484130E+03</pdfrwt>
<pdfrwt beam="2">  1       -4 0.27573091E+00 0.29484130E+03</pdfrwt>
<totfact> 0.13773330E+00</totfact>
</mgrwt>
</event>
<event>
12    3  0.1176505E-007  0.1226528E+04  0.7818608E-02  0.9089948E-01
         -2   -1    0    0    0  501 -0.00000000000E+00  0.00000000000E+00  0.83335636580E+03  0.83335636580E+03  0.00000000000E+00 0.  1.
          1   -1    0    0  501    0  0.00000000000E+00 -0.00000000000E+00 -0.18206860573E+04  0.18206860573E+04  0.00000000000E+00 0. -1.
        -24    2    1    2    0    0 -0.11055911324E+03  0.11516129085E+04 -0.43298010168E+03  0.12378814001E+04  0.80268197861E+02 0.  0.
    5000000    2    1    2    0    0  0.11055911324E+03 -0.11516129085E+04 -0.55434958979E+03  0.14161610230E+04  0.59981077580E+03 0.  0.
        -24    2    4    4    0    0  0.63667872604E+02  0.33310441837E+02 -0.60710611057E+01  0.10745021340E+03  0.79658690928E+02 0.  0.
         24    2    4    4    0    0  0.46891240637E+02 -0.11849233504E+04 -0.54827852868E+03  0.13087108096E+04  0.76632261187E+02 0.  0.
         11    1    5    5    0    0  0.82412268205E+02  0.24311004001E+02 -0.92346343951E+01  0.86418084558E+02  0.00000000000E+00 0. -1.
        -12    1    5    5    0    0 -0.18744395602E+02  0.89994378366E+01  0.31635732894E+01  0.21032128846E+02  0.00000000000E+00 0.  1.
         15    1    3    3    0    0  0.26921208853E+01  0.35890890035E+03 -0.13134959174E+03  0.38220245845E+03  0.17770000000E+01 0. -1.
        -16    1    3    3    0    0 -0.11325123413E+03  0.79270400818E+03 -0.30163050994E+03  0.85567894162E+03  0.00000000000E+00 0.  1.
          4    1    6    6  502    0  0.43499536049E+02 -0.54570268631E+03 -0.21851034668E+03  0.58943227184E+03  0.00000000000E+00 0. -1.
         -3    1    6    6    0  502  0.33917045877E+01 -0.63922066405E+03 -0.32976818200E+03  0.71927853775E+03  0.00000000000E+00 0.  1.
<mgrwt>
<rscale>  0 0.12265280E+04</rscale>
<asrwt>0</asrwt>
<pdfrwt beam="1">  1        1 0.28010554E+00 0.12265280E+04</pdfrwt>
<pdfrwt beam="2">  1       -2 0.12820867E+00 0.12265280E+04</pdfrwt>
<totfact> 0.15187180E+00</totfact>
</mgrwt>
</event>
<event>
12    3  0.1176505E-007  0.5829123E+03  0.7818608E-02  0.9941506E-01
          1   -1    0    0  501    0  0.00000000000E+00  0.00000000000E+00  0.59383034811E+03  0.59383034811E+03  0.00000000000E+00 0. -1.
         -2   -1    0    0    0  501 -0.00000000000E+00 -0.00000000000E+00 -0.12640392178E+04  0.12640392178E+04  0.00000000000E+00 0.  1.
        -24    2    1    2    0    0 -0.42648426535E+03 -0.72401469124E+01  0.37914264386E+03  0.57609509412E+03  0.78709368895E+02 0.  0.
    5000000    2    1    2    0    0  0.42648426535E+03  0.72401469124E+01 -0.10493515136E+04  0.12817744718E+04  0.59988828062E+03 0.  0.
        -24    2    4    4    0    0  0.32033018027E+03 -0.27130972686E+03 -0.59521170953E+03  0.73286531954E+03  0.81204711347E+02 0.  0.
         24    2    4    4    0    0  0.10615408508E+03  0.27854987377E+03 -0.45413980406E+03  0.54890915229E+03  0.78737372780E+02 0.  0.
         11    1    5    5    0    0  0.46996033147E+02 -0.81049825038E+02 -0.11224292192E+03  0.14620593282E+03  0.00000000000E+00 0. -1.
        -12    1    5    5    0    0  0.27333414713E+03 -0.19025990182E+03 -0.48296878761E+03  0.58665938672E+03  0.00000000000E+00 0.  1.
         15    1    3    3    0    0 -0.97922406392E+01 -0.10594739541E+02  0.26396379507E+02  0.30134084734E+02  0.17770000000E+01 0. -1.
        -16    1    3    3    0    0 -0.41669202471E+03  0.33545926288E+01  0.35274626435E+03  0.54596100938E+03  0.00000000000E+00 0.  1.
          4    1    6    6  502    0  0.11691768727E+03  0.22858514553E+03 -0.36720933532E+03  0.44806652441E+03  0.00000000000E+00 0. -1.
         -3    1    6    6    0  502 -0.10763602192E+02  0.49964728237E+02 -0.86930468744E+02  0.10084262787E+03  0.00000000000E+00 0.  1.
<mgrwt>
<rscale>  0 0.58291231E+03</rscale>
<asrwt>0</asrwt>
<pdfrwt beam="1">  1        1 0.91358515E-01 0.58291231E+03</pdfrwt>
<pdfrwt beam="2">  1       -2 0.19446757E+00 0.58291231E+03</pdfrwt>
<totfact> 0.46257216E+00</totfact>
</mgrwt>
</event>
<event>
12    3  0.1176505E-007  0.3978143E+03  0.7818608E-02  0.1044539E+00
          1   -1    0    0  501    0  0.00000000000E+00  0.00000000000E+00  0.52759131618E+03  0.52759131618E+03  0.00000000000E+00 0. -1.
         -4   -1    0    0    0  501 -0.00000000000E+00 -0.00000000000E+00 -0.33045659624E+03  0.33045659624E+03  0.00000000000E+00 0.  1.
        -24    2    1    2    0    0 -0.84863197662E+02  0.16550683374E+03  0.13608689166E+02  0.20314809547E+03  0.80558537365E+02 0.  0.
    5000000    2    1    2    0    0  0.84863197662E+02 -0.16550683374E+03  0.18352603077E+03  0.65489981695E+03  0.60051452267E+03 0.  0.
        -24    2    4    4    0    0  0.53164017374E+02  0.21387059329E+03  0.32831115113E+02  0.23780550856E+03  0.83105561570E+02 0.  0.
         24    2    4    4    0    0  0.31699180288E+02 -0.37937742703E+03  0.15069491566E+03  0.41709430839E+03  0.79540142800E+02 0.  0.
         13    1    5    5    0    0  0.88052448130E+01  0.13682108158E+03  0.52390742931E+02  0.14677305831E+03  0.00000000000E+00 0. -1.
        -14    1    5    5    0    0  0.44358772561E+02  0.77049511710E+02 -0.19559627818E+02  0.91032450249E+02  0.00000000000E+00 0.  1.
         15    1    3    3    0    0 -0.25751771955E+02  0.70342130614E+02  0.44230400651E+02  0.87009511945E+02  0.17770000000E+01 0. -1.
        -16    1    3    3    0    0 -0.59111425707E+02  0.95164703121E+02 -0.30621711485E+02  0.11613858353E+03  0.00000000000E+00 0.  1.
          4    1    6    6  502    0  0.16614374634E+02 -0.45433843016E+02  0.46111464479E+02  0.66832168093E+02  0.00000000000E+00 0. -1.
         -3    1    6    6    0  502  0.15084805654E+02 -0.33394358401E+03  0.10458345118E+03  0.35026214029E+03  0.00000000000E+00 0.  1.
<mgrwt>
<rscale>  0 0.39781431E+03</rscale>
<asrwt>0</asrwt>
<pdfrwt beam="1">  1        1 0.81167895E-01 0.39781431E+03</pdfrwt>
<pdfrwt beam="2">  1       -4 0.50839477E-01 0.39781431E+03</pdfrwt>
<totfact> 0.74294840E+01</totfact>
</mgrwt>
</event>
<event>
12    3  0.1176505E-007  0.1216472E+04  0.7818608E-02  0.9098560E-01
          1   -1    0    0  501    0  0.00000000000E+00  0.00000000000E+00  0.14137987588E+04  0.14137987588E+04  0.00000000000E+00 0. -1.
         -2   -1    0    0    0  501 -0.00000000000E+00 -0.00000000000E+00 -0.11294328479E+04  0.11294328479E+04  0.00000000000E+00 0.  1.
        -24    2    1    2    0    0 -0.11884686331E+04  0.28202568115E+02  0.20875331476E+03  0.12094377016E+04  0.76866969316E+02 0.  0.
    5000000    2    1    2    0    0  0.11884686331E+04 -0.28202568115E+02  0.75612596073E+02  0.13337939051E+04  0.60002986589E+03 0.  0.
        -24    2    4    4    0    0  0.77106546926E+03  0.14634817952E+03  0.27217612806E+03  0.83464986986E+03  0.81245387854E+02 0.  0.
         24    2    4    4    0    0  0.41740316383E+03 -0.17455074764E+03 -0.19656353199E+03  0.49914403525E+03  0.76250778021E+02 0.  0.
         13    1    5    5    0    0  0.11938056565E+03  0.12994375886E+02  0.13134578078E+02  0.12080186423E+03  0.00000000000E+00 0. -1.
        -14    1    5    5    0    0  0.65168490360E+03  0.13335380364E+03  0.25904154998E+03  0.71384800563E+03  0.00000000000E+00 0.  1.
         15    1    3    3    0    0 -0.14642836545E+03  0.16648610990E+02  0.48035388712E+02  0.15501289867E+03  0.17770000000E+01 0. -1.
        -16    1    3    3    0    0 -0.10420402676E+04  0.11553957125E+02  0.16071792605E+03  0.10544248029E+04  0.00000000000E+00 0.  1.
          4    1    6    6  502    0  0.15898265890E+03 -0.29049391720E+02 -0.56922599476E+02  0.17134624397E+03  0.00000000000E+00 0. -1.
         -3    1    6    6    0  502  0.25842050493E+03 -0.14550135592E+03 -0.13964093251E+03  0.32779779128E+03  0.00000000000E+00 0.  1.
<mgrwt>
<rscale>  0 0.12164715E+04</rscale>
<asrwt>0</asrwt>
<pdfrwt beam="1">  1        1 0.21750750E+00 0.12164715E+04</pdfrwt>
<pdfrwt beam="2">  1       -2 0.17375890E+00 0.12164715E+04</pdfrwt>
<totfact> 0.12849741E+00</totfact>
</mgrwt>
</event>
<event>
12    3  0.1176505E-007  0.1047664E+04  0.7818608E-02  0.9257759E-01
          1   -1    0    0  501    0  0.00000000000E+00  0.00000000000E+00  0.26984735598E+04  0.26984735598E+04  0.00000000000E+00 0. -1.
         -2   -1    0    0    0  501 -0.00000000000E+00 -0.00000000000E+00 -0.41747011868E+03  0.41747011868E+03  0.00000000000E+00 0.  1.
        -24    2    1    2    0    0 -0.18821943591E+03 -0.95116324850E+03  0.11987661463E+04  0.15438796591E+04  0.79912745933E+02 0.  0.
    5000000    2    1    2    0    0  0.18821943591E+03  0.95116324850E+03  0.10822372948E+04  0.15720640194E+04  0.60000803103E+03 0.  0.
        -24    2    4    4    0    0  0.18881116269E+03  0.31558652291E+02  0.12355888580E+03  0.24132765208E+03  0.79540138992E+02 0.  0.
         24    2    4    4    0    0 -0.59172678282E+00  0.91960459621E+03  0.95867840903E+03  0.13307363673E+04  0.78243362280E+02 0.  0.
         11    1    5    5    0    0  0.10179915706E+03 -0.19576380649E+02  0.43146971794E+02  0.11228519151E+03  0.00000000000E+00 0. -1.
        -12    1    5    5    0    0  0.87012005627E+02  0.51135032941E+02  0.80411914002E+02  0.12904246057E+03  0.00000000000E+00 0.  1.
         15    1    3    3    0    0 -0.14925543451E+03 -0.83489078906E+03  0.10794494364E+04  0.13727833251E+04  0.17770000000E+01 0. -1.
        -16    1    3    3    0    0 -0.38964001392E+02 -0.11627245944E+03  0.11931670991E+03  0.17109633396E+03  0.00000000000E+00 0.  1.
          4    1    6    6  502    0 -0.13482179804E+02  0.45961178738E+03  0.53225810180E+03  0.70336580184E+03  0.00000000000E+00 0. -1.
         -3    1    6    6    0  502  0.12890453021E+02  0.45999280883E+03  0.42642030723E+03  0.62737056544E+03  0.00000000000E+00 0.  1.
<mgrwt>
<rscale>  0 0.10476644E+04</rscale>
<asrwt>0</asrwt>
<pdfrwt beam="1">  1        1 0.41514977E+00 0.10476644E+04</pdfrwt>
<pdfrwt beam="2">  1       -2 0.64226174E-01 0.10476644E+04</pdfrwt>
<totfact> 0.19595196E+00</totfact>
</mgrwt>
</event>
<event>
12    3  0.1176505E-007  0.1091003E+04  0.7818608E-02  0.9214005E-01
         -2   -1    0    0    0  501 -0.00000000000E+00  0.00000000000E+00  0.13191989750E+04  0.13191989750E+04  0.00000000000E+00 0.  1.
          1   -1    0    0  501    0  0.00000000000E+00 -0.00000000000E+00 -0.11734737424E+04  0.11734737424E+04  0.00000000000E+00 0. -1.
        -24    2    1    2    0    0  0.95819771526E+03  0.34774441091E+03  0.64499602232E+03  0.12087890262E+04  0.77987205020E+02 0.  0.
    5000000    2    1    2    0    0 -0.95819771526E+03 -0.34774441091E+03 -0.49927078974E+03  0.12838836913E+04  0.60001414516E+03 0.  0.
        -24    2    4    4    0    0 -0.43048331642E+02 -0.22831697568E+03 -0.17781881996E+03  0.30327515534E+03  0.79840383741E+02 0.  0.
         24    2    4    4    0    0 -0.91514938362E+03 -0.11942743522E+03 -0.32145196979E+03  0.98060853594E+03  0.80625214738E+02 0.  0.
         11    1    5    5    0    0  0.10261226420E+02 -0.62334103468E+02 -0.84598457216E+02  0.10558282145E+03  0.00000000000E+00 0. -1.
        -12    1    5    5    0    0 -0.53309558062E+02 -0.16598287221E+03 -0.93220362740E+02  0.19769233389E+03  0.00000000000E+00 0.  1.
         15    1    3    3    0    0  0.78602036800E+02  0.42574262167E+02  0.36658257163E+02  0.96632466259E+02  0.17770000000E+01 0. -1.
        -16    1    3    3    0    0  0.87959567846E+03  0.30517014874E+03  0.60833776516E+03  0.11121565599E+04  0.00000000000E+00 0.  1.
          2    1    6    6  502    0 -0.35440275698E+03 -0.23627298856E+02 -0.15780558869E+03  0.38866716767E+03  0.00000000000E+00 0. -1.
         -1    1    6    6    0  502 -0.56074662664E+03 -0.95800136369E+02 -0.16364638110E+03  0.59194136827E+03  0.00000000000E+00 0.  1.
<mgrwt>
<rscale>  0 0.10910034E+04</rscale>
<asrwt>0</asrwt>
<pdfrwt beam="1">  1        1 0.18053442E+00 0.10910034E+04</pdfrwt>
<pdfrwt beam="2">  1       -2 0.20295369E+00 0.10910034E+04</pdfrwt>
<totfact> 0.12296631E+00</totfact>
</mgrwt>
</event>
<event>
12    3  0.1176505E-007  0.6251368E+03  0.7818608E-02  0.9854585E-01
          1   -1    0    0  501    0  0.00000000000E+00  0.00000000000E+00  0.26389297418E+04  0.26389297418E+04  0.00000000000E+00 0. -1.
         -2   -1    0    0    0  501 -0.00000000000E+00 -0.00000000000E+00 -0.53614006980E+03  0.53614006980E+03  0.00000000000E+00 0.  1.
        -24    2    1    2    0    0  0.55519291698E+03  0.27636751695E+03  0.22184094207E+04  0.23045000789E+04  0.69007796366E+02 0.  0.
    5000000    2    1    2    0    0 -0.55519291698E+03 -0.27636751695E+03 -0.11561974875E+03  0.87056973272E+03  0.59992128962E+03 0.  0.
        -24    2    4    4    0    0 -0.25781258744E+03 -0.10116848960E+03  0.23600253063E+03  0.37152415282E+03  0.75037378266E+02 0.  0.
         24    2    4    4    0    0 -0.29738032954E+03 -0.17519902735E+03 -0.35162227937E+03  0.49904557990E+03  0.79237010849E+02 0.  0.
         11    1    5    5    0    0 -0.70835308362E+02 -0.35431010254E+02  0.27471111173E+02  0.83831135907E+02  0.00000000000E+00 0. -1.
        -12    1    5    5    0    0 -0.18697727908E+03 -0.65737479348E+02  0.20853141945E+03  0.28769301691E+03  0.00000000000E+00 0.  1.
         15    1    3    3    0    0  0.19553473907E+03  0.87563589902E+02  0.88667946645E+03  0.91219781321E+03  0.17770000000E+01 0. -1.
        -16    1    3    3    0    0  0.35965817791E+03  0.18880392705E+03  0.13317299543E+04  0.13923022657E+04  0.00000000000E+00 0.  1.
          2    1    6    6  502    0 -0.11266810156E+03 -0.27654988298E+02 -0.93285492445E+02  0.14886598868E+03  0.00000000000E+00 0. -1.
         -3    1    6    6    0  502 -0.18471222798E+03 -0.14754403905E+03 -0.25833678693E+03  0.35017959122E+03  0.00000000000E+00 0.  1.
<mgrwt>
<rscale>  0 0.62513683E+03</rscale>
<asrwt>0</asrwt>
<pdfrwt beam="1">  1        1 0.40598918E+00 0.62513683E+03</pdfrwt>
<pdfrwt beam="2">  1       -2 0.82483089E-01 0.62513683E+03</pdfrwt>
<totfact> 0.13385646E+00</totfact>
</mgrwt>
</event>
<event>
12    3  0.1176505E-007  0.6094497E+03  0.7818608E-02  0.9885993E-01
         -2   -1    0    0    0  501 -0.00000000000E+00  0.00000000000E+00  0.65637484655E+03  0.65637484655E+03  0.00000000000E+00 0.  1.
          1   -1    0    0  501    0  0.00000000000E+00 -0.00000000000E+00 -0.71449269663E+03  0.71449269663E+03  0.00000000000E+00 0. -1.
        -24    2    1    2    0    0 -0.30634506322E+03  0.35528619371E+03 -0.31072247278E+03  0.56848179005E+03  0.80916706118E+02 0.  0.
    5000000    2    1    2    0    0  0.30634506322E+03 -0.35528619371E+03  0.25260462271E+03  0.80238575313E+03  0.59994851797E+03 0.  0.
        -24    2    4    4    0    0  0.41598920469E+03 -0.56700406674E+02  0.19363375509E+03  0.46917012408E+03  0.79778566599E+02 0.  0.
         24    2    4    4    0    0 -0.10964414147E+03 -0.29858578704E+03  0.58970867616E+02  0.33321562905E+03  0.79873539004E+02 0.  0.
         11    1    5    5    0    0  0.17046273443E+03  0.10346431493E+02  0.55401048254E+02  0.17953793087E+03  0.00000000000E+00 0. -1.
        -12    1    5    5    0    0  0.24552647026E+03 -0.67046838167E+02  0.13823270684E+03  0.28963219321E+03  0.00000000000E+00 0.  1.
         15    1    3    3    0    0 -0.10346008611E+03  0.13562536108E+03 -0.15887476752E+03  0.23311494475E+03  0.17770000000E+01 0. -1.
        -16    1    3    3    0    0 -0.20288497711E+03  0.21966083264E+03 -0.15184770526E+03  0.33536684530E+03  0.00000000000E+00 0.  1.
          4    1    6    6  502    0 -0.54869120888E+02 -0.22876078449E+03  0.19401023223E+02  0.23604769994E+03  0.00000000000E+00 0. -1.
         -3    1    6    6    0  502 -0.54775020582E+02 -0.69825002554E+02  0.39569844393E+02  0.97167929106E+02  0.00000000000E+00 0.  1.
<mgrwt>
<rscale>  0 0.60944966E+03</rscale>
<asrwt>0</asrwt>
<pdfrwt beam="1">  1        1 0.10992195E+00 0.60944966E+03</pdfrwt>
<pdfrwt beam="2">  1       -2 0.10098075E+00 0.60944966E+03</pdfrwt>
<totfact> 0.19325342E+01</totfact>
</mgrwt>
</event>
<event>
12    3  0.1176505E-007  0.1034166E+04  0.7818608E-02  0.9271846E-01
         -2   -1    0    0    0  501 -0.00000000000E+00  0.00000000000E+00  0.50474478214E+03  0.50474478214E+03  0.00000000000E+00 0.  1.
          1   -1    0    0  501    0  0.00000000000E+00 -0.00000000000E+00 -0.26074389116E+04  0.26074389116E+04  0.00000000000E+00 0. -1.
        -24    2    1    2    0    0 -0.61507869211E+03 -0.73692889351E+03 -0.34848444290E+03  0.10244132491E+04  0.81210261193E+02 0.  0.
    5000000    2    1    2    0    0  0.61507869211E+03  0.73692889351E+03 -0.17542096865E+04  0.20877704446E+04  0.60012316511E+03 0.  0.
        -24    2    4    4    0    0  0.54820780077E+03  0.24487148455E+03 -0.74548534938E+03  0.96061759718E+03  0.80894530774E+02 0.  0.
         24    2    4    4    0    0  0.66870891337E+02  0.49205740895E+03 -0.10087243371E+04  0.11271528474E+04  0.79727932250E+02 0.  0.
         13    1    5    5    0    0  0.28502309981E+03  0.88544158519E+02 -0.33702622714E+03  0.45018319961E+03  0.00000000000E+00 0. -1.
        -14    1    5    5    0    0  0.26318470096E+03  0.15632732603E+03 -0.40845912224E+03  0.51043439757E+03  0.00000000000E+00 0.  1.
         15    1    3    3    0    0 -0.22930387244E+03 -0.24335388556E+03 -0.86429902299E+02  0.34536164418E+03  0.17770000000E+01 0. -1.
        -16    1    3    3    0    0 -0.38577481967E+03 -0.49357500794E+03 -0.26205454060E+03  0.67905160496E+03  0.00000000000E+00 0.  1.
          2    1    6    6  502    0  0.83894507468E+02  0.35240417356E+03 -0.72723586814E+03  0.81246476714E+03  0.00000000000E+00 0. -1.
         -1    1    6    6    0  502 -0.17023616131E+02  0.13965323539E+03 -0.28148846900E+03  0.31468808024E+03  0.00000000000E+00 0.  1.
<mgrwt>
<rscale>  0 0.10341661E+04</rscale>
<asrwt>0</asrwt>
<pdfrwt beam="1">  1        1 0.40114444E+00 0.10341661E+04</pdfrwt>
<pdfrwt beam="2">  1       -2 0.77653045E-01 0.10341661E+04</pdfrwt>
<totfact> 0.14967660E+00</totfact>
</mgrwt>
</event>
<event>
12    3  0.1176505E-007  0.4679618E+03  0.7818608E-02  0.1022497E+00
          1   -1    0    0  501    0  0.00000000000E+00  0.00000000000E+00  0.52484283012E+03  0.52484283012E+03  0.00000000000E+00 0. -1.
         -2   -1    0    0    0  501 -0.00000000000E+00 -0.00000000000E+00 -0.43838882437E+03  0.43838882437E+03  0.00000000000E+00 0.  1.
        -24    2    1    2    0    0 -0.21824262003E+03  0.17291719151E+03 -0.29551264185E+02  0.29142662643E+03  0.80783693039E+02 0.  0.
    5000000    2    1    2    0    0  0.21824262003E+03 -0.17291719151E+03  0.11600526994E+03  0.67180502806E+03  0.60027874921E+03 0.  0.
        -24    2    4    4    0    0 -0.91041591737E+02  0.15430572059E+03  0.81627637418E+02  0.21305825397E+03  0.81436610695E+02 0.  0.
         24    2    4    4    0    0  0.30928421177E+03 -0.32722291210E+03  0.34377632521E+02  0.45874677408E+03  0.80840727746E+02 0.  0.
         13    1    5    5    0    0 -0.61515653387E+01  0.74315160826E+02  0.56969025871E+02  0.93840581804E+02  0.00000000000E+00 0. -1.
        -14    1    5    5    0    0 -0.84890026398E+02  0.79990559768E+02  0.24658611548E+02  0.11921767217E+03  0.00000000000E+00 0.  1.
         15    1    3    3    0    0 -0.17657664672E+03  0.98390413117E+02 -0.35695554512E+01  0.20217785491E+03  0.17770000000E+01 0. -1.
        -16    1    3    3    0    0 -0.41665973307E+02  0.74526778390E+02 -0.25981708734E+02  0.89248771519E+02  0.00000000000E+00 0.  1.
          4    1    6    6  502    0  0.19093110850E+03 -0.14435760188E+03  0.25895817482E+02  0.24075796722E+03  0.00000000000E+00 0. -1.
         -3    1    6    6    0  502  0.11835310327E+03 -0.18286531022E+03  0.84818150390E+01  0.21798880687E+03  0.00000000000E+00 0.  1.
<mgrwt>
<rscale>  0 0.46796175E+03</rscale>
<asrwt>0</asrwt>
<pdfrwt beam="1">  1        1 0.80745051E-01 0.46796175E+03</pdfrwt>
<pdfrwt beam="2">  1       -2 0.67444434E-01 0.46796175E+03</pdfrwt>
<totfact> 0.75911347E+01</totfact>
</mgrwt>
</event>
<event>
12    3  0.1176505E-007  0.5711080E+03  0.7818608E-02  0.9967230E-01
          1   -1    0    0  501    0  0.00000000000E+00  0.00000000000E+00  0.97083300585E+03  0.97083300585E+03  0.00000000000E+00 0. -1.
         -2   -1    0    0    0  501 -0.00000000000E+00 -0.00000000000E+00 -0.46670956287E+03  0.46670956287E+03  0.00000000000E+00 0.  1.
        -24    2    1    2    0    0 -0.49517244182E+02  0.48793855301E+03 -0.27711031769E+02  0.49771215032E+03  0.80084295034E+02 0.  0.
    5000000    2    1    2    0    0  0.49517244182E+02 -0.48793855301E+03  0.53183447475E+03  0.93983041840E+03  0.59991442543E+03 0.  0.
        -24    2    4    4    0    0 -0.16647805619E+03 -0.11258807219E+03 -0.43427666680E+02  0.21548850554E+03  0.64485010600E+02 0.  0.
         24    2    4    4    0    0  0.21599530037E+03 -0.37535048082E+03  0.57526214143E+03  0.72434191286E+03  0.78757362421E+02 0.  0.
         13    1    5    5    0    0 -0.42475422627E+01 -0.27363143047E+02 -0.32409240035E+01  0.27879863720E+02  0.00000000000E+00 0. -1.
        -14    1    5    5    0    0 -0.16223051393E+03 -0.85224929145E+02 -0.40186742676E+02  0.18760864182E+03  0.00000000000E+00 0.  1.
         15    1    3    3    0    0 -0.10912397263E+02  0.38796343650E+03 -0.49525103425E+01  0.38815253903E+03  0.17770000000E+01 0. -1.
        -16    1    3    3    0    0 -0.38604846919E+02  0.99975116512E+02 -0.22758521427E+02  0.10955961128E+03  0.00000000000E+00 0.  1.
          4    1    6    6  502    0  0.34204520632E+01 -0.31787343477E+02  0.20205611814E+02  0.37820648413E+02  0.00000000000E+00 0. -1.
         -3    1    6    6    0  502  0.21257484831E+03 -0.34356313734E+03  0.55505652962E+03  0.68652126445E+03  0.00000000000E+00 0.  1.
<mgrwt>
<rscale>  0 0.57110796E+03</rscale>
<asrwt>0</asrwt>
<pdfrwt beam="1">  1        1 0.14935892E+00 0.57110796E+03</pdfrwt>
<pdfrwt beam="2">  1       -2 0.71801471E-01 0.57110796E+03</pdfrwt>
<totfact> 0.25666910E+01</totfact>
</mgrwt>
</event>
<event>
12    3  0.1176505E-007  0.3336665E+03  0.7818608E-02  0.1069526E+00
          1   -1    0    0  501    0  0.00000000000E+00  0.00000000000E+00  0.55260181804E+03  0.55260181804E+03  0.00000000000E+00 0. -1.
         -2   -1    0    0    0  501 -0.00000000000E+00 -0.00000000000E+00 -0.28520903766E+03  0.28520903766E+03  0.00000000000E+00 0.  1.
        -24    2    1    2    0    0 -0.37743492596E+02 -0.15048040764E+03  0.66899891117E+02  0.18656517368E+03  0.79133079555E+02 0.  0.
    5000000    2    1    2    0    0  0.37743492596E+02  0.15048040764E+03  0.20049288926E+03  0.65124568202E+03  0.59987883392E+03 0.  0.
        -24    2    4    4    0    0  0.10501758456E+03 -0.14690356021E+03 -0.92956693238E+02  0.22194967178E+03  0.89506206006E+02 0.  0.
         24    2    4    4    0    0 -0.67274091967E+02  0.29738396786E+03  0.29344958250E+03  0.42929601024E+03  0.72245270788E+02 0.  0.
         11    1    5    5    0    0  0.62302510049E+02 -0.13816953192E+03 -0.93980333352E+02  0.17833879378E+03  0.00000000000E+00 0. -1.
        -12    1    5    5    0    0  0.42715074514E+02 -0.87340282972E+01  0.10236401139E+01  0.43610878002E+02  0.00000000000E+00 0.  1.
         15    1    3    3    0    0 -0.77313943889E+00 -0.84521677722E+02  0.71623824417E+02  0.11080452023E+03  0.17770000000E+01 0. -1.
        -16    1    3    3    0    0 -0.36970353157E+02 -0.65958729922E+02 -0.47239332999E+01  0.75760653451E+02  0.00000000000E+00 0.  1.
          4    1    6    6  502    0 -0.38160677064E+01  0.16660407480E+03  0.13693695227E+03  0.21569239442E+03  0.00000000000E+00 0. -1.
         -3    1    6    6    0  502 -0.63458024260E+02  0.13077989305E+03  0.15651263023E+03  0.21360361582E+03  0.00000000000E+00 0.  1.
<mgrwt>
<rscale>  0 0.33366649E+03</rscale>
<asrwt>0</asrwt>
<pdfrwt beam="1">  1        1 0.85015664E-01 0.33366649E+03</pdfrwt>
<pdfrwt beam="2">  1       -2 0.43878314E-01 0.33366649E+03</pdfrwt>
<totfact> 0.17302935E+02</totfact>
</mgrwt>
</event>
<event>
12    3  0.1176505E-007  0.8127750E+03  0.7818608E-02  0.9541708E-01
         -2   -1    0    0    0  501 -0.00000000000E+00  0.00000000000E+00  0.79753540340E+03  0.79753540340E+03  0.00000000000E+00 0.  1.
          1   -1    0    0  501    0  0.00000000000E+00 -0.00000000000E+00 -0.91627658089E+03  0.91627658089E+03  0.00000000000E+00 0. -1.
        -24    2    1    2    0    0  0.37134475067E+03 -0.64296597059E+03  0.31260438465E+02  0.74751835347E+03  0.80649306128E+02 0.  0.
    5000000    2    1    2    0    0 -0.37134475067E+03  0.64296597059E+03 -0.15000161596E+03  0.96629363082E+03  0.59993394052E+03 0.  0.
        -24    2    4    4    0    0 -0.22581130856E+03  0.68418884191E+03 -0.24573962410E+03  0.76572427496E+03  0.82707822773E+02 0.  0.
         24    2    4    4    0    0 -0.14553344211E+03 -0.41222871315E+02  0.95738008142E+02  0.20056935586E+03  0.90459893967E+02 0.  0.
         13    1    5    5    0    0 -0.14323370613E+03  0.44306937496E+03 -0.20001915904E+03  0.50678795327E+03  0.00000000000E+00 0. -1.
        -14    1    5    5    0    0 -0.82577602429E+02  0.24111946695E+03 -0.45720465057E+02  0.25893632169E+03  0.00000000000E+00 0.  1.
         15    1    3    3    0    0  0.11448962131E+03 -0.14408072353E+03  0.29517100205E+02  0.18639083994E+03  0.17770000000E+01 0. -1.
        -16    1    3    3    0    0  0.25685512935E+03 -0.49888524706E+03  0.17433382605E+01  0.56112751353E+03  0.00000000000E+00 0.  1.
          2    1    6    6  502    0 -0.79049636448E+02 -0.48892013613E+02  0.12532354968E+02  0.93788772989E+02  0.00000000000E+00 0. -1.
         -1    1    6    6    0  502 -0.66483805662E+02  0.76691422984E+01  0.83205653174E+02  0.10678058287E+03  0.00000000000E+00 0.  1.
<mgrwt>
<rscale>  0 0.81277505E+03</rscale>
<asrwt>0</asrwt>
<pdfrwt beam="1">  1        1 0.14096563E+00 0.81277505E+03</pdfrwt>
<pdfrwt beam="2">  1       -2 0.12269776E+00 0.81277505E+03</pdfrwt>
<totfact> 0.78940849E+00</totfact>
</mgrwt>
</event>
<event>
12    3  0.1176505E-007  0.7676432E+03  0.7818608E-02  0.9608070E-01
         -2   -1    0    0    0  501 -0.00000000000E+00  0.00000000000E+00  0.16827243976E+04  0.16827243976E+04  0.00000000000E+00 0.  1.
          1   -1    0    0  501    0  0.00000000000E+00 -0.00000000000E+00 -0.80030908838E+03  0.80030908838E+03  0.00000000000E+00 0. -1.
        -24    2    1    2    0    0 -0.20132667288E+03  0.67154612348E+03 -0.46854463846E+03  0.84695443099E+03  0.79316484883E+02 0.  0.
    5000000    2    1    2    0    0  0.20132667288E+03 -0.67154612348E+03  0.13509599477E+04  0.16360790549E+04  0.60012937664E+03 0.  0.
        -24    2    4    4    0    0 -0.13479903988E+03 -0.16594712605E+03  0.72884243515E+03  0.76327117126E+03  0.75248626596E+02 0.  0.
         24    2    4    4    0    0  0.33612571276E+03 -0.50559899743E+03  0.62211751251E+03  0.87280788369E+03  0.78438265469E+02 0.  0.
         11    1    5    5    0    0 -0.99376184118E+02 -0.81270512706E+02  0.51104401222E+03  0.52692172534E+03  0.00000000000E+00 0. -1.
        -12    1    5    5    0    0 -0.35422855761E+02 -0.84676613342E+02  0.21779842292E+03  0.23634944592E+03  0.00000000000E+00 0.  1.
         15    1    3    3    0    0 -0.15691278425E+03  0.58860088543E+03 -0.38139071806E+03  0.71870345884E+03  0.17770000000E+01 0. -1.
        -16    1    3    3    0    0 -0.44413888627E+02  0.82945238049E+02 -0.87153920396E+02  0.12825097215E+03  0.00000000000E+00 0.  1.
          2    1    6    6  502    0  0.18864507726E+03 -0.21524190335E+03  0.30475042843E+03  0.41807758342E+03  0.00000000000E+00 0. -1.
         -1    1    6    6    0  502  0.14748063550E+03 -0.29035709408E+03  0.31736708408E+03  0.45473030027E+03  0.00000000000E+00 0.  1.
<mgrwt>
<rscale>  0 0.76764318E+03</rscale>
<asrwt>0</asrwt>
<pdfrwt beam="1">  1        1 0.12312448E+00 0.76764318E+03</pdfrwt>
<pdfrwt beam="2">  1       -2 0.25888068E+00 0.76764318E+03</pdfrwt>
<totfact> 0.11387798E+00</totfact>
</mgrwt>
</event>
<event>
12    3  0.1176505E-007  0.6247217E+03  0.7818608E-02  0.9855404E-01
         -2   -1    0    0    0  501 -0.00000000000E+00  0.00000000000E+00  0.36118007966E+03  0.36118007966E+03  0.00000000000E+00 0.  1.
          1   -1    0    0  501    0  0.00000000000E+00 -0.00000000000E+00 -0.17675193349E+04  0.17675193349E+04  0.00000000000E+00 0. -1.
        -24    2    1    2    0    0  0.25681057396E+03  0.42523112881E+03  0.19970671236E+02  0.50352124404E+03  0.79759837513E+02 0.  0.
    5000000    2    1    2    0    0 -0.25681057396E+03 -0.42523112881E+03 -0.14263099265E+04  0.16251781705E+04  0.60005907688E+03 0.  0.
        -24    2    4    4    0    0  0.16485376794E+03 -0.37657174872E+02 -0.23424864934E+03  0.30028863804E+03  0.81890224044E+02 0.  0.
         24    2    4    4    0    0 -0.42166434191E+03 -0.38757395394E+03 -0.11920612771E+04  0.13248895325E+04  0.79421645760E+02 0.  0.
         11    1    5    5    0    0  0.48103831707E+02 -0.31444133004E+02 -0.29713507717E+02  0.64696249243E+02  0.00000000000E+00 0. -1.
        -12    1    5    5    0    0  0.11674993623E+03 -0.62130418679E+01 -0.20453514162E+03  0.23559238880E+03  0.00000000000E+00 0.  1.
         15    1    3    3    0    0  0.62901121454E+02  0.15389272825E+03 -0.20705130385E+02  0.16754516717E+03  0.17770000000E+01 0. -1.
        -16    1    3    3    0    0  0.19390945251E+03  0.27133840056E+03  0.40675801621E+02  0.33597607687E+03  0.00000000000E+00 0.  1.
          2    1    6    6  502    0 -0.15632837071E+03 -0.10899880567E+03 -0.45946529049E+03  0.49742100105E+03  0.00000000000E+00 0. -1.
         -1    1    6    6    0  502 -0.26533597120E+03 -0.27857514827E+03 -0.73259598666E+03  0.82746853143E+03  0.00000000000E+00 0.  1.
<mgrwt>
<rscale>  0 0.62472168E+03</rscale>
<asrwt>0</asrwt>
<pdfrwt beam="1">  1        1 0.27192605E+00 0.62472168E+03</pdfrwt>
<pdfrwt beam="2">  1       -2 0.55566166E-01 0.62472168E+03</pdfrwt>
<totfact> 0.12099709E+01</totfact>
</mgrwt>
</event>
<event>
12    3  0.1176505E-007  0.1061379E+04  0.7818608E-02  0.9243674E-01
          1   -1    0    0  501    0  0.00000000000E+00  0.00000000000E+00  0.13817494685E+04  0.13817494685E+04  0.00000000000E+00 0. -1.
         -2   -1    0    0    0  501 -0.00000000000E+00 -0.00000000000E+00 -0.12833500049E+04  0.12833500049E+04  0.00000000000E+00 0.  1.
        -24    2    1    2    0    0  0.85759137954E+03 -0.55394412228E+03 -0.69686896191E+03  0.12386298621E+04  0.79123449668E+02 0.  0.
    5000000    2    1    2    0    0 -0.85759137954E+03  0.55394412228E+03  0.79526842558E+03  0.14264696113E+04  0.60003884745E+03 0.  0.
        -24    2    4    4    0    0 -0.69829530736E+03  0.23100996659E+03  0.27565273544E+03  0.78954639208E+03  0.80107014302E+02 0.  0.
         24    2    4    4    0    0 -0.15929607218E+03  0.32293415569E+03  0.51961569013E+03  0.63692321925E+03  0.77517831896E+02 0.  0.
         11    1    5    5    0    0 -0.20948507618E+03  0.83640276965E+02  0.48341915667E+02  0.23068730759E+03  0.00000000000E+00 0. -1.
        -12    1    5    5    0    0 -0.48881023118E+03  0.14736968963E+03  0.22731081978E+03  0.55885908449E+03  0.00000000000E+00 0.  1.
         15    1    3    3    0    0  0.43861946799E+03 -0.32789956079E+03 -0.35779456345E+03  0.65415997052E+03  0.17770000000E+01 0. -1.
        -16    1    3    3    0    0  0.41897191155E+03 -0.22604456149E+03 -0.33907439846E+03  0.58446989156E+03  0.00000000000E+00 0.  1.
          2    1    6    6  502    0 -0.29308746447E+02  0.27522658341E+02  0.28624310664E+02  0.49354336197E+02  0.00000000000E+00 0. -1.
         -1    1    6    6    0  502 -0.12998732573E+03  0.29541149734E+03  0.49099137947E+03  0.58756888305E+03  0.00000000000E+00 0.  1.
<mgrwt>
<rscale>  0 0.10613790E+04</rscale>
<asrwt>0</asrwt>
<pdfrwt beam="1">  1        1 0.21257684E+00 0.10613790E+04</pdfrwt>
<pdfrwt beam="2">  1       -2 0.19743846E+00 0.10613790E+04</pdfrwt>
<totfact> 0.95025338E-01</totfact>
</mgrwt>
</event>
<event>
12    3  0.1190116E-007  0.1168095E+04  0.7818608E-02  0.9141250E-01
          1   -1    0    0  501    0  0.00000000000E+00  0.00000000000E+00  0.16318724325E+04  0.16318724325E+04  0.00000000000E+00 0. -1.
         -2   -1    0    0    0  501 -0.00000000000E+00 -0.00000000000E+00 -0.94398044420E+03  0.94398044420E+03  0.00000000000E+00 0.  1.
        -24    2    1    2    0    0 -0.11004415668E+04 -0.37476264415E+03  0.43424382019E+03  0.12433815431E+04  0.77532477451E+02 0.  0.
    5000000    2    1    2    0    0  0.11004415668E+04  0.37476264415E+03  0.25364816816E+03  0.13324713336E+04  0.59976977280E+03 0.  0.
        -24    2    4    4    0    0  0.75573603707E+03  0.23507135310E+03  0.44033020502E+03  0.90884060298E+03  0.75531803937E+02 0.  0.
         24    2    4    4    0    0  0.34470552971E+03  0.13969129105E+03 -0.18668203686E+03  0.42363073063E+03  0.79229123730E+02 0.  0.
         11    1    5    5    0    0  0.17573657521E+03  0.81672360736E+02  0.13035931202E+03  0.23355356689E+03  0.00000000000E+00 0. -1.
        -12    1    5    5    0    0  0.57999946186E+03  0.15339899237E+03  0.30997089300E+03  0.67528703610E+03  0.00000000000E+00 0.  1.
         15    1    3    3    0    0 -0.84449095382E+03 -0.26367878105E+03  0.35561800577E+03  0.95349818795E+03  0.17770000000E+01 0. -1.
        -16    1    3    3    0    0 -0.25595061295E+03 -0.11108386310E+03  0.78625814423E+02  0.28988335517E+03  0.00000000000E+00 0.  1.
          2    1    6    6  502    0  0.78325781339E+02  0.65822611092E+02 -0.67686795314E+02  0.12267455487E+03  0.00000000000E+00 0. -1.
         -1    1    6    6    0  502  0.26637974837E+03  0.73868679958E+02 -0.11899524154E+03  0.30095617576E+03  0.00000000000E+00 0.  1.
<mgrwt>
<rscale>  0 0.11680951E+04</rscale>
<asrwt>0</asrwt>
<pdfrwt beam="1">  1        1 0.25105730E+00 0.11680951E+04</pdfrwt>
<pdfrwt beam="2">  1       -2 0.14522776E+00 0.11680951E+04</pdfrwt>
<totfact> 0.14880916E+00</totfact>
</mgrwt>
</event>
<event>
12    3  0.1176505E-007  0.1418363E+04  0.7818608E-02  0.8940633E-01
         -2   -1    0    0    0  501 -0.00000000000E+00  0.00000000000E+00  0.15390644025E+04  0.15390644025E+04  0.00000000000E+00 0.  1.
          1   -1    0    0  501    0  0.00000000000E+00 -0.00000000000E+00 -0.15045079861E+04  0.15045079861E+04  0.00000000000E+00 0. -1.
        -24    2    1    2    0    0 -0.11963123708E+04 -0.69481501853E+03  0.48746497550E+03  0.14688994166E+04  0.78180529917E+02 0.  0.
    5000000    2    1    2    0    0  0.11963123708E+04  0.69481501853E+03 -0.45290855908E+03  0.15746729720E+04  0.60044783908E+03 0.  0.
        -24    2    4    4    0    0  0.59075937634E+03  0.95488752838E+02  0.57084239965E+01  0.60379043199E+03  0.80097172261E+02 0.  0.
         24    2    4    4    0    0  0.60555299443E+03  0.59932626570E+03 -0.45861698307E+03  0.97088254002E+03  0.79981044873E+02 0.  0.
         13    1    5    5    0    0  0.55569854922E+03  0.92451060942E+02  0.24551153689E+02  0.56387129331E+03  0.00000000000E+00 0. -1.
        -14    1    5    5    0    0  0.35060827123E+02  0.30376918961E+01 -0.18842729693E+02  0.39919138679E+02  0.00000000000E+00 0.  1.
         15    1    3    3    0    0 -0.59686348276E+03 -0.30278028152E+03  0.24524759117E+03  0.71279131212E+03  0.17770000000E+01 0. -1.
        -16    1    3    3    0    0 -0.59944888801E+03 -0.39203473701E+03  0.24221738433E+03  0.75610810446E+03  0.00000000000E+00 0.  1.
          2    1    6    6  502    0  0.54070616743E+03  0.54919065088E+03 -0.38881542081E+03  0.86322127057E+03  0.00000000000E+00 0. -1.
         -3    1    6    6    0  502  0.64846826995E+02  0.50135614819E+02 -0.69801562260E+02  0.10766126945E+03  0.00000000000E+00 0.  1.
<mgrwt>
<rscale>  0 0.14183632E+04</rscale>
<asrwt>0</asrwt>
<pdfrwt beam="1">  1        1 0.23146277E+00 0.14183632E+04</pdfrwt>
<pdfrwt beam="2">  1       -2 0.23677914E+00 0.14183632E+04</pdfrwt>
<totfact> 0.41989884E-01</totfact>
</mgrwt>
</event>
<event>
12    3  0.1176505E-007  0.8206511E+03  0.7818608E-02  0.9530597E-01
         -2   -1    0    0    0  501 -0.00000000000E+00  0.00000000000E+00  0.22163604759E+03  0.22163604759E+03  0.00000000000E+00 0.  1.
          1   -1    0    0  501    0  0.00000000000E+00 -0.00000000000E+00 -0.34999902948E+04  0.34999902948E+04  0.00000000000E+00 0. -1.
        -24    2    1    2    0    0  0.57898463935E+03 -0.51368213913E+03 -0.15795478928E+04  0.17607744872E+04  0.79137200428E+02 0.  0.
    5000000    2    1    2    0    0 -0.57898463935E+03  0.51368213913E+03 -0.16988063544E+04  0.19608518552E+04  0.59992034097E+03 0.  0.
        -24    2    4    4    0    0 -0.31683935628E+03  0.49573832136E+03 -0.15230121350E+04  0.16346421652E+04  0.79657917963E+02 0.  0.
         24    2    4    4    0    0 -0.26214528307E+03  0.17943817765E+02 -0.17579421936E+03  0.32620968995E+03  0.80417810353E+02 0.  0.
         13    1    5    5    0    0 -0.31330414367E+02  0.34080501944E+02 -0.18529612774E+03  0.19099144073E+03  0.00000000000E+00 0. -1.
        -14    1    5    5    0    0 -0.28550894191E+03  0.46165781942E+03 -0.13377160073E+04  0.14436507245E+04  0.00000000000E+00 0.  1.
         15    1    3    3    0    0  0.40325197752E+03 -0.40221863632E+03 -0.11318874488E+04  0.12671086549E+04  0.17770000000E+01 0. -1.
        -16    1    3    3    0    0  0.17573266183E+03 -0.11146350281E+03 -0.44766044401E+03  0.49366583234E+03  0.00000000000E+00 0.  1.
          2    1    6    6  502    0 -0.84965440900E+01  0.19082840281E+02 -0.98202931895E+01  0.23082118901E+02  0.00000000000E+00 0. -1.
         -1    1    6    6    0  502 -0.25364873898E+03 -0.11390225159E+01 -0.16597392617E+03  0.30312757105E+03  0.00000000000E+00 0.  1.
<mgrwt>
<rscale>  0 0.82065111E+03</rscale>
<asrwt>0</asrwt>
<pdfrwt beam="1">  1        1 0.53846003E+00 0.82065111E+03</pdfrwt>
<pdfrwt beam="2">  1       -2 0.34097854E-01 0.82065111E+03</pdfrwt>
<totfact> 0.18883135E+00</totfact>
</mgrwt>
</event>
<event>
12    3  0.1176505E-007  0.5929877E+03  0.7818608E-02  0.9920062E-01
         -2   -1    0    0    0  501 -0.00000000000E+00  0.00000000000E+00  0.21728513823E+03  0.21728513823E+03  0.00000000000E+00 0.  1.
          1   -1    0    0  501    0  0.00000000000E+00 -0.00000000000E+00 -0.23859383924E+04  0.23859383924E+04  0.00000000000E+00 0. -1.
        -24    2    1    2    0    0  0.48321353075E+03  0.30624015946E+03 -0.62574687267E+03  0.85161197873E+03  0.80034130765E+02 0.  0.
    5000000    2    1    2    0    0 -0.48321353075E+03 -0.30624015946E+03 -0.15429063815E+04  0.17516115519E+04  0.60025375894E+03 0.  0.
        -24    2    4    4    0    0 -0.27506123114E+03 -0.76149630314E+02 -0.16946647474E+03  0.34114711943E+03  0.78771974440E+02 0.  0.
         24    2    4    4    0    0 -0.20815229961E+03 -0.23009052915E+03 -0.13734399068E+04  0.14104644325E+04  0.82484582573E+02 0.  0.
         11    1    5    5    0    0 -0.27214157702E+00  0.17226158426E+01  0.57941957435E+01  0.60509644432E+01  0.00000000000E+00 0. -1.
        -12    1    5    5    0    0 -0.27478908957E+03 -0.77872246157E+02 -0.17526067049E+03  0.33509615498E+03  0.00000000000E+00 0.  1.
         15    1    3    3    0    0  0.27529890328E+03  0.22047932569E+03 -0.38678687173E+03  0.52345760198E+03  0.17770000000E+01 0. -1.
        -16    1    3    3    0    0  0.20791462747E+03  0.85760833769E+02 -0.23896000094E+03  0.32815437674E+03  0.00000000000E+00 0.  1.
          2    1    6    6  502    0 -0.12396097471E+02  0.64447525390E+01 -0.55139943877E+02  0.56882435589E+02  0.00000000000E+00 0. -1.
         -1    1    6    6    0  502 -0.19575620214E+03 -0.23653528168E+03 -0.13182999629E+04  0.13535819969E+04  0.00000000000E+00 0.  1.
<mgrwt>
<rscale>  0 0.59298772E+03</rscale>
<asrwt>0</asrwt>
<pdfrwt beam="1">  1        1 0.36706747E+00 0.59298772E+03</pdfrwt>
<pdfrwt beam="2">  1       -2 0.33428481E-01 0.59298772E+03</pdfrwt>
<totfact> 0.12828412E+01</totfact>
</mgrwt>
</event>
<event>
12    3  0.1176505E-007  0.4856889E+03  0.7818608E-02  0.1017583E+00
         -2   -1    0    0    0  501 -0.00000000000E+00  0.00000000000E+00  0.10386648562E+03  0.10386648562E+03  0.00000000000E+00 0.  1.
          1   -1    0    0  501    0  0.00000000000E+00 -0.00000000000E+00 -0.23648040008E+04  0.23648040008E+04  0.00000000000E+00 0. -1.
        -24    2    1    2    0    0 -0.28214717649E+03  0.11863087437E+03 -0.71596009562E+03  0.78340505962E+03  0.86280445986E+02 0.  0.
    5000000    2    1    2    0    0  0.28214717649E+03 -0.11863087437E+03 -0.15449774196E+04  0.16852654268E+04  0.59956986104E+03 0.  0.
        -24    2    4    4    0    0  0.79352135796E+02  0.23043925228E+03 -0.52332460311E+03  0.58372150803E+03  0.86389514866E+02 0.  0.
         24    2    4    4    0    0  0.20279504069E+03 -0.34907012665E+03 -0.10216528165E+04  0.11015439188E+04  0.81539841511E+02 0.  0.
         13    1    5    5    0    0  0.51936339343E+02  0.10373093525E+03 -0.33956759889E+03  0.35883651498E+03  0.00000000000E+00 0. -1.
        -14    1    5    5    0    0  0.27415796453E+02  0.12670831703E+03 -0.18375700422E+03  0.22488499305E+03  0.00000000000E+00 0.  1.
         15    1    3    3    0    0 -0.66675415243E+02 -0.62439770522E+01 -0.11863058578E+03  0.13623865772E+03  0.17770000000E+01 0. -1.
        -16    1    3    3    0    0 -0.21547176125E+03  0.12487485142E+03 -0.59732950984E+03  0.64716640190E+03  0.00000000000E+00 0.  1.
          4    1    6    6  502    0  0.20264297918E+03 -0.30834268343E+03 -0.94981499871E+03  0.10189641403E+04  0.00000000000E+00 0. -1.
         -3    1    6    6    0  502  0.15206151427E+00 -0.40727443226E+02 -0.71837817764E+02  0.82579778491E+02  0.00000000000E+00 0.  1.
<mgrwt>
<rscale>  0 0.48568886E+03</rscale>
<asrwt>0</asrwt>
<pdfrwt beam="1">  1        1 0.36381599E+00 0.48568886E+03</pdfrwt>
<pdfrwt beam="2">  1       -2 0.15979460E-01 0.48568886E+03</pdfrwt>
<totfact> 0.50262274E+01</totfact>
</mgrwt>
</event>
<event>
12    3  0.1176505E-007  0.6491683E+03  0.7818608E-02  0.9808341E-01
         -2   -1    0    0    0  501 -0.00000000000E+00  0.00000000000E+00  0.12059409677E+04  0.12059409677E+04  0.00000000000E+00 0.  1.
          1   -1    0    0  501    0  0.00000000000E+00 -0.00000000000E+00 -0.38017440141E+03  0.38017440141E+03  0.00000000000E+00 0. -1.
        -24    2    1    2    0    0 -0.19470638386E+03 -0.48252719115E+03  0.16068245479E+03  0.55011163747E+03  0.77851758440E+02 0.  0.
    5000000    2    1    2    0    0  0.19470638386E+03  0.48252719115E+03  0.66508411151E+03  0.10360037316E+04  0.60018646311E+03 0.  0.
        -24    2    4    4    0    0 -0.18028567076E+03  0.29204299847E+03  0.39717777201E+03  0.53109494927E+03  0.80744204270E+02 0.  0.
         24    2    4    4    0    0  0.37499205462E+03  0.19048419268E+03  0.26790633950E+03  0.50490878238E+03  0.79093634993E+02 0.  0.
         11    1    5    5    0    0 -0.65970919832E+02  0.48683246827E+02  0.71638686180E+02  0.10887755573E+03  0.00000000000E+00 0. -1.
        -12    1    5    5    0    0 -0.11431475092E+03  0.24335975164E+03  0.32553908583E+03  0.42221739353E+03  0.00000000000E+00 0.  1.
         15    1    3    3    0    0 -0.13171502551E+03 -0.23846696076E+03  0.10507925919E+03  0.29199340363E+03  0.17770000000E+01 0. -1.
        -16    1    3    3    0    0 -0.62991358350E+02 -0.24406023039E+03  0.55603195601E+02  0.25811823385E+03  0.00000000000E+00 0.  1.
          4    1    6    6  502    0  0.19720986104E+03  0.12521054232E+03  0.10942197611E+03  0.25795848126E+03  0.00000000000E+00 0. -1.
         -3    1    6    6    0  502  0.17778219357E+03  0.65273650361E+02  0.15848436339E+03  0.24695030112E+03  0.00000000000E+00 0.  1.
<mgrwt>
<rscale>  0 0.64916832E+03</rscale>
<asrwt>0</asrwt>
<pdfrwt beam="1">  1        1 0.58488370E-01 0.64916832E+03</pdfrwt>
<pdfrwt beam="2">  1       -2 0.18552938E+00 0.64916832E+03</pdfrwt>
<totfact> 0.96313969E+00</totfact>
</mgrwt>
</event>
<event>
12    3  0.1176505E-007  0.9123724E+03  0.7818608E-02  0.9410246E-01
         -2   -1    0    0    0  501 -0.00000000000E+00  0.00000000000E+00  0.93409648585E+03  0.93409648585E+03  0.00000000000E+00 0.  1.
          1   -1    0    0  501    0  0.00000000000E+00 -0.00000000000E+00 -0.10199928084E+04  0.10199928084E+04  0.00000000000E+00 0. -1.
        -24    2    1    2    0    0 -0.74742146336E+03 -0.46330878092E+03 -0.10583413433E+03  0.88929770382E+03  0.79722466525E+02 0.  0.
    5000000    2    1    2    0    0  0.74742146336E+03  0.46330878092E+03  0.19937811731E+02  0.10647915905E+04  0.60007478237E+03 0.  0.
        -24    2    4    4    0    0  0.96782986114E+02 -0.24128502882E+02 -0.18212458289E+03  0.22327809159E+03  0.82064678376E+02 0.  0.
         24    2    4    4    0    0  0.65063847725E+03  0.48743728380E+03  0.20206239462E+03  0.84151349889E+03  0.79938875236E+02 0.  0.
         11    1    5    5    0    0 -0.12811983643E+02  0.78100948307E+01 -0.21897649601E+02  0.26545273858E+02  0.00000000000E+00 0. -1.
        -12    1    5    5    0    0  0.10959496976E+03 -0.31938597713E+02 -0.16022693329E+03  0.19673281773E+03  0.00000000000E+00 0.  1.
         15    1    3    3    0    0 -0.61980994321E+03 -0.36704060785E+03 -0.59113153344E+02  0.72275908583E+03  0.17770000000E+01 0. -1.
        -16    1    3    3    0    0 -0.12761152015E+03 -0.96268173065E+02 -0.46720980989E+02  0.16653861800E+03  0.00000000000E+00 0.  1.
          4    1    6    6  502    0  0.24036463211E+03  0.14282001972E+03  0.93572971283E+02  0.29483659094E+03  0.00000000000E+00 0. -1.
         -1    1    6    6    0  502  0.41027384514E+03  0.34461726408E+03  0.10848942334E+03  0.54667690794E+03  0.00000000000E+00 0.  1.
<mgrwt>
<rscale>  0 0.91237240E+03</rscale>
<asrwt>0</asrwt>
<pdfrwt beam="1">  1        1 0.15692197E+00 0.91237240E+03</pdfrwt>
<pdfrwt beam="2">  1       -2 0.14370715E+00 0.91237240E+03</pdfrwt>
<totfact> 0.43168977E+00</totfact>
</mgrwt>
</event>
<event>
12    3  0.1176505E-007  0.1007258E+04  0.7818608E-02  0.9300620E-01
          1   -1    0    0  501    0  0.00000000000E+00  0.00000000000E+00  0.12136890425E+04  0.12136890425E+04  0.00000000000E+00 0. -1.
         -2   -1    0    0    0  501 -0.00000000000E+00 -0.00000000000E+00 -0.10455853915E+04  0.10455853915E+04  0.00000000000E+00 0.  1.
        -24    2    1    2    0    0  0.79023444190E+03  0.50360320735E+03  0.54218351125E+03  0.10854134141E+04  0.77927248760E+02 0.  0.
    5000000    2    1    2    0    0 -0.79023444190E+03 -0.50360320735E+03 -0.37407986023E+03  0.11738610198E+04  0.59993940390E+03 0.  0.
        -24    2    4    4    0    0 -0.32360769010E+03 -0.50757411909E+03 -0.34819256587E+03  0.70000827551E+03  0.80125522669E+02 0.  0.
         24    2    4    4    0    0 -0.46662675180E+03  0.39709117386E+01 -0.25887294355E+02  0.47385274429E+03  0.78166345887E+02 0.  0.
         11    1    5    5    0    0 -0.28333131213E+03 -0.39964161368E+03 -0.25782723072E+03  0.55359274988E+03  0.00000000000E+00 0. -1.
        -12    1    5    5    0    0 -0.40276377969E+02 -0.10793250541E+03 -0.90365335155E+02  0.14641552563E+03  0.00000000000E+00 0.  1.
         15    1    3    3    0    0  0.11983540137E+03  0.52862776704E+02  0.97319701809E+02  0.16318479914E+03  0.17770000000E+01 0. -1.
        -16    1    3    3    0    0  0.67039904053E+03  0.45074043065E+03  0.44486380944E+03  0.92222861499E+03  0.00000000000E+00 0.  1.
          2    1    6    6  502    0 -0.41469008585E+03 -0.15889472880E+02 -0.67566241081E+01  0.41504938817E+03  0.00000000000E+00 0. -1.
         -1    1    6    6    0  502 -0.51936665947E+02  0.19860384619E+02 -0.19130670247E+02  0.58803356120E+02  0.00000000000E+00 0.  1.
<mgrwt>
<rscale>  0 0.10072580E+04</rscale>
<asrwt>0</asrwt>
<pdfrwt beam="1">  1        1 0.18672139E+00 0.10072580E+04</pdfrwt>
<pdfrwt beam="2">  1       -2 0.16085929E+00 0.10072580E+04</pdfrwt>
<totfact> 0.22630253E+00</totfact>
</mgrwt>
</event>
<event>
12    3  0.1176505E-007  0.5454328E+03  0.7818608E-02  0.1002557E+00
         -2   -1    0    0    0  501 -0.00000000000E+00  0.00000000000E+00  0.27459859650E+03  0.27459859650E+03  0.00000000000E+00 0.  1.
          1   -1    0    0  501    0  0.00000000000E+00 -0.00000000000E+00 -0.15057017424E+04  0.15057017424E+04  0.00000000000E+00 0. -1.
        -24    2    1    2    0    0  0.16429111267E+03 -0.38083253385E+03 -0.86887730083E+03  0.96604245616E+03  0.79153487965E+02 0.  0.
    5000000    2    1    2    0    0 -0.16429111267E+03  0.38083253385E+03 -0.36222584504E+03  0.81425788270E+03  0.59981942965E+03 0.  0.
        -24    2    4    4    0    0 -0.31566212197E+03  0.39127779330E+03 -0.38796045544E+03  0.64039089863E+03  0.82742378999E+02 0.  0.
         24    2    4    4    0    0  0.15137100929E+03 -0.10445259445E+02  0.25734610404E+02  0.17386698408E+03  0.80902237792E+02 0.  0.
         11    1    5    5    0    0 -0.40818298825E+02  0.19008716950E+02 -0.20371264363E+02  0.49421182208E+02  0.00000000000E+00 0. -1.
        -12    1    5    5    0    0 -0.27484382314E+03  0.37226907635E+03 -0.36758919108E+03  0.59096971642E+03  0.00000000000E+00 0.  1.
         15    1    3    3    0    0  0.65075803741E+02 -0.69581033300E+02 -0.18191948387E+03  0.20536366954E+03  0.17770000000E+01 0. -1.
        -16    1    3    3    0    0  0.99215308932E+02 -0.31125150055E+03 -0.68695781696E+03  0.76067878662E+03  0.00000000000E+00 0.  1.
          2    1    6    6  502    0  0.54755007320E+02 -0.30183455370E+02 -0.19334339097E+02  0.65444392220E+02  0.00000000000E+00 0. -1.
         -1    1    6    6    0  502  0.96616001974E+02  0.19738195926E+02  0.45068949501E+02  0.10842259186E+03  0.00000000000E+00 0.  1.
<mgrwt>
<rscale>  0 0.54543278E+03</rscale>
<asrwt>0</asrwt>
<pdfrwt beam="1">  1        1 0.23164642E+00 0.54543278E+03</pdfrwt>
<pdfrwt beam="2">  1       -2 0.42245938E-01 0.54543278E+03</pdfrwt>
<totfact> 0.31928283E+01</totfact>
</mgrwt>
</event>
<event>
12    3  0.1176505E-007  0.1743591E+04  0.7818608E-02  0.8736886E-01
         -2   -1    0    0    0  501 -0.00000000000E+00  0.00000000000E+00  0.17920287538E+04  0.17920287538E+04  0.00000000000E+00 0.  1.
          1   -1    0    0  501    0  0.00000000000E+00 -0.00000000000E+00 -0.17562391517E+04  0.17562391517E+04  0.00000000000E+00 0. -1.
        -24    2    1    2    0    0 -0.11588726676E+04  0.12697924170E+04 -0.88348489596E+02  0.17232692179E+04  0.80577289372E+02 0.  0.
    5000000    2    1    2    0    0  0.11588726676E+04 -0.12697924170E+04  0.12413809166E+03  0.18249986876E+04  0.59987607203E+03 0.  0.
        -24    2    4    4    0    0  0.77942931161E+03 -0.55740704626E+03  0.27449079898E+03  0.10000061512E+04  0.80339508449E+02 0.  0.
         24    2    4    4    0    0  0.37944335602E+03 -0.71238537077E+03 -0.15035270732E+03  0.82499253643E+03  0.80849067127E+02 0.  0.
         11    1    5    5    0    0  0.27529999860E+03 -0.17825123926E+03  0.13053097050E+03  0.35298998256E+03  0.00000000000E+00 0. -1.
        -12    1    5    5    0    0  0.50412931301E+03 -0.37915580700E+03  0.14395982849E+03  0.64701616861E+03  0.00000000000E+00 0.  1.
         15    1    3    3    0    0 -0.10332712391E+04  0.10932354301E+04 -0.72374152409E+02  0.15060060873E+04  0.17770000000E+01 0. -1.
        -16    1    3    3    0    0 -0.12560142853E+03  0.17655698693E+03 -0.15974337187E+02  0.21726313063E+03  0.00000000000E+00 0.  1.
          2    1    6    6  502    0  0.20791358114E+03 -0.36555615879E+03 -0.11760826187E+03  0.43668188159E+03  0.00000000000E+00 0. -1.
         -1    1    6    6    0  502  0.17152977488E+03 -0.34682921198E+03 -0.32744445448E+02  0.38831065484E+03  0.00000000000E+00 0.  1.
<mgrwt>
<rscale>  0 0.17435908E+04</rscale>
<asrwt>0</asrwt>
<pdfrwt beam="1">  1        1 0.27019064E+00 0.17435908E+04</pdfrwt>
<pdfrwt beam="2">  1       -2 0.27569673E+00 0.17435908E+04</pdfrwt>
<totfact> 0.15692661E-01</totfact>
</mgrwt>
</event>
<event>
12    3  0.1176505E-007  0.1769037E+04  0.7818608E-02  0.8722941E-01
         -2   -1    0    0    0  501 -0.00000000000E+00  0.00000000000E+00  0.13578587503E+04  0.13578587503E+04  0.00000000000E+00 0.  1.
          1   -1    0    0  501    0  0.00000000000E+00 -0.00000000000E+00 -0.25083076624E+04  0.25083076624E+04  0.00000000000E+00 0. -1.
        -24    2    1    2    0    0  0.14305701968E+04 -0.98107407214E+03 -0.10474772607E+04  0.20279606887E+04  0.79865638705E+02 0.  0.
    5000000    2    1    2    0    0 -0.14305701968E+04  0.98107407214E+03 -0.10297165137E+03  0.18382057240E+04  0.59946617896E+03 0.  0.
        -24    2    4    4    0    0 -0.37579538039E+03  0.41999334893E+02  0.11490742606E+03  0.40668290259E+03  0.95922649288E+02 0.  0.
         24    2    4    4    0    0 -0.10547748165E+04  0.93907473724E+03 -0.21787907743E+03  0.14315228214E+04  0.85877938515E+02 0.  0.
         13    1    5    5    0    0 -0.17658570733E+02 -0.16649844244E+02  0.20315079724E+02  0.31650353835E+02  0.00000000000E+00 0. -1.
        -14    1    5    5    0    0 -0.35813680965E+03  0.58649179138E+02  0.94592346336E+02  0.37503254876E+03  0.00000000000E+00 0.  1.
         15    1    3    3    0    0  0.80112814291E+03 -0.50738737466E+03 -0.54941579095E+03  0.10959512391E+04  0.17770000000E+01 0. -1.
        -16    1    3    3    0    0  0.62944205394E+03 -0.47368669747E+03 -0.49806146977E+03  0.93200944968E+03  0.00000000000E+00 0.  1.
          2    1    6    6  502    0 -0.78973951298E+03  0.65176667277E+03 -0.15932556691E+03  0.10362784039E+04  0.00000000000E+00 0. -1.
         -1    1    6    6    0  502 -0.26503530347E+03  0.28730806447E+03 -0.58553510520E+02  0.39524441753E+03  0.00000000000E+00 0.  1.
<mgrwt>
<rscale>  0 0.17690366E+04</rscale>
<asrwt>0</asrwt>
<pdfrwt beam="1">  1        1 0.38589348E+00 0.17690366E+04</pdfrwt>
<pdfrwt beam="2">  1       -2 0.20890135E+00 0.17690366E+04</pdfrwt>
<totfact> 0.12474471E-01</totfact>
</mgrwt>
</event>
<event>
12    3  0.1176505E-007  0.6679794E+03  0.7818608E-02  0.9773615E-01
         -2   -1    0    0    0  501 -0.00000000000E+00  0.00000000000E+00  0.16841200265E+04  0.16841200265E+04  0.00000000000E+00 0.  1.
          1   -1    0    0  501    0  0.00000000000E+00 -0.00000000000E+00 -0.39564854120E+03  0.39564854120E+03  0.00000000000E+00 0. -1.
        -24    2    1    2    0    0 -0.17815271080E+03 -0.62481837601E+03  0.90301096949E+03  0.11152421127E+04  0.78738601977E+02 0.  0.
    5000000    2    1    2    0    0  0.17815271080E+03  0.62481837601E+03  0.38546051584E+03  0.96452645507E+03  0.59966247331E+03 0.  0.
        -24    2    4    4    0    0  0.66046503309E+02  0.22431687466E+02 -0.12439129579E+03  0.16341490363E+03  0.79786684705E+02 0.  0.
         24    2    4    4    0    0  0.11210620749E+03  0.60238668855E+03  0.50985181163E+03  0.80111155145E+03  0.79958262477E+02 0.  0.
         13    1    5    5    0    0  0.65711022560E+02  0.17295454276E+02 -0.13527156369E+03  0.15137855583E+03  0.00000000000E+00 0. -1.
        -14    1    5    5    0    0  0.33548074899E+00  0.51362331903E+01  0.10880267894E+02  0.12036347791E+02  0.00000000000E+00 0.  1.
         15    1    3    3    0    0 -0.85459422153E+02 -0.32508000044E+03  0.53279929312E+03  0.62996711343E+03  0.17770000000E+01 0. -1.
        -16    1    3    3    0    0 -0.92693288651E+02 -0.29973837557E+03  0.37021167637E+03  0.48527499922E+03  0.00000000000E+00 0.  1.
          2    1    6    6  502    0  0.90920758088E+02  0.44595617446E+03  0.33229046996E+03  0.56352502182E+03  0.00000000000E+00 0. -1.
         -1    1    6    6    0  502  0.21185449407E+02  0.15643051409E+03  0.17756134167E+03  0.23758652963E+03  0.00000000000E+00 0.  1.
<mgrwt>
<rscale>  0 0.66797944E+03</rscale>
<asrwt>0</asrwt>
<pdfrwt beam="1">  1        1 0.60869007E-01 0.66797944E+03</pdfrwt>
<pdfrwt beam="2">  1       -2 0.25909538E+00 0.66797944E+03</pdfrwt>
<totfact> 0.31529815E+00</totfact>
</mgrwt>
</event>
<event>
12    3  0.1176505E-007  0.1411930E+04  0.7818608E-02  0.8945228E-01
          1   -1    0    0  501    0  0.00000000000E+00  0.00000000000E+00  0.22337220340E+04  0.22337220340E+04  0.00000000000E+00 0. -1.
         -2   -1    0    0    0  501 -0.00000000000E+00 -0.00000000000E+00 -0.90874574379E+03  0.90874574379E+03  0.00000000000E+00 0.  1.
        -24    2    1    2    0    0  0.13025945509E+04 -0.37687596962E+03  0.51533952024E+03  0.14529450778E+04  0.81771128482E+02 0.  0.
    5000000    2    1    2    0    0 -0.13025945509E+04  0.37687596962E+03  0.80963676995E+03  0.16895227000E+04  0.60015597474E+03 0.  0.
        -24    2    4    4    0    0 -0.35314943337E+03  0.37172309729E+03  0.18868569413E+03  0.55219827034E+03  0.80175153595E+02 0.  0.
         24    2    4    4    0    0 -0.94944511752E+03  0.51528723318E+01  0.62095107582E+03  0.11373244296E+04  0.80337017709E+02 0.  0.
         13    1    5    5    0    0 -0.37491710227E+02  0.63914498881E+02  0.40603795273E+01  0.74210364404E+02  0.00000000000E+00 0. -1.
        -14    1    5    5    0    0 -0.31565772314E+03  0.30780859841E+03  0.18462531460E+03  0.47798790594E+03  0.00000000000E+00 0.  1.
         15    1    3    3    0    0  0.81197542211E+03 -0.21430730544E+03  0.28204300409E+03  0.88587985707E+03  0.17770000000E+01 0. -1.
        -16    1    3    3    0    0  0.49061912878E+03 -0.16256866418E+03  0.23329651615E+03  0.56706522071E+03  0.00000000000E+00 0.  1.
          2    1    6    6  502    0 -0.61689564021E+03 -0.31319199709E+02  0.42223092467E+03  0.74821125154E+03  0.00000000000E+00 0. -1.
         -1    1    6    6    0  502 -0.33254947732E+03  0.36472072041E+02  0.19872015115E+03  0.38911317811E+03  0.00000000000E+00 0.  1.
<mgrwt>
<rscale>  0 0.14119297E+04</rscale>
<asrwt>0</asrwt>
<pdfrwt beam="1">  1        1 0.34364954E+00 0.14119297E+04</pdfrwt>
<pdfrwt beam="2">  1       -2 0.13980704E+00 0.14119297E+04</pdfrwt>
<totfact> 0.62489676E-01</totfact>
</mgrwt>
</event>
<event>
12    3  0.1176505E-007  0.3878795E+03  0.7818608E-02  0.1048059E+00
         -2   -1    0    0    0  501 -0.00000000000E+00  0.00000000000E+00  0.19855475003E+03  0.19855475003E+03  0.00000000000E+00 0.  1.
          1   -1    0    0  501    0  0.00000000000E+00 -0.00000000000E+00 -0.18712634523E+04  0.18712634523E+04  0.00000000000E+00 0. -1.
        -24    2    1    2    0    0  0.22196152250E+03  0.13622305649E+03 -0.12767245633E+04  0.13053031345E+04  0.77246512664E+02 0.  0.
    5000000    2    1    2    0    0 -0.22196152250E+03 -0.13622305649E+03 -0.39598413893E+03  0.76451506783E+03  0.59988016475E+03 0.  0.
        -24    2    4    4    0    0 -0.50975806290E+02 -0.26964590050E+03 -0.44414662659E+03  0.52885854851E+03  0.84366426564E+02 0.  0.
         24    2    4    4    0    0 -0.17098571621E+03  0.13342284400E+03  0.48162487659E+02  0.23565651933E+03  0.78591344525E+02 0.  0.
         13    1    5    5    0    0 -0.12754547460E+02 -0.12326014555E+03 -0.12681918502E+03  0.17731003257E+03  0.00000000000E+00 0. -1.
        -14    1    5    5    0    0 -0.38221258830E+02 -0.14638575494E+03 -0.31732744158E+03  0.35154851593E+03  0.00000000000E+00 0.  1.
         15    1    3    3    0    0  0.52921676483E+02 -0.16576992329E+01 -0.28320208873E+03  0.28811461712E+03  0.17770000000E+01 0. -1.
        -16    1    3    3    0    0  0.16903984601E+03  0.13788075572E+03 -0.99352247459E+03  0.10171885174E+04  0.00000000000E+00 0.  1.
          2    1    6    6  502    0 -0.11241717760E+03  0.40306607271E+02  0.12802156921E+02  0.12010886574E+03  0.00000000000E+00 0. -1.
         -1    1    6    6    0  502 -0.58568538609E+02  0.93116236733E+02  0.35360330738E+02  0.11554765358E+03  0.00000000000E+00 0.  1.
<mgrwt>
<rscale>  0 0.38787947E+03</rscale>
<asrwt>0</asrwt>
<pdfrwt beam="1">  1        1 0.28788669E+00 0.38787947E+03</pdfrwt>
<pdfrwt beam="2">  1       -2 0.30546884E-01 0.38787947E+03</pdfrwt>
<totfact> 0.34786602E+01</totfact>
</mgrwt>
</event>
<event>
12    3  0.1176505E-007  0.1570780E+04  0.7818608E-02  0.8838703E-01
          1   -1    0    0  501    0  0.00000000000E+00  0.00000000000E+00  0.11172700201E+04  0.11172700201E+04  0.00000000000E+00 0. -1.
         -2   -1    0    0    0  501 -0.00000000000E+00 -0.00000000000E+00 -0.25235729225E+04  0.25235729225E+04  0.00000000000E+00 0.  1.
        -24    2    1    2    0    0 -0.16402355425E+03 -0.15443700495E+04 -0.11974956442E+04  0.19628505486E+04  0.82485647983E+02 0.  0.
    5000000    2    1    2    0    0  0.16402355425E+03  0.15443700495E+04 -0.20880725815E+03  0.16779923940E+04  0.60006285247E+03 0.  0.
        -24    2    4    4    0    0  0.16124409318E+03  0.29618858572E+03 -0.25105296853E+03  0.42646755344E+03  0.71551696205E+02 0.  0.
         24    2    4    4    0    0  0.27794610739E+01  0.12481814638E+04  0.42245710378E+02  0.12515248405E+04  0.81024899964E+02 0.  0.
         13    1    5    5    0    0  0.45923234534E+02  0.10483434332E+03 -0.12683502955E+03  0.17084000623E+03  0.00000000000E+00 0. -1.
        -14    1    5    5    0    0  0.11532085864E+03  0.19135424241E+03 -0.12421793898E+03  0.25562754720E+03  0.00000000000E+00 0.  1.
         15    1    3    3    0    0  0.46833698358E+01 -0.19044552677E+03 -0.16034741268E+03  0.24900980523E+03  0.17770000000E+01 0. -1.
        -16    1    3    3    0    0 -0.16870692409E+03 -0.13539245228E+04 -0.10371482315E+04  0.17138407434E+04  0.00000000000E+00 0.  1.
          2    1    6    6  502    0 -0.17775476909E+02  0.48201413164E+03 -0.18345585938E+02  0.48269053357E+03  0.00000000000E+00 0. -1.
         -1    1    6    6    0  502  0.20554937983E+02  0.76616733218E+03  0.60591296316E+02  0.76883430697E+03  0.00000000000E+00 0.  1.
<mgrwt>
<rscale>  0 0.15707801E+04</rscale>
<asrwt>0</asrwt>
<pdfrwt beam="1">  1        1 0.17188770E+00 0.15707801E+04</pdfrwt>
<pdfrwt beam="2">  1       -2 0.38824198E+00 0.15707801E+04</pdfrwt>
<totfact> 0.89910828E-02</totfact>
</mgrwt>
</event>
<event>
12    3  0.1176505E-007  0.4178469E+03  0.7818608E-02  0.1037769E+00
         -4   -1    0    0    0  501 -0.00000000000E+00  0.00000000000E+00  0.36261831814E+03  0.36261831814E+03  0.00000000000E+00 0.  1.
          3   -1    0    0  501    0  0.00000000000E+00 -0.00000000000E+00 -0.11578821097E+04  0.11578821097E+04  0.00000000000E+00 0. -1.
        -24    2    1    2    0    0  0.33796687592E+03 -0.17683378099E+03  0.74923813806E+02  0.39683920613E+03  0.79849748461E+02 0.  0.
    5000000    2    1    2    0    0 -0.33796687592E+03  0.17683378099E+03 -0.87018760534E+03  0.11236612217E+04  0.59991355819E+03 0.  0.
        -24    2    4    4    0    0 -0.34054102708E+03  0.10204544935E+03 -0.93034929619E+03  0.99904922070E+03  0.78537046041E+02 0.  0.
         24    2    4    4    0    0  0.25741511608E+01  0.74788331648E+02  0.60161690848E+02  0.12461200098E+03  0.79427960681E+02 0.  0.
         11    1    5    5    0    0 -0.10959666466E+03  0.25332575530E+02 -0.20316682305E+03  0.23222817718E+03  0.00000000000E+00 0. -1.
        -12    1    5    5    0    0 -0.23094436242E+03  0.76712873816E+02 -0.72718247314E+03  0.76682104352E+03  0.00000000000E+00 0.  1.
         15    1    3    3    0    0  0.27799414541E+03 -0.11983358712E+03  0.34297941344E+02  0.30466430706E+03  0.17770000000E+01 0. -1.
        -16    1    3    3    0    0  0.59972730503E+02 -0.57000193870E+02  0.40625872462E+02  0.92174899070E+02  0.00000000000E+00 0.  1.
          2    1    6    6  502    0 -0.14911903894E+02 -0.25238946118E+01 -0.10509600962E+02  0.18417020230E+02  0.00000000000E+00 0. -1.
         -1    1    6    6    0  502  0.17486055055E+02  0.77312226259E+02  0.70671291811E+02  0.10619498075E+03  0.00000000000E+00 0.  1.
<mgrwt>
<rscale>  0 0.41784694E+03</rscale>
<asrwt>0</asrwt>
<pdfrwt beam="1">  1        3 0.17813571E+00 0.41784694E+03</pdfrwt>
<pdfrwt beam="2">  1       -4 0.55787434E-01 0.41784694E+03</pdfrwt>
<totfact> 0.14286975E+00</totfact>
</mgrwt>
</event>
<event>
12    3  0.1176505E-007  0.7477318E+03  0.7818608E-02  0.9638916E-01
          1   -1    0    0  501    0  0.00000000000E+00  0.00000000000E+00  0.98455814058E+03  0.98455814058E+03  0.00000000000E+00 0. -1.
         -2   -1    0    0    0  501 -0.00000000000E+00 -0.00000000000E+00 -0.78203675873E+03  0.78203675873E+03  0.00000000000E+00 0.  1.
        -24    2    1    2    0    0 -0.33370538560E+03 -0.54371613844E+03  0.52793013109E+03  0.83240482385E+03  0.84858964590E+02 0.  0.
    5000000    2    1    2    0    0  0.33370538560E+03  0.54371613844E+03 -0.32540874923E+03  0.93419007546E+03  0.59986141685E+03 0.  0.
        -24    2    4    4    0    0  0.47187389075E+03  0.30113470813E+03 -0.11872804890E+03  0.57788691432E+03  0.80683672052E+02 0.  0.
         24    2    4    4    0    0 -0.13816850515E+03  0.24258143031E+03 -0.20668070033E+03  0.35630316114E+03  0.79364630670E+02 0.  0.
         11    1    5    5    0    0  0.19063418581E+03  0.16818913647E+03 -0.44726149126E+02  0.25812672633E+03  0.00000000000E+00 0. -1.
        -12    1    5    5    0    0  0.28123970494E+03  0.13294557166E+03 -0.74001899778E+02  0.31976018800E+03  0.00000000000E+00 0.  1.
         15    1    3    3    0    0 -0.10712560561E+03 -0.22958597922E+03  0.24786755882E+03  0.35443913677E+03  0.17770000000E+01 0. -1.
        -16    1    3    3    0    0 -0.22657978000E+03 -0.31413015923E+03  0.28006257227E+03  0.47796568708E+03  0.00000000000E+00 0.  1.
          2    1    6    6  502    0  0.23528417862E+01  0.55298853143E+02 -0.49892093275E+02  0.74516575302E+02  0.00000000000E+00 0. -1.
         -1    1    6    6    0  502 -0.14052134693E+03  0.18728257717E+03 -0.15678860705E+03  0.28178658583E+03  0.00000000000E+00 0.  1.
<mgrwt>
<rscale>  0 0.74773177E+03</rscale>
<asrwt>0</asrwt>
<pdfrwt beam="1">  1        1 0.15147048E+00 0.74773177E+03</pdfrwt>
<pdfrwt beam="2">  1       -2 0.12031335E+00 0.74773177E+03</pdfrwt>
<totfact> 0.73729462E+00</totfact>
</mgrwt>
</event>
<event>
12    3  0.1176505E-007  0.5984963E+03  0.7818608E-02  0.9908531E-01
         -2   -1    0    0    0  501 -0.00000000000E+00  0.00000000000E+00  0.18163681580E+04  0.18163681580E+04  0.00000000000E+00 0.  1.
          1   -1    0    0  501    0  0.00000000000E+00 -0.00000000000E+00 -0.24591917637E+03  0.24591917637E+03  0.00000000000E+00 0. -1.
        -24    2    1    2    0    0 -0.46121671888E+03 -0.22620783589E+02  0.10311653387E+04  0.11327311104E+04  0.80902727102E+02 0.  0.
    5000000    2    1    2    0    0  0.46121671888E+03  0.22620783589E+02  0.53928364293E+03  0.92955622389E+03  0.60001280338E+03 0.  0.
        -24    2    4    4    0    0  0.48686851285E+03 -0.17749285487E+03  0.29016105081E+03  0.59907058509E+03  0.78405791726E+02 0.  0.
         24    2    4    4    0    0 -0.25651793974E+02  0.20011363846E+03  0.24912259212E+03  0.33048563880E+03  0.80344313532E+02 0.  0.
         11    1    5    5    0    0  0.31114960633E+03 -0.80878291176E+02  0.15240726492E+03  0.35578553919E+03  0.00000000000E+00 0. -1.
        -12    1    5    5    0    0  0.17571890653E+03 -0.96614563695E+02  0.13775378589E+03  0.24328504590E+03  0.00000000000E+00 0.  1.
         15    1    3    3    0    0 -0.11061148047E+03 -0.24712861847E+02  0.18732831750E+03  0.21895360563E+03  0.17770000000E+01 0. -1.
        -16    1    3    3    0    0 -0.35060523841E+03  0.20920782581E+01  0.84383702116E+03  0.91377750479E+03  0.00000000000E+00 0.  1.
          2    1    6    6  502    0  0.13402478933E+02  0.13053588534E+03  0.19116136210E+03  0.23186614708E+03  0.00000000000E+00 0. -1.
         -1    1    6    6    0  502 -0.39054272907E+02  0.69577753120E+02  0.57961230027E+02  0.98619491723E+02  0.00000000000E+00 0.  1.
<mgrwt>
<rscale>  0 0.59849627E+03</rscale>
<asrwt>0</asrwt>
<pdfrwt beam="1">  1        1 0.37833721E-01 0.59849627E+03</pdfrwt>
<pdfrwt beam="2">  1       -2 0.27944125E+00 0.59849627E+03</pdfrwt>
<totfact> 0.44641572E+00</totfact>
</mgrwt>
</event>
<event>
12    3  0.1176505E-007  0.5060742E+03  0.7818608E-02  0.1012206E+00
         -2   -1    0    0    0  501 -0.00000000000E+00  0.00000000000E+00  0.38431962600E+03  0.38431962600E+03  0.00000000000E+00 0.  1.
          1   -1    0    0  501    0  0.00000000000E+00 -0.00000000000E+00 -0.11339362663E+04  0.11339362663E+04  0.00000000000E+00 0. -1.
        -24    2    1    2    0    0 -0.22463960678E+03  0.26023714191E+03 -0.74736105134E+03  0.82649766556E+03  0.79771719022E+02 0.  0.
    5000000    2    1    2    0    0  0.22463960678E+03 -0.26023714191E+03 -0.22555889403E+01  0.69175822672E+03  0.60028162856E+03 0.  0.
        -24    2    4    4    0    0 -0.15655058675E+03  0.52781287474E+02  0.46196034627E+02  0.18990930464E+03  0.81470975534E+02 0.  0.
         24    2    4    4    0    0  0.38119019353E+03 -0.31301842938E+03 -0.48451623567E+02  0.50184892208E+03  0.78856071313E+02 0.  0.
         11    1    5    5    0    0 -0.24762395671E+02 -0.58065330296E+01  0.37645009372E+02  0.45431693737E+02  0.00000000000E+00 0. -1.
        -12    1    5    5    0    0 -0.13178819108E+03  0.58587820503E+02  0.85510252546E+01  0.14447761090E+03  0.00000000000E+00 0.  1.
         15    1    3    3    0    0 -0.79037930300E+02  0.13164070167E+03 -0.40074075226E+03  0.42915332576E+03  0.17770000000E+01 0. -1.
        -16    1    3    3    0    0 -0.14560167648E+03  0.12859644023E+03 -0.34662029908E+03  0.39734433980E+03  0.00000000000E+00 0.  1.
          4    1    6    6  502    0  0.22752842976E+03 -0.16270224551E+03  0.71816978247E+01  0.27980847705E+03  0.00000000000E+00 0. -1.
         -3    1    6    6    0  502  0.15366176377E+03 -0.15031618387E+03 -0.55633321392E+02  0.22204044502E+03  0.00000000000E+00 0.  1.
<mgrwt>
<rscale>  0 0.50607420E+03</rscale>
<asrwt>0</asrwt>
<pdfrwt beam="1">  1        1 0.17445173E+00 0.50607420E+03</pdfrwt>
<pdfrwt beam="2">  1       -2 0.59126097E-01 0.50607420E+03</pdfrwt>
<totfact> 0.29586785E+01</totfact>
</mgrwt>
</event>
<event>
12    3  0.1176505E-007  0.6190919E+03  0.7818608E-02  0.9866569E-01
         -2   -1    0    0    0  501 -0.00000000000E+00  0.00000000000E+00  0.63644902501E+03  0.63644902501E+03  0.00000000000E+00 0.  1.
          1   -1    0    0  501    0  0.00000000000E+00 -0.00000000000E+00 -0.11755899811E+04  0.11755899811E+04  0.00000000000E+00 0. -1.
        -24    2    1    2    0    0  0.37927480808E+03 -0.31168516864E+03  0.36803850982E+03  0.61875332763E+03  0.80039436201E+02 0.  0.
    5000000    2    1    2    0    0 -0.37927480808E+03  0.31168516864E+03 -0.90717946589E+03  0.11932856784E+04  0.59996591792E+03 0.  0.
        -24    2    4    4    0    0 -0.11418960444E+03 -0.15465117590E+03 -0.40911712592E+03  0.45702127940E+03  0.67345193837E+02 0.  0.
         24    2    4    4    0    0 -0.26508520364E+03  0.46633634454E+03 -0.49806233997E+03  0.73626439905E+03  0.79242787588E+02 0.  0.
         11    1    5    5    0    0 -0.11622370052E+03 -0.11379333346E+03 -0.33330801693E+03  0.37087882853E+03  0.00000000000E+00 0. -1.
        -12    1    5    5    0    0  0.20340960814E+01 -0.40857842439E+02 -0.75809108993E+02  0.86142450870E+02  0.00000000000E+00 0.  1.
         15    1    3    3    0    0  0.61292760945E+01 -0.22150030375E+02  0.30523440408E+02  0.38249575349E+02  0.17770000000E+01 0. -1.
        -16    1    3    3    0    0  0.37314553199E+03 -0.28953513826E+03  0.33751506941E+03  0.58050375228E+03  0.00000000000E+00 0.  1.
          4    1    6    6  502    0 -0.18590360576E+03  0.27240990763E+03 -0.34149567014E+03  0.47474898750E+03  0.00000000000E+00 0. -1.
         -3    1    6    6    0  502 -0.79181597889E+02  0.19392643692E+03 -0.15656666983E+03  0.26151541155E+03  0.00000000000E+00 0.  1.
<mgrwt>
<rscale>  0 0.61909191E+03</rscale>
<asrwt>0</asrwt>
<pdfrwt beam="1">  1        1 0.18085999E+00 0.61909191E+03</pdfrwt>
<pdfrwt beam="2">  1       -2 0.97915236E-01 0.61909191E+03</pdfrwt>
<totfact> 0.88682667E+00</totfact>
</mgrwt>
</event>
<event>
12    3  0.1176505E-007  0.1241817E+04  0.7818608E-02  0.9077021E-01
         -2   -1    0    0    0  501 -0.00000000000E+00  0.00000000000E+00  0.73488572030E+03  0.73488572030E+03  0.00000000000E+00 0.  1.
          1   -1    0    0  501    0  0.00000000000E+00 -0.00000000000E+00 -0.22492874284E+04  0.22492874284E+04  0.00000000000E+00 0. -1.
        -24    2    1    2    0    0 -0.91251992719E+03 -0.78943279723E+03 -0.55793302434E+03  0.13317070687E+04  0.79105614888E+02 0.  0.
    5000000    2    1    2    0    0  0.91251992719E+03  0.78943279723E+03 -0.95646868375E+03  0.16524660800E+04  0.59992919892E+03 0.  0.
        -24    2    4    4    0    0  0.25893254227E+03  0.49794637915E+03 -0.18324199749E+03  0.59582987508E+03  0.80243083455E+02 0.  0.
         24    2    4    4    0    0  0.65358738491E+03  0.29148641807E+03 -0.77322668626E+03  0.10566362049E+04  0.80372629393E+02 0.  0.
         13    1    5    5    0    0  0.23918880691E+03  0.46105847095E+03 -0.14530303104E+03  0.53935069279E+03  0.00000000000E+00 0. -1.
        -14    1    5    5    0    0  0.19743735370E+02  0.36887908200E+02 -0.37938966444E+02  0.56479182293E+02  0.00000000000E+00 0.  1.
         15    1    3    3    0    0 -0.56903947767E+03 -0.48084887729E+03 -0.38542844263E+03  0.83879664523E+03  0.17770000000E+01 0. -1.
        -16    1    3    3    0    0 -0.34348044952E+03 -0.30858391994E+03 -0.17250458171E+03  0.49291042346E+03  0.00000000000E+00 0.  1.
          2    1    6    6  502    0  0.15428834692E+03  0.70297648723E+02 -0.23594107119E+03  0.29054232477E+03  0.00000000000E+00 0. -1.
         -1    1    6    6    0  502  0.49929903800E+03  0.22118876935E+03 -0.53728561507E+03  0.76609388015E+03  0.00000000000E+00 0.  1.
<mgrwt>
<rscale>  0 0.12418174E+04</rscale>
<asrwt>0</asrwt>
<pdfrwt beam="1">  1        1 0.34604422E+00 0.12418174E+04</pdfrwt>
<pdfrwt beam="2">  1       -2 0.11305934E+00 0.12418174E+04</pdfrwt>
<totfact> 0.10634470E+00</totfact>
</mgrwt>
</event>
<event>
12    3  0.1176505E-007  0.7685671E+03  0.7818608E-02  0.9606664E-01
         -2   -1    0    0    0  501 -0.00000000000E+00  0.00000000000E+00  0.74805485478E+03  0.74805485478E+03  0.00000000000E+00 0.  1.
          1   -1    0    0  501    0  0.00000000000E+00 -0.00000000000E+00 -0.25730833824E+04  0.25730833824E+04  0.00000000000E+00 0. -1.
        -24    2    1    2    0    0  0.65849044871E+03 -0.14766653837E+03  0.48906005130E+03  0.83708957602E+03  0.78256928842E+02 0.  0.
    5000000    2    1    2    0    0 -0.65849044871E+03  0.14766653837E+03 -0.23140885789E+04  0.24840486612E+04  0.60006393188E+03 0.  0.
        -24    2    4    4    0    0 -0.43962857932E+03 -0.15709280083E+03 -0.88600046150E+03  0.10053377783E+04  0.88066990365E+02 0.  0.
         24    2    4    4    0    0 -0.21886186939E+03  0.30475933920E+03 -0.14280881174E+04  0.14787108829E+04  0.79821246528E+02 0.  0.
         11    1    5    5    0    0 -0.33694520994E+03 -0.15805664443E+03 -0.68145713506E+03  0.77646494079E+03  0.00000000000E+00 0. -1.
        -12    1    5    5    0    0 -0.10268336938E+03  0.96384359416E+00 -0.20454332644E+03  0.22887283747E+03  0.00000000000E+00 0.  1.
         15    1    3    3    0    0  0.42263157361E+03 -0.58454339699E+02  0.32342857074E+03  0.53539102994E+03  0.17770000000E+01 0. -1.
        -16    1    3    3    0    0  0.23585887510E+03 -0.89212198671E+02  0.16563148056E+03  0.30169854608E+03  0.00000000000E+00 0.  1.
          4    1    6    6  502    0 -0.62790145599E+02  0.35250302374E+02 -0.28499620309E+03  0.29395241448E+03  0.00000000000E+00 0. -1.
         -3    1    6    6    0  502 -0.15607172379E+03  0.26950903683E+03 -0.11430919144E+04  0.11847584684E+04  0.00000000000E+00 0.  1.
<mgrwt>
<rscale>  0 0.76856710E+03</rscale>
<asrwt>0</asrwt>
<pdfrwt beam="1">  1        1 0.39585898E+00 0.76856710E+03</pdfrwt>
<pdfrwt beam="2">  1       -2 0.11508536E+00 0.76856710E+03</pdfrwt>
<totfact> 0.65752878E-01</totfact>
</mgrwt>
</event>
<event>
12    3  0.1176505E-007  0.1092956E+04  0.7818608E-02  0.9212084E-01
          1   -1    0    0  501    0  0.00000000000E+00  0.00000000000E+00  0.91592605017E+03  0.91592605017E+03  0.00000000000E+00 0. -1.
         -2   -1    0    0    0  501 -0.00000000000E+00 -0.00000000000E+00 -0.16594553346E+04  0.16594553346E+04  0.00000000000E+00 0.  1.
        -24    2    1    2    0    0  0.81766957049E+03 -0.69070392413E+03  0.11203207436E+03  0.10792900995E+04  0.81611860810E+02 0.  0.
    5000000    2    1    2    0    0 -0.81766957049E+03  0.69070392413E+03 -0.85556135877E+03  0.14960912853E+04  0.60054013848E+03 0.  0.
        -24    2    4    4    0    0 -0.41129267363E+03  0.17739555182E+03 -0.56281362028E+02  0.45982138418E+03  0.87391466729E+02 0.  0.
         24    2    4    4    0    0 -0.40637689687E+03  0.51330837231E+03 -0.79927999674E+03  0.10362699011E+04  0.79869439197E+02 0.  0.
         13    1    5    5    0    0 -0.25977718366E+03  0.15337380159E+03 -0.53539647460E+02  0.30638897176E+03  0.00000000000E+00 0. -1.
        -14    1    5    5    0    0 -0.15151548996E+03  0.24021750225E+02 -0.27417145682E+01  0.15343241242E+03  0.00000000000E+00 0.  1.
         15    1    3    3    0    0  0.61748800458E+03 -0.55018347498E+03  0.59825488219E+02  0.82920174790E+03  0.17770000000E+01 0. -1.
        -16    1    3    3    0    0  0.20018156592E+03 -0.14052044914E+03  0.52206586137E+02  0.25008835158E+03  0.00000000000E+00 0.  1.
          2    1    6    6  502    0 -0.17531050814E+03  0.28347461739E+03 -0.42074271579E+03  0.53676444169E+03  0.00000000000E+00 0. -1.
         -1    1    6    6    0  502 -0.23106638873E+03  0.22983375492E+03 -0.37853728095E+03  0.49950545940E+03  0.00000000000E+00 0.  1.
<mgrwt>
<rscale>  0 0.10929565E+04</rscale>
<asrwt>0</asrwt>
<pdfrwt beam="1">  1        1 0.14091170E+00 0.10929565E+04</pdfrwt>
<pdfrwt beam="2">  1       -2 0.25530082E+00 0.10929565E+04</pdfrwt>
<totfact> 0.91393388E-01</totfact>
</mgrwt>
</event>
<event>
12    3  0.1176505E-007  0.7428106E+03  0.7818608E-02  0.9646697E-01
          1   -1    0    0  501    0  0.00000000000E+00  0.00000000000E+00  0.71445144795E+03  0.71445144795E+03  0.00000000000E+00 0. -1.
         -2   -1    0    0    0  501 -0.00000000000E+00 -0.00000000000E+00 -0.97099578945E+03  0.97099578945E+03  0.00000000000E+00 0.  1.
        -24    2    1    2    0    0  0.52048506294E+03  0.48464994427E+03  0.15512829451E+02  0.71606299842E+03  0.81946937778E+02 0.  0.
    5000000    2    1    2    0    0 -0.52048506294E+03 -0.48464994427E+03 -0.27205717095E+03  0.96938423898E+03  0.59991701867E+03 0.  0.
        -24    2    4    4    0    0 -0.21896331931E+02 -0.73340486946E+01  0.13865791445E+03  0.16253804319E+03  0.81604905630E+02 0.  0.
         24    2    4    4    0    0 -0.49858873101E+03 -0.47731589557E+03 -0.41071508540E+03  0.80684619579E+03  0.76764024304E+02 0.  0.
         11    1    5    5    0    0  0.33961126662E+00  0.31704519437E+02  0.25174812526E+02  0.40485343944E+02  0.00000000000E+00 0. -1.
        -12    1    5    5    0    0 -0.22235943197E+02 -0.39038568132E+02  0.11348310192E+03  0.12205269924E+03  0.00000000000E+00 0.  1.
         15    1    3    3    0    0  0.28731703311E+03  0.21448384587E+03  0.20808082153E+02  0.35915251867E+03  0.17770000000E+01 0. -1.
        -16    1    3    3    0    0  0.23316802983E+03  0.27016609840E+03 -0.52952527023E+01  0.35691047976E+03  0.00000000000E+00 0.  1.
          2    1    6    6  502    0 -0.14096040545E+03 -0.94583476377E+02 -0.82934790534E+02  0.18892868863E+03  0.00000000000E+00 0. -1.
         -1    1    6    6    0  502 -0.35762832556E+03 -0.38273241920E+03 -0.32778029487E+03  0.61791750716E+03  0.00000000000E+00 0.  1.
<mgrwt>
<rscale>  0 0.74281063E+03</rscale>
<asrwt>0</asrwt>
<pdfrwt beam="1">  1        1 0.10991561E+00 0.74281063E+03</pdfrwt>
<pdfrwt beam="2">  1       -2 0.14938397E+00 0.74281063E+03</pdfrwt>
<totfact> 0.71663620E+00</totfact>
</mgrwt>
</event>
<event>
12    3  0.1189741E-007  0.8824939E+03  0.7818608E-02  0.9447733E-01
          1   -1    0    0  501    0  0.00000000000E+00  0.00000000000E+00  0.13799805785E+04  0.13799805785E+04  0.00000000000E+00 0. -1.
         -2   -1    0    0    0  501 -0.00000000000E+00 -0.00000000000E+00 -0.68052011963E+03  0.68052011963E+03  0.00000000000E+00 0.  1.
        -24    2    1    2    0    0 -0.15452921987E+03  0.84115452205E+03  0.12432079414E+03  0.86792962347E+03  0.80162096287E+02 0.  0.
    5000000    2    1    2    0    0  0.15452921987E+03 -0.84115452205E+03  0.57513966475E+03  0.11925710747E+04  0.60001660349E+03 0.  0.
        -24    2    4    4    0    0  0.15951654783E+03 -0.20175903234E+03  0.46713926651E+03  0.53912039111E+03  0.79243079344E+02 0.  0.
         24    2    4    4    0    0 -0.49873279622E+01 -0.63939548971E+03  0.10800039824E+03  0.65345068358E+03  0.80512385134E+02 0.  0.
         11    1    5    5    0    0  0.12901875223E+03 -0.10270511994E+03  0.30387899673E+03  0.34574069003E+03  0.00000000000E+00 0. -1.
        -12    1    5    5    0    0  0.30497795607E+02 -0.99053912403E+02  0.16326026978E+03  0.19337970108E+03  0.00000000000E+00 0.  1.
         15    1    3    3    0    0 -0.53167110071E+02  0.38352517039E+03  0.19835882362E+02  0.38770467868E+03  0.17770000000E+01 0. -1.
        -16    1    3    3    0    0 -0.10136210980E+03  0.45762935166E+03  0.10448491178E+03  0.48022494479E+03  0.00000000000E+00 0.  1.
          4    1    6    6  502    0 -0.21425441267E+02 -0.33904101518E+03  0.21221797874E+02  0.34037952966E+03  0.00000000000E+00 0. -1.
         -3    1    6    6    0  502  0.16438113305E+02 -0.30035447452E+03  0.86778600365E+02  0.31307115392E+03  0.00000000000E+00 0.  1.
<mgrwt>
<rscale>  0 0.88249395E+03</rscale>
<asrwt>0</asrwt>
<pdfrwt beam="1">  1        1 0.21230470E+00 0.88249395E+03</pdfrwt>
<pdfrwt beam="2">  1       -2 0.10469540E+00 0.88249395E+03</pdfrwt>
<totfact> 0.52207910E+00</totfact>
</mgrwt>
</event>
<event>
12    3  0.1176505E-007  0.1120895E+04  0.7818608E-02  0.9185062E-01
          1   -1    0    0  501    0  0.00000000000E+00  0.00000000000E+00  0.99199125604E+03  0.99199125604E+03  0.00000000000E+00 0. -1.
         -2   -1    0    0    0  501 -0.00000000000E+00 -0.00000000000E+00 -0.13095821388E+04  0.13095821388E+04  0.00000000000E+00 0.  1.
        -24    2    1    2    0    0  0.50040484364E+03 -0.92755791215E+03 -0.41135823875E+02  0.10576850017E+04  0.78972900265E+02 0.  0.
    5000000    2    1    2    0    0 -0.50040484364E+03  0.92755791215E+03 -0.27645505893E+03  0.12438883931E+04  0.60005187028E+03 0.  0.
        -24    2    4    4    0    0 -0.54287129182E+03  0.46025303061E+03 -0.27738913351E+03  0.76807294336E+03  0.80307056174E+02 0.  0.
         24    2    4    4    0    0  0.42466448180E+02  0.46730488155E+03  0.93407457976E+00  0.47581544977E+03  0.78881038324E+02 0.  0.
         13    1    5    5    0    0 -0.34501102070E+03  0.27987233247E+03 -0.21310377469E+03  0.49272136718E+03  0.00000000000E+00 0. -1.
        -14    1    5    5    0    0 -0.19786027112E+03  0.18038069814E+03 -0.64285358813E+02  0.27535157618E+03  0.00000000000E+00 0.  1.
         15    1    3    3    0    0  0.22749902350E+03 -0.39504637865E+03 -0.54828792299E+02  0.45915879734E+03  0.17770000000E+01 0. -1.
        -16    1    3    3    0    0  0.27290582014E+03 -0.53251153350E+03  0.13692968424E+02  0.59852620441E+03  0.00000000000E+00 0.  1.
          4    1    6    6  502    0  0.58680386318E+02  0.21923016609E+03  0.83440480471E+01  0.22710102729E+03  0.00000000000E+00 0. -1.
         -3    1    6    6    0  502 -0.16213938138E+02  0.24807471546E+03 -0.74099734674E+01  0.24871442248E+03  0.00000000000E+00 0.  1.
<mgrwt>
<rscale>  0 0.11208952E+04</rscale>
<asrwt>0</asrwt>
<pdfrwt beam="1">  1        1 0.15261404E+00 0.11208952E+04</pdfrwt>
<pdfrwt beam="2">  1       -2 0.20147417E+00 0.11208952E+04</pdfrwt>
<totfact> 0.17216336E+00</totfact>
</mgrwt>
</event>
<event>
12    3  0.1176505E-007  0.4013622E+03  0.7818608E-02  0.1043309E+00
         -2   -1    0    0    0  501 -0.00000000000E+00  0.00000000000E+00  0.10629405128E+03  0.10629405128E+03  0.00000000000E+00 0.  1.
          1   -1    0    0  501    0  0.00000000000E+00 -0.00000000000E+00 -0.27458736311E+04  0.27458736311E+04  0.00000000000E+00 0. -1.
        -24    2    1    2    0    0  0.12418695390E+03 -0.28246604791E+03 -0.38986440937E+03  0.50353407001E+03  0.79641912505E+02 0.  0.
    5000000    2    1    2    0    0 -0.12418695390E+03  0.28246604791E+03 -0.22497151704E+04  0.23486336123E+04  0.59970995425E+03 0.  0.
        -24    2    4    4    0    0 -0.15395914060E+03  0.35913597987E+03 -0.79742250246E+03  0.89180074294E+03  0.82120939308E+02 0.  0.
         24    2    4    4    0    0  0.29772186703E+02 -0.76669931956E+02 -0.14522926679E+04  0.14568328694E+04  0.80270507423E+02 0.  0.
         13    1    5    5    0    0  0.10212007681E+02  0.24079826307E+02 -0.53896770416E+02  0.59908137988E+02  0.00000000000E+00 0. -1.
        -14    1    5    5    0    0 -0.16417114828E+03  0.33505615356E+03 -0.74352573204E+03  0.83189260495E+03  0.00000000000E+00 0.  1.
         15    1    3    3    0    0  0.45172275513E+02 -0.50088115958E+02 -0.48517630845E+02  0.83105186764E+02  0.17770000000E+01 0. -1.
        -16    1    3    3    0    0  0.79014678385E+02 -0.23237793195E+03 -0.34134677853E+03  0.42042888325E+03  0.00000000000E+00 0.  1.
          4    1    6    6  502    0  0.37411839625E+02 -0.47947346111E+02 -0.44898956950E+03  0.45308964594E+03  0.00000000000E+00 0. -1.
         -3    1    6    6    0  502 -0.76396529215E+01 -0.28722585844E+02 -0.10033030984E+04  0.10037432234E+04  0.00000000000E+00 0.  1.
<mgrwt>
<rscale>  0 0.40136223E+03</rscale>
<asrwt>0</asrwt>
<pdfrwt beam="1">  1        1 0.42244214E+00 0.40136223E+03</pdfrwt>
<pdfrwt beam="2">  1       -2 0.16352929E-01 0.40136223E+03</pdfrwt>
<totfact> 0.27187647E+01</totfact>
</mgrwt>
</event>
<event>
12    3  0.1176505E-007  0.7846843E+03  0.7818608E-02  0.9582454E-01
         -2   -1    0    0    0  501 -0.00000000000E+00  0.00000000000E+00  0.21028805518E+03  0.21028805518E+03  0.00000000000E+00 0.  1.
          1   -1    0    0  501    0  0.00000000000E+00 -0.00000000000E+00 -0.31372783358E+04  0.31372783358E+04  0.00000000000E+00 0. -1.
        -24    2    1    2    0    0 -0.69290659615E+03  0.81408248866E+02 -0.13545975002E+04  0.15257515653E+04  0.78972131289E+02 0.  0.
    5000000    2    1    2    0    0  0.69290659615E+03 -0.81408248866E+02 -0.15723927804E+04  0.18218148257E+04  0.59986944344E+03 0.  0.
        -24    2    4    4    0    0 -0.50054667033E+01 -0.16414812451E+03 -0.54424007997E+03  0.57402379013E+03  0.79601416477E+02 0.  0.
         24    2    4    4    0    0  0.69791206285E+03  0.82739875646E+02 -0.10281527005E+04  0.12477910356E+04  0.77183926225E+02 0.  0.
         11    1    5    5    0    0 -0.12121828282E+02 -0.11230467514E+03 -0.46876356364E+03  0.48218104211E+03  0.00000000000E+00 0. -1.
        -12    1    5    5    0    0  0.71163615786E+01 -0.51843449367E+02 -0.75476516336E+02  0.91842748014E+02  0.00000000000E+00 0.  1.
         15    1    3    3    0    0 -0.39608514828E+03  0.21781953714E+02 -0.70146338680E+03  0.80586099232E+03  0.17770000000E+01 0. -1.
        -16    1    3    3    0    0 -0.29682144787E+03  0.59626295152E+02 -0.65313411335E+03  0.71989057294E+03  0.00000000000E+00 0.  1.
          4    1    6    6  502    0  0.55051006888E+03  0.86102841430E+02 -0.85270887861E+03  0.10186203743E+04  0.00000000000E+00 0. -1.
         -3    1    6    6    0  502  0.14740199398E+03 -0.33629657843E+01 -0.17544382184E+03  0.22917066128E+03  0.00000000000E+00 0.  1.
<mgrwt>
<rscale>  0 0.78468428E+03</rscale>
<asrwt>0</asrwt>
<pdfrwt beam="1">  1        1 0.48265822E+00 0.78468428E+03</pdfrwt>
<pdfrwt beam="2">  1       -2 0.32352008E-01 0.78468428E+03</pdfrwt>
<totfact> 0.39328641E+00</totfact>
</mgrwt>
</event>
<event>
12    3  0.1295344E-007  0.1262896E+04  0.7818608E-02  0.9059518E-01
         -2   -1    0    0    0  501 -0.00000000000E+00  0.00000000000E+00  0.98518553138E+03  0.98518553138E+03  0.00000000000E+00 0.  1.
          1   -1    0    0  501    0  0.00000000000E+00 -0.00000000000E+00 -0.26243725996E+04  0.26243725996E+04  0.00000000000E+00 0. -1.
        -24    2    1    2    0    0 -0.66132795462E+03 -0.10451123858E+04  0.25882449664E+03  0.12660903041E+04  0.79874749076E+02 0.  0.
    5000000    2    1    2    0    0  0.66132795462E+03  0.10451123858E+04 -0.18980115649E+04  0.23434678269E+04  0.59981579905E+03 0.  0.
        -24    2    4    4    0    0  0.19392484992E+02  0.29624884521E+03 -0.16667994119E+03  0.34929506960E+03  0.78008948776E+02 0.  0.
         24    2    4    4    0    0  0.64193546963E+03  0.74886354060E+03 -0.17313316237E+04  0.19941727573E+04  0.79611840727E+02 0.  0.
         11    1    5    5    0    0 -0.44282635155E+01  0.23303137146E+03 -0.15706860298E+03  0.28105831361E+03  0.00000000000E+00 0. -1.
        -12    1    5    5    0    0  0.23820748507E+02  0.63217473749E+02 -0.96113382055E+01  0.68236755995E+02  0.00000000000E+00 0.  1.
         15    1    3    3    0    0 -0.52536900931E+03 -0.83782050799E+03  0.17420059344E+03  0.10041438164E+04  0.17770000000E+01 0. -1.
        -16    1    3    3    0    0 -0.13595894531E+03 -0.20729187782E+03  0.84623903201E+02  0.26194648769E+03  0.00000000000E+00 0.  1.
          2    1    6    6  502    0  0.26684380364E+03  0.35933232838E+03 -0.73517447095E+03  0.86070136546E+03  0.00000000000E+00 0. -1.
         -1    1    6    6    0  502  0.37509166599E+03  0.38953121221E+03 -0.99615715273E+03  0.11334713918E+04  0.00000000000E+00 0.  1.
<mgrwt>
<rscale>  0 0.12628961E+04</rscale>
<asrwt>0</asrwt>
<pdfrwt beam="1">  1        1 0.40374963E+00 0.12628961E+04</pdfrwt>
<pdfrwt beam="2">  1       -2 0.15156701E+00 0.12628961E+04</pdfrwt>
<totfact> 0.27631441E-01</totfact>
</mgrwt>
</event>
<event>
12    3  0.1176505E-007  0.4050322E+03  0.7818608E-02  0.1042051E+00
          3   -1    0    0  501    0  0.00000000000E+00  0.00000000000E+00  0.29328879379E+03  0.29328879379E+03  0.00000000000E+00 0. -1.
         -4   -1    0    0    0  501 -0.00000000000E+00 -0.00000000000E+00 -0.74623540481E+03  0.74623540481E+03  0.00000000000E+00 0.  1.
        -24    2    1    2    0    0 -0.23024048160E+03 -0.12050077418E+03 -0.66821790308E+02  0.27998310199E+03  0.79964178160E+02 0.  0.
    5000000    2    1    2    0    0  0.23024048160E+03  0.12050077418E+03 -0.38612482071E+03  0.75954109661E+03  0.60023260852E+03 0.  0.
        -24    2    4    4    0    0 -0.12913500853E+03 -0.49741685447E+02 -0.30982970175E+03  0.34672465729E+03  0.71228212023E+02 0.  0.
         24    2    4    4    0    0  0.35937549014E+03  0.17024245963E+03 -0.76295118959E+02  0.41281643933E+03  0.80394212659E+02 0.  0.
         11    1    5    5    0    0 -0.64688665910E+02 -0.27607958812E+02 -0.77722443013E+02  0.10482175840E+03  0.00000000000E+00 0. -1.
        -12    1    5    5    0    0 -0.64446342621E+02 -0.22133726635E+02 -0.23210725873E+03  0.24190289888E+03  0.00000000000E+00 0.  1.
         15    1    3    3    0    0 -0.21342533776E+03 -0.82758058839E+02 -0.67494449128E+02  0.23865860448E+03  0.17770000000E+01 0. -1.
        -16    1    3    3    0    0 -0.16815143847E+02 -0.37742715346E+02  0.67265881985E+00  0.41324497507E+02  0.00000000000E+00 0.  1.
          2    1    6    6  502    0  0.24328037809E+03  0.14267659081E+03 -0.80897677954E+02  0.29340481629E+03  0.00000000000E+00 0. -1.
         -1    1    6    6    0  502  0.11609511205E+03  0.27565868825E+02  0.46025589956E+01  0.11941162303E+03  0.00000000000E+00 0.  1.
<mgrwt>
<rscale>  0 0.40503222E+03</rscale>
<asrwt>0</asrwt>
<pdfrwt beam="1">  1        3 0.45121353E-01 0.40503222E+03</pdfrwt>
<pdfrwt beam="2">  1       -4 0.11480545E+00 0.40503222E+03</pdfrwt>
<totfact> 0.64794831E+00</totfact>
</mgrwt>
</event>
<event>
12    3  0.1176505E-007  0.1124287E+04  0.7818608E-02  0.9181838E-01
         -4   -1    0    0    0  501 -0.00000000000E+00  0.00000000000E+00  0.37185066396E+03  0.37185066396E+03  0.00000000000E+00 0.  1.
          1   -1    0    0  501    0  0.00000000000E+00 -0.00000000000E+00 -0.44788700543E+04  0.44788700543E+04  0.00000000000E+00 0. -1.
        -24    2    1    2    0    0 -0.10991968449E+04 -0.19190298608E+03 -0.28691823483E+04  0.30795664279E+04  0.80383929361E+02 0.  0.
    5000000    2    1    2    0    0  0.10991968449E+04  0.19190298608E+03 -0.12378370420E+04  0.17711542904E+04  0.59973870778E+03 0.  0.
        -24    2    4    4    0    0  0.23479150693E+03  0.26803005064E+02  0.38934822842E+00  0.24998595851E+03  0.81531435953E+02 0.  0.
         24    2    4    4    0    0  0.86440533801E+03  0.16509998102E+03 -0.12382263903E+04  0.15211683319E+04  0.79334155112E+02 0.  0.
         13    1    5    5    0    0  0.19819498407E+03  0.52044291694E+02  0.70347523557E+01  0.20503499153E+03  0.00000000000E+00 0. -1.
        -14    1    5    5    0    0  0.36596522862E+02 -0.25241286630E+02 -0.66454041273E+01  0.44950966979E+02  0.00000000000E+00 0.  1.
         15    1    3    3    0    0 -0.47875994959E+03 -0.93223561946E+02 -0.13614260639E+04  0.14461624415E+04  0.17770000000E+01 0. -1.
        -16    1    3    3    0    0 -0.62043689536E+03 -0.98679424136E+02 -0.15077562844E+04  0.16334039865E+04  0.00000000000E+00 0.  1.
          2    1    6    6  502    0  0.84019481389E+03  0.17285194221E+03 -0.11945163610E+04  0.14706034326E+04  0.00000000000E+00 0. -1.
         -1    1    6    6    0  502  0.24210524121E+02 -0.77519611900E+01 -0.43710029225E+02  0.50564899242E+02  0.00000000000E+00 0.  1.
<mgrwt>
<rscale>  0 0.11242868E+04</rscale>
<asrwt>0</asrwt>
<pdfrwt beam="1">  1        1 0.68905691E+00 0.11242868E+04</pdfrwt>
<pdfrwt beam="2">  1       -4 0.57207797E-01 0.11242868E+04</pdfrwt>
<totfact> 0.50013699E-02</totfact>
</mgrwt>
</event>
<event>
12    3  0.1176505E-007  0.1207313E+04  0.7818608E-02  0.9106479E-01
         -2   -1    0    0    0  501 -0.00000000000E+00  0.00000000000E+00  0.11727666347E+04  0.11727666347E+04  0.00000000000E+00 0.  1.
          1   -1    0    0  501    0  0.00000000000E+00 -0.00000000000E+00 -0.24002794964E+04  0.24002794964E+04  0.00000000000E+00 0. -1.
        -24    2    1    2    0    0  0.72230779556E+03  0.96171945790E+03  0.56606685908E+03  0.13317251182E+04  0.80170033429E+02 0.  0.
    5000000    2    1    2    0    0 -0.72230779556E+03 -0.96171945790E+03 -0.17935797208E+04  0.22413210130E+04  0.59996566661E+03 0.  0.
        -24    2    4    4    0    0 -0.84085253402E+02 -0.12025541525E+03 -0.10515941345E+02  0.16742972360E+03  0.79940181285E+02 0.  0.
         24    2    4    4    0    0 -0.63822254216E+03 -0.84146404265E+03 -0.17830637794E+04  0.20738912894E+04  0.79491447230E+02 0.  0.
         13    1    5    5    0    0 -0.75047338739E+02 -0.69996867075E+02 -0.38006266738E+02  0.10943555530E+03  0.00000000000E+00 0. -1.
        -14    1    5    5    0    0 -0.90379146631E+01 -0.50258548179E+02  0.27490325393E+02  0.57994168299E+02  0.00000000000E+00 0.  1.
         15    1    3    3    0    0  0.11540404169E+03  0.12717058976E+03  0.10684780225E+03  0.20226236010E+03  0.17770000000E+01 0. -1.
        -16    1    3    3    0    0  0.60690375388E+03  0.83454886814E+03  0.45921905683E+03  0.11294627581E+04  0.00000000000E+00 0.  1.
          4    1    6    6  502    0 -0.44259414259E+03 -0.54438691615E+03 -0.11250808539E+04  0.13259161426E+04  0.00000000000E+00 0. -1.
         -3    1    6    6    0  502 -0.19562839958E+03 -0.29707712650E+03 -0.65798292555E+03  0.74797514673E+03  0.00000000000E+00 0.  1.
<mgrwt>
<rscale>  0 0.12073130E+04</rscale>
<asrwt>0</asrwt>
<pdfrwt beam="1">  1        1 0.36927377E+00 0.12073130E+04</pdfrwt>
<pdfrwt beam="2">  1       -2 0.18042564E+00 0.12073130E+04</pdfrwt>
<totfact> 0.24533580E-01</totfact>
</mgrwt>
</event>
<event>
12    3  0.1176505E-007  0.6126512E+03  0.7818608E-02  0.9879501E-01
         -2   -1    0    0    0  501 -0.00000000000E+00  0.00000000000E+00  0.15987831640E+04  0.15987831640E+04  0.00000000000E+00 0.  1.
          1   -1    0    0  501    0  0.00000000000E+00 -0.00000000000E+00 -0.28899842804E+03  0.28899842804E+03  0.00000000000E+00 0. -1.
        -24    2    1    2    0    0  0.33746633827E+03  0.41006201548E+03  0.69369148450E+03  0.87703216462E+03  0.77091867887E+02 0.  0.
    5000000    2    1    2    0    0 -0.33746633827E+03 -0.41006201548E+03  0.61609325148E+03  0.10107494274E+04  0.60000760372E+03 0.  0.
        -24    2    4    4    0    0  0.10430252751E+03 -0.53860009142E+02 -0.27602634196E+02  0.14875755767E+03  0.87103316364E+02 0.  0.
         24    2    4    4    0    0 -0.44176886578E+03 -0.35620200634E+03  0.64369588567E+03  0.86199186976E+03  0.81522942773E+02 0.  0.
         11    1    5    5    0    0  0.26084823028E+02 -0.33262973165E+01 -0.46796175987E+02  0.53678341379E+02  0.00000000000E+00 0. -1.
        -12    1    5    5    0    0  0.78217704479E+02 -0.50533711825E+02  0.19193541791E+02  0.95079216295E+02  0.00000000000E+00 0.  1.
         15    1    3    3    0    0  0.19436754646E+03  0.18140754299E+03  0.31736272686E+03  0.41401654303E+03  0.17770000000E+01 0. -1.
        -16    1    3    3    0    0  0.14309879181E+03  0.22865447249E+03  0.37632875764E+03  0.46301562159E+03  0.00000000000E+00 0.  1.
          2    1    6    6  502    0 -0.30911487548E+03 -0.28117557195E+03  0.43076812207E+03  0.60014405229E+03  0.00000000000E+00 0. -1.
         -1    1    6    6    0  502 -0.13265399030E+03 -0.75026434391E+02  0.21292776360E+03  0.26184781746E+03  0.00000000000E+00 0.  1.
<mgrwt>
<rscale>  0 0.61265116E+03</rscale>
<asrwt>0</asrwt>
<pdfrwt beam="1">  1        1 0.44461297E-01 0.61265116E+03</pdfrwt>
<pdfrwt beam="2">  1       -2 0.24596664E+00 0.61265116E+03</pdfrwt>
<totfact> 0.57418821E+00</totfact>
</mgrwt>
</event>
<event>
12    3  0.1176505E-007  0.4992012E+03  0.7818608E-02  0.1013988E+00
          1   -1    0    0  501    0  0.00000000000E+00  0.00000000000E+00  0.10775198786E+04  0.10775198786E+04  0.00000000000E+00 0. -1.
         -2   -1    0    0    0  501 -0.00000000000E+00 -0.00000000000E+00 -0.30396542556E+03  0.30396542556E+03  0.00000000000E+00 0.  1.
        -24    2    1    2    0    0  0.39612193707E+03 -0.92217008825E+02  0.34691494407E+03  0.54041611451E+03  0.79265583022E+02 0.  0.
    5000000    2    1    2    0    0 -0.39612193707E+03  0.92217008825E+02  0.42663950898E+03  0.84106918966E+03  0.59996628691E+03 0.  0.
        -24    2    4    4    0    0 -0.16320789471E+03  0.24250143616E+03  0.45944267600E+03  0.55011448261E+03  0.78067970425E+02 0.  0.
         24    2    4    4    0    0 -0.23291404236E+03 -0.15028442734E+03 -0.32803167018E+02  0.29095470706E+03  0.82123282705E+02 0.  0.
         13    1    5    5    0    0 -0.21599303830E+02  0.61659152803E+02  0.56830131491E+02  0.86591251842E+02  0.00000000000E+00 0. -1.
        -14    1    5    5    0    0 -0.14160859088E+03  0.18084228336E+03  0.40261254451E+03  0.46352323076E+03  0.00000000000E+00 0.  1.
         15    1    3    3    0    0  0.24839644053E+03 -0.18022588035E+02  0.20839933216E+03  0.32474458382E+03  0.17770000000E+01 0. -1.
        -16    1    3    3    0    0  0.14772549654E+03 -0.74194420790E+02  0.13851561191E+03  0.21567153068E+03  0.00000000000E+00 0.  1.
          2    1    6    6  502    0  0.22557445139E+01  0.61609512003E+01 -0.18090935229E+01  0.68057712552E+01  0.00000000000E+00 0. -1.
         -1    1    6    6    0  502 -0.23516978688E+03 -0.15644537854E+03 -0.30994073496E+02  0.28414893580E+03  0.00000000000E+00 0.  1.
<mgrwt>
<rscale>  0 0.49920125E+03</rscale>
<asrwt>0</asrwt>
<pdfrwt beam="1">  1        1 0.16577229E+00 0.49920125E+03</pdfrwt>
<pdfrwt beam="2">  1       -2 0.46763912E-01 0.49920125E+03</pdfrwt>
<totfact> 0.52635293E+01</totfact>
</mgrwt>
</event>
<event>
12    3  0.1176505E-007  0.6958388E+03  0.7818608E-02  0.9724375E-01
          1   -1    0    0  501    0  0.00000000000E+00  0.00000000000E+00  0.40600318383E+03  0.40600318383E+03  0.00000000000E+00 0. -1.
         -2   -1    0    0    0  501 -0.00000000000E+00 -0.00000000000E+00 -0.15628443450E+04  0.15628443450E+04  0.00000000000E+00 0.  1.
        -24    2    1    2    0    0  0.14993052646E+02 -0.63350289812E+03 -0.80558712831E+03  0.10282092621E+04  0.81810462755E+02 0.  0.
    5000000    2    1    2    0    0 -0.14993052646E+02  0.63350289812E+03 -0.35125403290E+03  0.94063826677E+03  0.59989185669E+03 0.  0.
        -24    2    4    4    0    0  0.13934181412E+03  0.53638161660E+02  0.85341662304E+02  0.19425887157E+03  0.90333362102E+02 0.  0.
         24    2    4    4    0    0 -0.15433486677E+03  0.57986473646E+03 -0.43659569521E+03  0.74637939520E+03  0.80025226111E+02 0.  0.
         11    1    5    5    0    0  0.65205195860E+01 -0.38035854935E+01  0.42749380907E+02  0.43410759107E+02  0.00000000000E+00 0. -1.
        -12    1    5    5    0    0  0.13282129454E+03  0.57441747153E+02  0.42592281397E+02  0.15084811246E+03  0.00000000000E+00 0.  1.
         15    1    3    3    0    0  0.12688602396E+02 -0.12543951980E+03 -0.11348347912E+03  0.16964000566E+03  0.17770000000E+01 0. -1.
        -16    1    3    3    0    0  0.23044502507E+01 -0.50806337832E+03 -0.69210364919E+03  0.85856925644E+03  0.00000000000E+00 0.  1.
          2    1    6    6  502    0 -0.10480178380E+03  0.24112648170E+03 -0.18270887246E+03  0.32016859018E+03  0.00000000000E+00 0. -1.
         -1    1    6    6    0  502 -0.49533082963E+02  0.33873825476E+03 -0.25388682275E+03  0.42621080502E+03  0.00000000000E+00 0.  1.
<mgrwt>
<rscale>  0 0.69583877E+03</rscale>
<asrwt>0</asrwt>
<pdfrwt beam="1">  1        1 0.62462028E-01 0.69583877E+03</pdfrwt>
<pdfrwt beam="2">  1       -2 0.24043759E+00 0.69583877E+03</pdfrwt>
<totfact> 0.39343773E+00</totfact>
</mgrwt>
</event>
<event>
12    3  0.1176505E-007  0.1505277E+04  0.7818608E-02  0.8880951E-01
          1   -1    0    0  501    0  0.00000000000E+00  0.00000000000E+00  0.31444292674E+04  0.31444292674E+04  0.00000000000E+00 0. -1.
         -2   -1    0    0    0  501 -0.00000000000E+00 -0.00000000000E+00 -0.77586673917E+03  0.77586673917E+03  0.00000000000E+00 0.  1.
        -24    2    1    2    0    0  0.27118815280E+03 -0.14469010720E+04  0.75954952996E+03  0.16584588266E+04  0.80650261316E+02 0.  0.
    5000000    2    1    2    0    0 -0.27118815280E+03  0.14469010720E+04  0.16090129983E+04  0.22618371800E+04  0.59993239103E+03 0.  0.
        -24    2    4    4    0    0 -0.33442495562E+03  0.63234550850E+03  0.47627380968E+03  0.86296422328E+03  0.78546901912E+02 0.  0.
         24    2    4    4    0    0  0.63236802821E+02  0.81455556350E+03  0.11327391886E+04  0.13988729567E+04  0.79043155300E+02 0.  0.
         11    1    5    5    0    0 -0.73338962947E+02  0.10082741127E+03  0.11280111629E+03  0.16813346539E+03  0.00000000000E+00 0. -1.
        -12    1    5    5    0    0 -0.26108599267E+03  0.53151809723E+03  0.36347269340E+03  0.69483075789E+03  0.00000000000E+00 0.  1.
         15    1    3    3    0    0  0.12093189845E+03 -0.80238010930E+03  0.38708450385E+03  0.89904167574E+03  0.17770000000E+01 0. -1.
        -16    1    3    3    0    0  0.15025625434E+03 -0.64452096271E+03  0.37246502611E+03  0.75941715086E+03  0.00000000000E+00 0.  1.
          2    1    6    6  502    0 -0.62912775287E+01  0.40378989545E+03  0.57866857405E+03  0.70565088991E+03  0.00000000000E+00 0. -1.
         -1    1    6    6    0  502  0.69528080349E+02  0.41076566805E+03  0.55407061457E+03  0.69322206683E+03  0.00000000000E+00 0.  1.
<mgrwt>
<rscale>  0 0.15052770E+04</rscale>
<asrwt>0</asrwt>
<pdfrwt beam="1">  1        1 0.48375834E+00 0.15052770E+04</pdfrwt>
<pdfrwt beam="2">  1       -2 0.11936412E+00 0.15052770E+04</pdfrwt>
<totfact> 0.21067657E-01</totfact>
</mgrwt>
</event>
<event>
12    3  0.1176505E-007  0.5893073E+03  0.7818608E-02  0.9927842E-01
         -4   -1    0    0    0  501 -0.00000000000E+00  0.00000000000E+00  0.37984355037E+03  0.37984355037E+03  0.00000000000E+00 0.  1.
          3   -1    0    0  501    0  0.00000000000E+00 -0.00000000000E+00 -0.98340991088E+03  0.98340991088E+03  0.00000000000E+00 0. -1.
        -24    2    1    2    0    0 -0.37337508131E+03  0.26754100844E+03 -0.23284295444E+03  0.52159508871E+03  0.82815774982E+02 0.  0.
    5000000    2    1    2    0    0  0.37337508131E+03 -0.26754100844E+03 -0.37072340606E+03  0.84165837254E+03  0.59997152410E+03 0.  0.
        -24    2    4    4    0    0 -0.32198536067E+02 -0.30010421339E+03 -0.27625949352E+03  0.41675033983E+03  0.79134400659E+02 0.  0.
         24    2    4    4    0    0  0.40557361738E+03  0.32563204956E+02 -0.94463912548E+02  0.42490803271E+03  0.77929994610E+02 0.  0.
         11    1    5    5    0    0 -0.38523138658E+02 -0.17106056810E+03 -0.20293566404E+03  0.26819514147E+03  0.00000000000E+00 0. -1.
        -12    1    5    5    0    0  0.63246025910E+01 -0.12904364530E+03 -0.73323829473E+02  0.14855519835E+03  0.00000000000E+00 0.  1.
         15    1    3    3    0    0 -0.29726314921E+03  0.17143867769E+03 -0.18625772805E+03  0.39045063590E+03  0.17770000000E+01 0. -1.
        -16    1    3    3    0    0 -0.76111932100E+02  0.96102330749E+02 -0.46585226397E+02  0.13114445281E+03  0.00000000000E+00 0.  1.
          2    1    6    6  502    0  0.24457729628E+03  0.36430620019E+02 -0.92032323147E+02  0.26384691098E+03  0.00000000000E+00 0. -1.
         -1    1    6    6    0  502  0.16099632110E+03 -0.38674150625E+01 -0.24315894009E+01  0.16106112173E+03  0.00000000000E+00 0.  1.
<mgrwt>
<rscale>  0 0.58930728E+03</rscale>
<asrwt>0</asrwt>
<pdfrwt beam="1">  1        3 0.15129383E+00 0.58930728E+03</pdfrwt>
<pdfrwt beam="2">  1       -4 0.58437469E-01 0.58930728E+03</pdfrwt>
<totfact> 0.19922542E+00</totfact>
</mgrwt>
</event>
<event>
12    3  0.1176505E-007  0.4573262E+03  0.7818608E-02  0.1025560E+00
          1   -1    0    0  501    0  0.00000000000E+00  0.00000000000E+00  0.23743932108E+03  0.23743932108E+03  0.00000000000E+00 0. -1.
         -2   -1    0    0    0  501 -0.00000000000E+00 -0.00000000000E+00 -0.14718525323E+04  0.14718525323E+04  0.00000000000E+00 0.  1.
        -24    2    1    2    0    0 -0.10286990642E+03  0.41289545680E+03 -0.58042121990E+03  0.72474098469E+03  0.85415610324E+02 0.  0.
    5000000    2    1    2    0    0  0.10286990642E+03 -0.41289545680E+03 -0.65399199134E+03  0.98455086872E+03  0.60047482250E+03 0.  0.
        -24    2    4    4    0    0 -0.36298753855E+02 -0.26201588259E+03 -0.70650517367E+03  0.75828637800E+03  0.76672996387E+02 0.  0.
         24    2    4    4    0    0  0.13916866028E+03 -0.15087957422E+03  0.52513182335E+02  0.22626449072E+03  0.79406696952E+02 0.  0.
         13    1    5    5    0    0 -0.32167753134E+02 -0.26546913841E+03 -0.70219423956E+03  0.75138896576E+03  0.00000000000E+00 0. -1.
        -14    1    5    5    0    0 -0.41310007210E+01  0.34532558228E+01 -0.43109341135E+01  0.68974122441E+01  0.00000000000E+00 0.  1.
         15    1    3    3    0    0 -0.43763958948E+02  0.15087840523E+03 -0.14893137171E+03  0.21647930265E+03  0.17770000000E+01 0. -1.
        -16    1    3    3    0    0 -0.59105947476E+02  0.26201705157E+03 -0.43148984819E+03  0.50826168204E+03  0.00000000000E+00 0.  1.
          2    1    6    6  502    0  0.10004867235E+03 -0.14561909574E+03  0.58990025845E+02  0.18626454582E+03  0.00000000000E+00 0. -1.
         -1    1    6    6    0  502  0.39119987932E+02 -0.52604784796E+01 -0.64768435104E+01  0.39999944893E+02  0.00000000000E+00 0.  1.
<mgrwt>
<rscale>  0 0.45732616E+03</rscale>
<asrwt>0</asrwt>
<pdfrwt beam="1">  1        1 0.36529126E-01 0.45732616E+03</pdfrwt>
<pdfrwt beam="2">  1       -2 0.22643885E+00 0.45732616E+03</pdfrwt>
<totfact> 0.99465315E+00</totfact>
</mgrwt>
</event>
<event>
12    3  0.1176505E-007  0.8567787E+03  0.7818608E-02  0.9481284E-01
          1   -1    0    0  501    0  0.00000000000E+00  0.00000000000E+00  0.37218014718E+03  0.37218014718E+03  0.00000000000E+00 0. -1.
         -2   -1    0    0    0  501 -0.00000000000E+00 -0.00000000000E+00 -0.20421323178E+04  0.20421323178E+04  0.00000000000E+00 0.  1.
        -24    2    1    2    0    0  0.76092990426E+03  0.79950733060E+02 -0.79524937963E+03  0.11064690739E+04  0.80285720124E+02 0.  0.
    5000000    2    1    2    0    0 -0.76092990426E+03 -0.79950733060E+02 -0.87470279098E+03  0.13078433910E+04  0.59995243481E+03 0.  0.
        -24    2    4    4    0    0 -0.35135743240E+03  0.23277829377E+03 -0.52893635679E+03  0.68103493244E+03  0.79982062462E+02 0.  0.
         24    2    4    4    0    0 -0.40957247186E+03 -0.31272902683E+03 -0.34576643418E+03  0.62680845860E+03  0.88234703125E+02 0.  0.
         11    1    5    5    0    0 -0.22540258857E+03  0.11682658173E+03 -0.36000374255E+03  0.44051954756E+03  0.00000000000E+00 0. -1.
        -12    1    5    5    0    0 -0.12595484382E+03  0.11595171204E+03 -0.16893261424E+03  0.24051538488E+03  0.00000000000E+00 0.  1.
         15    1    3    3    0    0  0.43174671681E+03  0.14572923741E+02 -0.48391074644E+03  0.64868356371E+03  0.17770000000E+01 0. -1.
        -16    1    3    3    0    0  0.32918318745E+03  0.65377809319E+02 -0.31133863319E+03  0.45778551022E+03  0.00000000000E+00 0.  1.
          4    1    6    6  502    0 -0.15890225475E+03 -0.76223323405E+02 -0.14297395904E+03  0.22693936318E+03  0.00000000000E+00 0. -1.
         -3    1    6    6    0  502 -0.25067021711E+03 -0.23650570343E+03 -0.20279247514E+03  0.39986909542E+03  0.00000000000E+00 0.  1.
<mgrwt>
<rscale>  0 0.85677874E+03</rscale>
<asrwt>0</asrwt>
<pdfrwt beam="1">  1        1 0.57258484E-01 0.85677874E+03</pdfrwt>
<pdfrwt beam="2">  1       -2 0.31417420E+00 0.85677874E+03</pdfrwt>
<totfact> 0.15507037E+00</totfact>
</mgrwt>
</event>
<event>
12    3  0.1176505E-007  0.9490337E+03  0.7818608E-02  0.9366281E-01
          1   -1    0    0  501    0  0.00000000000E+00  0.00000000000E+00  0.18876250816E+04  0.18876250816E+04  0.00000000000E+00 0. -1.
         -2   -1    0    0    0  501 -0.00000000000E+00 -0.00000000000E+00 -0.54410760489E+03  0.54410760489E+03  0.00000000000E+00 0.  1.
        -24    2    1    2    0    0  0.14063442189E+03  0.88717516017E+03  0.85919736928E+03  0.12479555075E+04  0.11097307674E+03 0.  0.
    5000000    2    1    2    0    0 -0.14063442189E+03 -0.88717516017E+03  0.48432010749E+03  0.11837771791E+04  0.59992052619E+03 0.  0.
        -24    2    4    4    0    0 -0.23623151258E+03 -0.83147891190E+03  0.23816929637E+03  0.90107171678E+03  0.89683424222E+02 0.  0.
         24    2    4    4    0    0  0.95597090689E+02 -0.55696248276E+02  0.24615081111E+03  0.28270546230E+03  0.84209742804E+02 0.  0.
         13    1    5    5    0    0 -0.20862753853E+02 -0.29783574110E+02 -0.33858862022E+01  0.36520953034E+02  0.00000000000E+00 0. -1.
        -14    1    5    5    0    0 -0.21536875872E+03 -0.80169533779E+03  0.24155518258E+03  0.86455076375E+03  0.00000000000E+00 0.  1.
         15    1    3    3    0    0  0.43810277652E+02  0.23467682689E+03  0.16420035341E+03  0.28975414975E+03  0.17770000000E+01 0. -1.
        -16    1    3    3    0    0  0.96824144237E+02  0.65249833328E+03  0.69499701587E+03  0.95820135771E+03  0.00000000000E+00 0.  1.
          2    1    6    6  502    0 -0.12127470022E+02 -0.44473660948E+00  0.55884604227E+02  0.57187081665E+02  0.00000000000E+00 0. -1.
         -1    1    6    6    0  502  0.10772456071E+03 -0.55251511667E+02  0.19026620688E+03  0.22551838063E+03  0.00000000000E+00 0.  1.
<mgrwt>
<rscale>  0 0.94903371E+03</rscale>
<asrwt>0</asrwt>
<pdfrwt beam="1">  1        1 0.29040386E+00 0.94903371E+03</pdfrwt>
<pdfrwt beam="2">  1       -2 0.83708863E-01 0.94903371E+03</pdfrwt>
<totfact> 0.39373112E+00</totfact>
</mgrwt>
</event>
<event>
12    3  0.1176505E-007  0.5334664E+03  0.7818608E-02  0.1005395E+00
          1   -1    0    0  501    0  0.00000000000E+00  0.00000000000E+00  0.36092860913E+03  0.36092860913E+03  0.00000000000E+00 0. -1.
         -2   -1    0    0    0  501 -0.00000000000E+00 -0.00000000000E+00 -0.10553318903E+04  0.10553318903E+04  0.00000000000E+00 0.  1.
        -24    2    1    2    0    0 -0.28026886436E+03  0.37096857719E+03 -0.21119111034E+03  0.51645041972E+03  0.77142915095E+02 0.  0.
    5000000    2    1    2    0    0  0.28026886436E+03 -0.37096857719E+03 -0.48321217082E+03  0.89981007970E+03  0.59999654658E+03 0.  0.
        -24    2    4    4    0    0 -0.27035944392E+01  0.63630565216E+02  0.80671606031E+02  0.12949358768E+03  0.78768794442E+02 0.  0.
         24    2    4    4    0    0  0.28297245880E+03 -0.43459914240E+03 -0.56388377685E+03  0.77031649202E+03  0.80453446578E+02 0.  0.
         11    1    5    5    0    0  0.58371866584E+01 -0.31273035402E+01  0.58146237572E+02  0.58522113080E+02  0.00000000000E+00 0. -1.
        -12    1    5    5    0    0 -0.85407810977E+01  0.66757868756E+02  0.22525368458E+02  0.70971474599E+02  0.00000000000E+00 0.  1.
         15    1    3    3    0    0 -0.60044588358E+02  0.13391146117E+03 -0.81348863920E+02  0.16780473001E+03  0.17770000000E+01 0. -1.
        -16    1    3    3    0    0 -0.22022427601E+03  0.23705711601E+03 -0.12984224642E+03  0.34864568970E+03  0.00000000000E+00 0.  1.
          2    1    6    6  502    0  0.23627628800E+03 -0.31117429626E+03 -0.39020998555E+03  0.55219539997E+03  0.00000000000E+00 0. -1.
         -1    1    6    6    0  502  0.46696170798E+02 -0.12342484615E+03 -0.17367379130E+03  0.21812109205E+03  0.00000000000E+00 0.  1.
<mgrwt>
<rscale>  0 0.53346638E+03</rscale>
<asrwt>0</asrwt>
<pdfrwt beam="1">  1        1 0.55527479E-01 0.53346638E+03</pdfrwt>
<pdfrwt beam="2">  1       -2 0.16235875E+00 0.53346638E+03</pdfrwt>
<totfact> 0.15156878E+01</totfact>
</mgrwt>
</event>
<event>
12    3  0.1176505E-007  0.9171256E+03  0.7818608E-02  0.9404423E-01
          1   -1    0    0  501    0  0.00000000000E+00  0.00000000000E+00  0.32472127886E+04  0.32472127886E+04  0.00000000000E+00 0. -1.
         -2   -1    0    0    0  501 -0.00000000000E+00 -0.00000000000E+00 -0.35115479237E+03  0.35115479237E+03  0.00000000000E+00 0.  1.
        -24    2    1    2    0    0  0.62106325320E+03  0.58293843458E+03  0.51324167868E+03  0.99772250084E+03  0.80600154845E+02 0.  0.
    5000000    2    1    2    0    0 -0.62106325320E+03 -0.58293843458E+03  0.23828163175E+04  0.26006450801E+04  0.60000370550E+03 0.  0.
        -24    2    4    4    0    0 -0.55696677279E+03 -0.20884388300E+03  0.18252885532E+04  0.19214608377E+04  0.80657888979E+02 0.  0.
         24    2    4    4    0    0 -0.64096480407E+02 -0.37409455159E+03  0.55752776433E+03  0.67918424238E+03  0.79993341979E+02 0.  0.
         13    1    5    5    0    0 -0.41200796224E+03 -0.12972250156E+03  0.12276003970E+04  0.13013766646E+04  0.00000000000E+00 0. -1.
        -14    1    5    5    0    0 -0.14495881056E+03 -0.79121381441E+02  0.59768815619E+03  0.62008417316E+03  0.00000000000E+00 0.  1.
         15    1    3    3    0    0  0.53204902888E+03  0.48436234893E+03  0.46361596430E+03  0.85593573022E+03  0.17770000000E+01 0. -1.
        -16    1    3    3    0    0  0.89014224324E+02  0.98576085656E+02  0.49625714381E+02  0.14178677062E+03  0.00000000000E+00 0.  1.
          2    1    6    6  502    0 -0.67274484575E+02 -0.20592685155E+03  0.27113965798E+03  0.34705682330E+03  0.00000000000E+00 0. -1.
         -1    1    6    6    0  502  0.31780041685E+01 -0.16816770003E+03  0.28638810635E+03  0.33212741908E+03  0.00000000000E+00 0.  1.
<mgrwt>
<rscale>  0 0.91712562E+03</rscale>
<asrwt>0</asrwt>
<pdfrwt beam="1">  1        1 0.49957118E+00 0.91712562E+03</pdfrwt>
<pdfrwt beam="2">  1       -2 0.54023816E-01 0.91712562E+03</pdfrwt>
<totfact> 0.11598461E+00</totfact>
</mgrwt>
</event>
<event>
12    3  0.1176505E-007  0.6935649E+03  0.7818608E-02  0.9728301E-01
          1   -1    0    0  501    0  0.00000000000E+00  0.00000000000E+00  0.21332801625E+04  0.21332801625E+04  0.00000000000E+00 0. -1.
         -2   -1    0    0    0  501 -0.00000000000E+00 -0.00000000000E+00 -0.27281102845E+03  0.27281102845E+03  0.00000000000E+00 0.  1.
        -24    2    1    2    0    0  0.17444753807E+03  0.54954185422E+03  0.12345583190E+04  0.13648739170E+04  0.79488195529E+02 0.  0.
    5000000    2    1    2    0    0 -0.17444753807E+03 -0.54954185422E+03  0.62591081507E+03  0.10412172740E+04  0.59995072308E+03 0.  0.
        -24    2    4    4    0    0 -0.33573775230E+02 -0.63303661942E+03  0.44035794632E+03  0.77593799757E+03  0.79385737296E+02 0.  0.
         24    2    4    4    0    0 -0.14087376284E+03  0.83494765201E+02  0.18555286875E+03  0.26527927640E+03  0.95532374172E+02 0.  0.
         11    1    5    5    0    0 -0.42213285677E+02 -0.61872890636E+03  0.41743590928E+03  0.74756950139E+03  0.00000000000E+00 0. -1.
        -12    1    5    5    0    0  0.86395104469E+01 -0.14307713058E+02  0.22922037039E+02  0.28368496184E+02  0.00000000000E+00 0.  1.
         15    1    3    3    0    0  0.78920429740E+02  0.13425282326E+03  0.31715126514E+03  0.35332752156E+03  0.17770000000E+01 0. -1.
        -16    1    3    3    0    0  0.95527108325E+02  0.41528903096E+03  0.91740705386E+03  0.10115463954E+04  0.00000000000E+00 0.  1.
          2    1    6    6  502    0 -0.76010491493E+02  0.67289705919E+02  0.47899944383E+02  0.11224929404E+03  0.00000000000E+00 0. -1.
         -1    1    6    6    0  502 -0.64863271342E+02  0.16205059282E+02  0.13765292437E+03  0.15302998237E+03  0.00000000000E+00 0.  1.
<mgrwt>
<rscale>  0 0.69356488E+03</rscale>
<asrwt>0</asrwt>
<pdfrwt beam="1">  1        1 0.32819694E+00 0.69356488E+03</pdfrwt>
<pdfrwt beam="2">  1       -2 0.41970929E-01 0.69356488E+03</pdfrwt>
<totfact> 0.12021990E+01</totfact>
</mgrwt>
</event>
<event>
12    3  0.1176505E-007  0.9899811E+03  0.7818608E-02  0.9319602E-01
          1   -1    0    0  501    0  0.00000000000E+00  0.00000000000E+00  0.23109345140E+04  0.23109345140E+04  0.00000000000E+00 0. -1.
         -2   -1    0    0    0  501 -0.00000000000E+00 -0.00000000000E+00 -0.54271780489E+03  0.54271780489E+03  0.00000000000E+00 0.  1.
        -24    2    1    2    0    0 -0.51746588260E+03 -0.74821759690E+03  0.14582791783E+04  0.17206301979E+04  0.79934999843E+02 0.  0.
    5000000    2    1    2    0    0  0.51746588260E+03  0.74821759690E+03  0.30993753079E+03  0.11330221209E+04  0.60006444784E+03 0.  0.
        -24    2    4    4    0    0 -0.89611971064E+02  0.28768692452E+03  0.16545501900E+03  0.35308724219E+03  0.80629804575E+02 0.  0.
         24    2    4    4    0    0  0.60707785367E+03  0.46053067238E+03  0.14448251179E+03  0.77993487874E+03  0.82408726783E+02 0.  0.
         13    1    5    5    0    0 -0.18093167786E+02  0.78328422158E+02  0.64721497786E+01  0.80651058028E+02  0.00000000000E+00 0. -1.
        -14    1    5    5    0    0 -0.71518803278E+02  0.20935850236E+03  0.15898286922E+03  0.27243618416E+03  0.00000000000E+00 0.  1.
         15    1    3    3    0    0 -0.41846488704E+03 -0.64531473724E+03  0.11948982039E+04  0.14210309100E+04  0.17770000000E+01 0. -1.
        -16    1    3    3    0    0 -0.99000995562E+02 -0.10290285966E+03  0.26338097439E+03  0.29959928791E+03  0.00000000000E+00 0.  1.
          4    1    6    6  502    0  0.17782589396E+03  0.89699237647E+02  0.39796682048E+02  0.20310533646E+03  0.00000000000E+00 0. -1.
         -3    1    6    6    0  502  0.42925195970E+03  0.37083143474E+03  0.10468582974E+03  0.57682954228E+03  0.00000000000E+00 0.  1.
<mgrwt>
<rscale>  0 0.98998114E+03</rscale>
<asrwt>0</asrwt>
<pdfrwt beam="1">  1        1 0.35552838E+00 0.98998114E+03</pdfrwt>
<pdfrwt beam="2">  1       -2 0.83495048E-01 0.98998114E+03</pdfrwt>
<totfact> 0.20412918E+00</totfact>
</mgrwt>
</event>
<event>
12    3  0.1176505E-007  0.4604130E+03  0.7818608E-02  0.1024662E+00
          1   -1    0    0  501    0  0.00000000000E+00  0.00000000000E+00  0.32946828659E+04  0.32946828659E+04  0.00000000000E+00 0. -1.
         -2   -1    0    0    0  501 -0.00000000000E+00 -0.00000000000E+00 -0.69709851015E+02  0.69709851015E+02  0.00000000000E+00 0.  1.
        -24    2    1    2    0    0  0.12566573582E+03  0.25055513895E+03  0.11512221206E+04  0.11874627321E+04  0.78648677386E+02 0.  0.
    5000000    2    1    2    0    0 -0.12566573582E+03 -0.25055513895E+03  0.20737508942E+04  0.21769299847E+04  0.60000969344E+03 0.  0.
        -24    2    4    4    0    0 -0.11031272160E+02 -0.42411203683E+03  0.11904087676E+04  0.12661672211E+04  0.78190082075E+02 0.  0.
         24    2    4    4    0    0 -0.11463446366E+03  0.17355689788E+03  0.88334212663E+03  0.91076276366E+03  0.77022347023E+02 0.  0.
         11    1    5    5    0    0 -0.37395436884E+02 -0.16292074054E+03  0.40900704805E+03  0.44184652511E+03  0.00000000000E+00 0. -1.
        -12    1    5    5    0    0  0.26364164724E+02 -0.26119129629E+03  0.78140171957E+03  0.82432069596E+03  0.00000000000E+00 0.  1.
         15    1    3    3    0    0  0.69817841157E+02  0.16295186609E+03  0.86468927989E+03  0.88267692283E+03  0.17770000000E+01 0. -1.
        -16    1    3    3    0    0  0.55847894667E+02  0.87603272864E+02  0.28653284071E+03  0.30478580932E+03  0.00000000000E+00 0.  1.
          2    1    6    6  502    0 -0.32910637430E+02  0.75245765461E+02  0.49907371254E+03  0.50578612657E+03  0.00000000000E+00 0. -1.
         -1    1    6    6    0  502 -0.81723826233E+02  0.98311132417E+02  0.38426841408E+03  0.40497663710E+03  0.00000000000E+00 0.  1.
<mgrwt>
<rscale>  0 0.46041298E+03</rscale>
<asrwt>0</asrwt>
<pdfrwt beam="1">  1        1 0.50687417E+00 0.46041298E+03</pdfrwt>
<pdfrwt beam="2">  1       -2 0.10724595E-01 0.46041298E+03</pdfrwt>
<totfact> 0.21908753E+01</totfact>
</mgrwt>
</event>
<event>
12    3  0.1176505E-007  0.4576795E+03  0.7818608E-02  0.1025456E+00
         -2   -1    0    0    0  501 -0.00000000000E+00  0.00000000000E+00  0.20037472558E+04  0.20037472558E+04  0.00000000000E+00 0.  1.
          1   -1    0    0  501    0  0.00000000000E+00 -0.00000000000E+00 -0.10936723312E+03  0.10936723312E+03  0.00000000000E+00 0. -1.
        -24    2    1    2    0    0 -0.25301874145E+03  0.87335340945E+02  0.60025159891E+03  0.66193937105E+03  0.78840368166E+02 0.  0.
    5000000    2    1    2    0    0  0.25301874145E+03 -0.87335340945E+02  0.12941284238E+04  0.14511751179E+04  0.59957893577E+03 0.  0.
        -24    2    4    4    0    0 -0.69941392410E+02 -0.25018629282E+03  0.41329918575E+03  0.49554778475E+03  0.85243243340E+02 0.  0.
         24    2    4    4    0    0  0.32296013386E+03  0.16285095187E+03  0.88082923806E+03  0.95562733317E+03  0.80868861048E+02 0.  0.
         13    1    5    5    0    0 -0.84255115946E+02 -0.17799049009E+03  0.33089623723E+03  0.38506085095E+03  0.00000000000E+00 0. -1.
        -14    1    5    5    0    0  0.14313723537E+02 -0.72195802728E+02  0.82402948529E+02  0.11048693379E+03  0.00000000000E+00 0.  1.
         15    1    3    3    0    0 -0.10394150965E+03  0.26665971718E+01  0.17707003704E+03  0.20534825033E+03  0.17770000000E+01 0. -1.
        -16    1    3    3    0    0 -0.14907723180E+03  0.84668743773E+02  0.42318156187E+03  0.45659112072E+03  0.00000000000E+00 0.  1.
          2    1    6    6  502    0  0.21618859908E+03  0.14706053132E+03  0.65761475098E+03  0.70768741048E+03  0.00000000000E+00 0. -1.
         -1    1    6    6    0  502  0.10677153478E+03  0.15790420550E+02  0.22321448709E+03  0.24793992269E+03  0.00000000000E+00 0.  1.
<mgrwt>
<rscale>  0 0.45767952E+03</rscale>
<asrwt>0</asrwt>
<pdfrwt beam="1">  1        1 0.16825730E-01 0.45767952E+03</pdfrwt>
<pdfrwt beam="2">  1       -2 0.30826878E+00 0.45767952E+03</pdfrwt>
<totfact> 0.88393988E+00</totfact>
</mgrwt>
</event>
<event>
12    3  0.1176505E-007  0.6192291E+03  0.7818608E-02  0.9866296E-01
          1   -1    0    0  501    0  0.00000000000E+00  0.00000000000E+00  0.71461158762E+03  0.71461158762E+03  0.00000000000E+00 0. -1.
         -2   -1    0    0    0  501 -0.00000000000E+00 -0.00000000000E+00 -0.55006398371E+03  0.55006398371E+03  0.00000000000E+00 0.  1.
        -24    2    1    2    0    0 -0.43751982253E+03  0.17276657861E+03 -0.29527312224E+02  0.47748661481E+03  0.76483458110E+02 0.  0.
    5000000    2    1    2    0    0  0.43751982253E+03 -0.17276657861E+03  0.19407491614E+03  0.78718895652E+03  0.60060760434E+03 0.  0.
        -24    2    4    4    0    0 -0.13062258734E+03  0.25576693370E+02  0.31545196593E+02  0.15871985609E+03  0.80501339867E+02 0.  0.
         24    2    4    4    0    0  0.56814240988E+03 -0.19834327198E+03  0.16252971955E+03  0.62846910043E+03  0.80197562455E+02 0.  0.
         13    1    5    5    0    0 -0.14125039240E+03  0.29360449635E+02  0.29497875881E+02  0.14725431755E+03  0.00000000000E+00 0. -1.
        -14    1    5    5    0    0  0.10627805058E+02 -0.37837562648E+01  0.20473207124E+01  0.11465538536E+02  0.00000000000E+00 0.  1.
         15    1    3    3    0    0 -0.26955472044E+03  0.14565011066E+03 -0.21932806358E+02  0.30717732301E+03  0.17770000000E+01 0. -1.
        -16    1    3    3    0    0 -0.16796510210E+03  0.27116467945E+02 -0.75945058661E+01  0.17030929181E+03  0.00000000000E+00 0.  1.
          2    1    6    6  502    0  0.37140169987E+03 -0.16673085808E+03  0.12338204344E+03  0.42539573381E+03  0.00000000000E+00 0. -1.
         -1    1    6    6    0  502  0.19674071000E+03 -0.31612413899E+02  0.39147676112E+02  0.20307336662E+03  0.00000000000E+00 0.  1.
<mgrwt>
<rscale>  0 0.61922906E+03</rscale>
<asrwt>0</asrwt>
<pdfrwt beam="1">  1        1 0.10994024E+00 0.61922906E+03</pdfrwt>
<pdfrwt beam="2">  1       -2 0.84625228E-01 0.61922906E+03</pdfrwt>
<totfact> 0.29058677E+01</totfact>
</mgrwt>
</event>
<event>
12    3  0.1176505E-007  0.6148848E+03  0.7818608E-02  0.9874997E-01
          1   -1    0    0  501    0  0.00000000000E+00  0.00000000000E+00  0.28440418376E+03  0.28440418376E+03  0.00000000000E+00 0. -1.
         -2   -1    0    0    0  501 -0.00000000000E+00 -0.00000000000E+00 -0.14010595493E+04  0.14010595493E+04  0.00000000000E+00 0.  1.
        -24    2    1    2    0    0  0.47017457790E+03 -0.97988273765E+02 -0.34845899254E+03  0.59879731357E+03  0.80428339247E+02 0.  0.
    5000000    2    1    2    0    0 -0.47017457790E+03  0.97988273765E+02 -0.76819637295E+03  0.10866664194E+04  0.60004366861E+03 0.  0.
        -24    2    4    4    0    0 -0.58420438190E+03 -0.30344588765E+01 -0.64834281285E+03  0.87667152781E+03  0.83069831578E+02 0.  0.
         24    2    4    4    0    0  0.11402980400E+03  0.10102273264E+03 -0.11985356010E+03  0.20999489164E+03  0.80774933829E+02 0.  0.
         13    1    5    5    0    0 -0.49832161020E+03 -0.99702252349E+01 -0.59127563084E+03  0.77332444951E+03  0.00000000000E+00 0. -1.
        -14    1    5    5    0    0 -0.85882771700E+02  0.69357663584E+01 -0.57067182011E+02  0.10334707830E+03  0.00000000000E+00 0.  1.
         15    1    3    3    0    0  0.30708018537E+03 -0.79218254404E+02 -0.18513105601E+03  0.36721987651E+03  0.17770000000E+01 0. -1.
        -16    1    3    3    0    0  0.16309439253E+03 -0.18770019361E+02 -0.16332793653E+03  0.23157743706E+03  0.00000000000E+00 0.  1.
          4    1    6    6  502    0  0.51386151163E+02  0.84145053767E+01 -0.70838261220E+02  0.87917004526E+02  0.00000000000E+00 0. -1.
         -3    1    6    6    0  502  0.62643652838E+02  0.92608227264E+02 -0.49015298883E+02  0.12207788712E+03  0.00000000000E+00 0.  1.
<mgrwt>
<rscale>  0 0.61488476E+03</rscale>
<asrwt>0</asrwt>
<pdfrwt beam="1">  1        1 0.43754490E-01 0.61488476E+03</pdfrwt>
<pdfrwt beam="2">  1       -2 0.21554762E+00 0.61488476E+03</pdfrwt>
<totfact> 0.90107968E+00</totfact>
</mgrwt>
</event>
<event>
12    3  0.1176505E-007  0.2481960E+03  0.7818608E-02  0.1114450E+00
         -2   -1    0    0    0  501 -0.00000000000E+00  0.00000000000E+00  0.39130228284E+03  0.39130228284E+03  0.00000000000E+00 0.  1.
          1   -1    0    0  501    0  0.00000000000E+00 -0.00000000000E+00 -0.57591840864E+03  0.57591840864E+03  0.00000000000E+00 0. -1.
        -24    2    1    2    0    0  0.13446757114E+03  0.25892316505E+02 -0.29917387052E+03  0.34136995471E+03  0.90975279229E+02 0.  0.
    5000000    2    1    2    0    0 -0.13446757114E+03 -0.25892316505E+02  0.11455774473E+03  0.62585073678E+03  0.59984475334E+03 0.  0.
        -24    2    4    4    0    0 -0.11389521146E+03 -0.15202441543E+03  0.31359579420E+03  0.37623845046E+03  0.84436410299E+02 0.  0.
         24    2    4    4    0    0 -0.20572359682E+02  0.12613209892E+03 -0.19903804947E+03  0.24961228632E+03  0.79734684940E+02 0.  0.
         13    1    5    5    0    0 -0.31120447374E+02 -0.10960206291E+03  0.15482009172E+03  0.19222475189E+03  0.00000000000E+00 0. -1.
        -14    1    5    5    0    0 -0.82774764083E+02 -0.42422352513E+02  0.15877570248E+03  0.18401369857E+03  0.00000000000E+00 0.  1.
         15    1    3    3    0    0  0.29626178611E+02 -0.25816326372E+02 -0.12936473690E+03  0.13521311345E+03  0.17770000000E+01 0. -1.
        -16    1    3    3    0    0  0.10484139253E+03  0.51708642878E+02 -0.16980913362E+03  0.20615684126E+03  0.00000000000E+00 0.  1.
          2    1    6    6  502    0  0.14840860383E+01  0.95237304696E+02 -0.79101770020E+02  0.12381210255E+03  0.00000000000E+00 0. -1.
         -1    1    6    6    0  502 -0.22056445720E+02  0.30894794227E+02 -0.11993627945E+03  0.12580018377E+03  0.00000000000E+00 0.  1.
<mgrwt>
<rscale>  0 0.24819601E+03</rscale>
<asrwt>0</asrwt>
<pdfrwt beam="1">  1        1 0.88602831E-01 0.24819601E+03</pdfrwt>
<pdfrwt beam="2">  1       -2 0.60200352E-01 0.24819601E+03</pdfrwt>
<totfact> 0.87327444E+01</totfact>
</mgrwt>
</event>
<event>
12    3  0.1176505E-007  0.1074459E+04  0.7818608E-02  0.9230450E-01
          1   -1    0    0  501    0  0.00000000000E+00  0.00000000000E+00  0.24071501919E+04  0.24071501919E+04  0.00000000000E+00 0. -1.
         -2   -1    0    0    0  501 -0.00000000000E+00 -0.00000000000E+00 -0.54276969871E+03  0.54276969871E+03  0.00000000000E+00 0.  1.
        -24    2    1    2    0    0 -0.65284286555E+03 -0.75189160388E+03  0.13478874846E+04  0.16777158338E+04  0.79905923381E+02 0.  0.
    5000000    2    1    2    0    0  0.65284286555E+03  0.75189160388E+03  0.51649300860E+03  0.12722040569E+04  0.60016109778E+03 0.  0.
        -24    2    4    4    0    0 -0.79578810105E+02  0.23728326656E+03  0.90918985787E+02  0.27776034020E+03  0.79046878546E+02 0.  0.
         24    2    4    4    0    0  0.73242167565E+03  0.51460833732E+03  0.42557402281E+03  0.99444371666E+03  0.80881424981E+02 0.  0.
         13    1    5    5    0    0 -0.73587134523E+02  0.17611191991E+03  0.10024764818E+03  0.21559235995E+03  0.00000000000E+00 0. -1.
        -14    1    5    5    0    0 -0.59916755819E+01  0.61171346646E+02 -0.93286623973E+01  0.62167980254E+02  0.00000000000E+00 0.  1.
         15    1    3    3    0    0 -0.36323858273E+03 -0.36970057238E+03  0.74034119721E+03  0.90373061651E+03  0.17770000000E+01 0. -1.
        -16    1    3    3    0    0 -0.28960428281E+03 -0.38219103150E+03  0.60754628743E+03  0.77398521727E+03  0.00000000000E+00 0.  1.
          2    1    6    6  502    0  0.45993950096E+03  0.37003664006E+03  0.28111365802E+03  0.65383204897E+03  0.00000000000E+00 0. -1.
         -1    1    6    6    0  502  0.27248217469E+03  0.14457169727E+03  0.14446036479E+03  0.34061166770E+03  0.00000000000E+00 0.  1.
<mgrwt>
<rscale>  0 0.10744585E+04</rscale>
<asrwt>0</asrwt>
<pdfrwt beam="1">  1        1 0.37033079E+00 0.10744585E+04</pdfrwt>
<pdfrwt beam="2">  1       -2 0.83503032E-01 0.10744585E+04</pdfrwt>
<totfact> 0.17352155E+00</totfact>
</mgrwt>
</event>
<event>
12    3  0.1176505E-007  0.5272580E+03  0.7818608E-02  0.1006899E+00
         -2   -1    0    0    0  501 -0.00000000000E+00  0.00000000000E+00  0.47753421741E+03  0.47753421741E+03  0.00000000000E+00 0.  1.
          1   -1    0    0  501    0  0.00000000000E+00 -0.00000000000E+00 -0.93019912723E+03  0.93019912723E+03  0.00000000000E+00 0. -1.
        -24    2    1    2    0    0 -0.14403159184E+03 -0.50392187081E+03 -0.11915660632E+03  0.54393015503E+03  0.83542596278E+02 0.  0.
    5000000    2    1    2    0    0  0.14403159184E+03  0.50392187081E+03 -0.33350830350E+03  0.86380318961E+03  0.60020480717E+03 0.  0.
        -24    2    4    4    0    0  0.99937919348E+02  0.38162235762E+03 -0.49774286048E+03  0.64017108026E+03  0.80298476220E+02 0.  0.
         24    2    4    4    0    0  0.44093672492E+02  0.12229951318E+03  0.16423455698E+03  0.22363210935E+03  0.78338418056E+02 0.  0.
         13    1    5    5    0    0 -0.50754548926E+01  0.12105286706E+02 -0.24299043286E+01  0.13349256296E+02  0.00000000000E+00 0. -1.
        -14    1    5    5    0    0  0.10501337424E+03  0.36951707092E+03 -0.49531295615E+03  0.62682182397E+03  0.00000000000E+00 0.  1.
         15    1    3    3    0    0 -0.58712470167E+02 -0.26562453064E+03 -0.22422033099E+02  0.27296419312E+03  0.17770000000E+01 0. -1.
        -16    1    3    3    0    0 -0.85319121674E+02 -0.23829734017E+03 -0.96734573224E+02  0.27096596191E+03  0.00000000000E+00 0.  1.
          4    1    6    6  502    0  0.19267331299E+02  0.85859225081E+02  0.50056659208E+02  0.10123589145E+03  0.00000000000E+00 0. -1.
         -1    1    6    6    0  502  0.24826341193E+02  0.36440288102E+02  0.11417789778E+03  0.12239621789E+03  0.00000000000E+00 0.  1.
<mgrwt>
<rscale>  0 0.52725797E+03</rscale>
<asrwt>0</asrwt>
<pdfrwt beam="1">  1        1 0.14310756E+00 0.52725797E+03</pdfrwt>
<pdfrwt beam="2">  1       -2 0.73466803E-01 0.52725797E+03</pdfrwt>
<totfact> 0.26428384E+01</totfact>
</mgrwt>
</event>
<event>
12    3  0.1176505E-007  0.7867062E+03  0.7818608E-02  0.9579461E-01
         -2   -1    0    0    0  501 -0.00000000000E+00  0.00000000000E+00  0.86018088630E+03  0.86018088630E+03  0.00000000000E+00 0.  1.
          1   -1    0    0  501    0  0.00000000000E+00 -0.00000000000E+00 -0.94271219294E+03  0.94271219294E+03  0.00000000000E+00 0. -1.
        -24    2    1    2    0    0  0.42863679632E+03  0.64608628672E+03 -0.22720639674E+03  0.81182238326E+03  0.79220213226E+02 0.  0.
    5000000    2    1    2    0    0 -0.42863679632E+03 -0.64608628672E+03  0.14467509010E+03  0.99107069598E+03  0.60011103113E+03 0.  0.
        -24    2    4    4    0    0 -0.17078093868E+03 -0.15897336312E+03 -0.21519033529E+03  0.32820198116E+03  0.83492519643E+02 0.  0.
         24    2    4    4    0    0 -0.25785585765E+03 -0.48711292360E+03  0.35986542539E+03  0.66286871483E+03  0.78250655205E+02 0.  0.
         13    1    5    5    0    0 -0.98553952573E+02 -0.47297748500E+02 -0.13175606268E+03  0.17120052171E+03  0.00000000000E+00 0. -1.
        -14    1    5    5    0    0 -0.72226986102E+02 -0.11167561462E+03 -0.83434272609E+02  0.15700145945E+03  0.00000000000E+00 0.  1.
         15    1    3    3    0    0  0.33310243426E+03  0.54820647568E+03 -0.20371086669E+03  0.67304446111E+03  0.17770000000E+01 0. -1.
        -16    1    3    3    0    0  0.95534362059E+02  0.97879811041E+02 -0.23495530051E+02  0.13877792215E+03  0.00000000000E+00 0.  1.
          4    1    6    6  502    0 -0.18082548459E+03 -0.38091579320E+03  0.30627963916E+03  0.52115440586E+03  0.00000000000E+00 0. -1.
         -3    1    6    6    0  502 -0.77030373059E+02 -0.10619713040E+03  0.53585786234E+02  0.14171430896E+03  0.00000000000E+00 0.  1.
<mgrwt>
<rscale>  0 0.78670624E+03</rscale>
<asrwt>0</asrwt>
<pdfrwt beam="1">  1        1 0.14503264E+00 0.78670624E+03</pdfrwt>
<pdfrwt beam="2">  1       -2 0.13233552E+00 0.78670624E+03</pdfrwt>
<totfact> 0.62316789E+00</totfact>
</mgrwt>
</event>
<event>
12    3  0.1176505E-007  0.5738927E+03  0.7818608E-02  0.9961101E-01
         -2   -1    0    0    0  501 -0.00000000000E+00  0.00000000000E+00  0.16330823452E+03  0.16330823452E+03  0.00000000000E+00 0.  1.
          1   -1    0    0  501    0  0.00000000000E+00 -0.00000000000E+00 -0.21587181603E+04  0.21587181603E+04  0.00000000000E+00 0. -1.
        -24    2    1    2    0    0  0.40211325680E+03 -0.13186026862E+03 -0.52910222183E+03  0.68209656130E+03  0.78894588272E+02 0.  0.
    5000000    2    1    2    0    0 -0.40211325680E+03  0.13186026862E+03 -0.14663077040E+04  0.16399298336E+04  0.60019111497E+03 0.  0.
        -24    2    4    4    0    0 -0.53447420748E+03  0.18377547715E+03 -0.11340470005E+04  0.12696019383E+04  0.79939840529E+02 0.  0.
         24    2    4    4    0    0  0.13236095068E+03 -0.51915208531E+02 -0.33226070353E+03  0.37032789522E+03  0.80814384434E+02 0.  0.
         13    1    5    5    0    0 -0.14378775908E+03  0.69985706786E+02 -0.39080221346E+03  0.42225500454E+03  0.00000000000E+00 0. -1.
        -14    1    5    5    0    0 -0.39068644840E+03  0.11378977036E+03 -0.74324478700E+03  0.84734693379E+03  0.00000000000E+00 0.  1.
         15    1    3    3    0    0  0.26255786704E+03 -0.12274479241E+03 -0.33730224560E+03  0.44472337495E+03  0.17770000000E+01 0. -1.
        -16    1    3    3    0    0  0.13955538975E+03 -0.91154762051E+01 -0.19179997623E+03  0.23737318635E+03  0.00000000000E+00 0.  1.
          2    1    6    6  502    0  0.26808026928E+02  0.10318870985E+02 -0.13566031421E+03  0.13866820204E+03  0.00000000000E+00 0. -1.
         -1    1    6    6    0  502  0.10555292375E+03 -0.62234079516E+02 -0.19660038932E+03  0.23165969319E+03  0.00000000000E+00 0.  1.
<mgrwt>
<rscale>  0 0.57389269E+03</rscale>
<asrwt>0</asrwt>
<pdfrwt beam="1">  1        1 0.33211045E+00 0.57389269E+03</pdfrwt>
<pdfrwt beam="2">  1       -2 0.25124346E-01 0.57389269E+03</pdfrwt>
<totfact> 0.30891570E+01</totfact>
</mgrwt>
</event>
<event>
12    3  0.1176505E-007  0.2749338E+03  0.7818608E-02  0.1098489E+00
          1   -1    0    0  501    0  0.00000000000E+00  0.00000000000E+00  0.22112385465E+03  0.22112385465E+03  0.00000000000E+00 0. -1.
         -2   -1    0    0    0  501 -0.00000000000E+00 -0.00000000000E+00 -0.11122283535E+04  0.11122283535E+04  0.00000000000E+00 0.  1.
        -24    2    1    2    0    0 -0.42240867154E+02 -0.25558597437E+03 -0.62329886781E+02  0.27808968092E+03  0.79626469805E+02 0.  0.
    5000000    2    1    2    0    0  0.42240867154E+02  0.25558597437E+03 -0.82877461210E+03  0.10552625273E+04  0.59966921102E+03 0.  0.
        -24    2    4    4    0    0 -0.93395693225E+01  0.86889487958E+02 -0.85234867725E+03  0.86037805734E+03  0.78199253654E+02 0.  0.
         24    2    4    4    0    0  0.51580436476E+02  0.16869648641E+03  0.23574065153E+02  0.19488446992E+03  0.79405126497E+02 0.  0.
         13    1    5    5    0    0 -0.11513386933E+02  0.38764447413E+01 -0.41718814030E+03  0.41736498333E+03  0.00000000000E+00 0. -1.
        -14    1    5    5    0    0  0.21738176102E+01  0.83013043217E+02 -0.43516053695E+03  0.44301307402E+03  0.00000000000E+00 0.  1.
         15    1    3    3    0    0 -0.48243746239E+02 -0.24193027608E+03 -0.75705061702E+02  0.25805451290E+03  0.17770000000E+01 0. -1.
        -16    1    3    3    0    0  0.60028790851E+01 -0.13655698296E+02  0.13375174920E+02  0.20035168016E+02  0.00000000000E+00 0.  1.
          2    1    6    6  502    0  0.91974086100E+01 -0.74818372339E+01  0.44888232402E+01  0.12677529239E+02  0.00000000000E+00 0. -1.
         -1    1    6    6    0  502  0.42383027866E+02  0.17617832365E+03  0.19085241913E+02  0.18220694068E+03  0.00000000000E+00 0.  1.
<mgrwt>
<rscale>  0 0.27493383E+03</rscale>
<asrwt>0</asrwt>
<pdfrwt beam="1">  1        1 0.34019054E-01 0.27493383E+03</pdfrwt>
<pdfrwt beam="2">  1       -2 0.17111206E+00 0.27493383E+03</pdfrwt>
<totfact> 0.25547486E+01</totfact>
</mgrwt>
</event>
<event>
12    3  0.1176505E-007  0.1281828E+04  0.7818608E-02  0.9044101E-01
         -2   -1    0    0    0  501 -0.00000000000E+00  0.00000000000E+00  0.19469713335E+04  0.19469713335E+04  0.00000000000E+00 0.  1.
          1   -1    0    0  501    0  0.00000000000E+00 -0.00000000000E+00 -0.10704107708E+04  0.10704107708E+04  0.00000000000E+00 0. -1.
        -24    2    1    2    0    0 -0.29265497617E+03  0.11905095652E+04 -0.24258970766E+03  0.12523561265E+04  0.81155045678E+02 0.  0.
    5000000    2    1    2    0    0  0.29265497617E+03 -0.11905095652E+04  0.11191502704E+04  0.17650259777E+04  0.59988283375E+03 0.  0.
        -24    2    4    4    0    0  0.32158910379E+03 -0.28753362395E+03  0.50903152095E+03  0.67202506795E+03  0.80059140933E+02 0.  0.
         24    2    4    4    0    0 -0.28934127622E+02 -0.90297594129E+03  0.61011874947E+03  0.10930009098E+04  0.78761450026E+02 0.  0.
         11    1    5    5    0    0  0.31181869010E+03 -0.27405008598E+03  0.50696436379E+03  0.65524591664E+03  0.00000000000E+00 0. -1.
        -12    1    5    5    0    0  0.97704136913E+01 -0.13483537970E+02  0.20671571650E+01  0.16779151308E+02  0.00000000000E+00 0.  1.
         15    1    3    3    0    0 -0.13802788818E+03  0.41275992735E+03 -0.10190534714E+03  0.44700146873E+03  0.17770000000E+01 0. -1.
        -16    1    3    3    0    0 -0.15462708799E+03  0.77774963789E+03 -0.14068436052E+03  0.80535465782E+03  0.00000000000E+00 0.  1.
          4    1    6    6  502    0 -0.18661946563E+02 -0.79223116812E+03  0.56366441740E+03  0.97246905731E+03  0.00000000000E+00 0. -1.
         -3    1    6    6    0  502 -0.10272181059E+02 -0.11074477317E+03  0.46454332071E+02  0.12053185245E+03  0.00000000000E+00 0.  1.
<mgrwt>
<rscale>  0 0.12818282E+04</rscale>
<asrwt>0</asrwt>
<pdfrwt beam="1">  1        1 0.16467858E+00 0.12818282E+04</pdfrwt>
<pdfrwt beam="2">  1       -2 0.29953405E+00 0.12818282E+04</pdfrwt>
<totfact> 0.36349814E-01</totfact>
</mgrwt>
</event>
<event>
12    3  0.1176505E-007  0.1026895E+04  0.7818608E-02  0.9279529E-01
          1   -1    0    0  501    0  0.00000000000E+00  0.00000000000E+00  0.82377601598E+03  0.82377601598E+03  0.00000000000E+00 0. -1.
         -2   -1    0    0    0  501 -0.00000000000E+00 -0.00000000000E+00 -0.15380645059E+04  0.15380645059E+04  0.00000000000E+00 0.  1.
        -24    2    1    2    0    0 -0.38743292241E+03 -0.93605196512E+03 -0.67648981957E+02  0.10185722989E+04  0.81336293377E+02 0.  0.
    5000000    2    1    2    0    0  0.38743292241E+03  0.93605196512E+03 -0.64663950800E+03  0.13432682230E+04  0.59994109275E+03 0.  0.
        -24    2    4    4    0    0  0.57236821047E+02  0.88549680396E+02 -0.36353495148E+03  0.38750673878E+03  0.82986216172E+02 0.  0.
         24    2    4    4    0    0  0.33019610136E+03  0.84750228473E+03 -0.28310455652E+03  0.95576148419E+03  0.77731825947E+02 0.  0.
         13    1    5    5    0    0 -0.14443541037E+02  0.37169142235E+02 -0.65377261113E+02  0.76579026390E+02  0.00000000000E+00 0. -1.
        -14    1    5    5    0    0  0.71680362084E+02  0.51380538161E+02 -0.29815769037E+03  0.31092771239E+03  0.00000000000E+00 0.  1.
         15    1    3    3    0    0 -0.10829943464E+03 -0.34314166160E+03 -0.47297040154E+02  0.36292579848E+03  0.17770000000E+01 0. -1.
        -16    1    3    3    0    0 -0.27913348777E+03 -0.59291030352E+03 -0.20351941803E+02  0.65564650045E+03  0.00000000000E+00 0.  1.
          2    1    6    6  502    0  0.25213511730E+03  0.69328748043E+03 -0.20222081900E+03  0.76492673344E+03  0.00000000000E+00 0. -1.
         -1    1    6    6    0  502  0.78060984061E+02  0.15421480429E+03 -0.80883737528E+02  0.19083475075E+03  0.00000000000E+00 0.  1.
<mgrwt>
<rscale>  0 0.10268948E+04</rscale>
<asrwt>0</asrwt>
<pdfrwt beam="1">  1        1 0.12673477E+00 0.10268948E+04</pdfrwt>
<pdfrwt beam="2">  1       -2 0.23662531E+00 0.10268948E+04</pdfrwt>
<totfact> 0.14318342E+00</totfact>
</mgrwt>
</event>
<event>
12    3  0.1176505E-007  0.7812305E+03  0.7818608E-02  0.9587590E-01
         -2   -1    0    0    0  501 -0.00000000000E+00  0.00000000000E+00  0.11082511864E+04  0.11082511864E+04  0.00000000000E+00 0.  1.
          1   -1    0    0  501    0  0.00000000000E+00 -0.00000000000E+00 -0.77136590649E+03  0.77136590649E+03  0.00000000000E+00 0. -1.
        -24    2    1    2    0    0 -0.69776390192E+03  0.21097296265E+03  0.54365181601E+03  0.91312702624E+03  0.82822793965E+02 0.  0.
    5000000    2    1    2    0    0  0.69776390192E+03 -0.21097296265E+03 -0.20676653606E+03  0.96649006670E+03  0.59997216169E+03 0.  0.
        -24    2    4    4    0    0  0.57994978877E+03 -0.55311870520E+01 -0.34516517553E+03  0.67958635246E+03  0.79537793055E+02 0.  0.
         24    2    4    4    0    0  0.11781411315E+03 -0.20544177559E+03  0.13839863947E+03  0.28690371424E+03  0.84101542310E+02 0.  0.
         13    1    5    5    0    0  0.41438673393E+03  0.31144296227E+02 -0.23565641936E+03  0.47772406306E+03  0.00000000000E+00 0. -1.
        -14    1    5    5    0    0  0.16556305485E+03 -0.36675483279E+02 -0.10950875617E+03  0.20186228940E+03  0.00000000000E+00 0.  1.
         15    1    3    3    0    0 -0.48641338708E+03  0.18614736790E+03  0.38961597918E+03  0.65042493392E+03  0.17770000000E+01 0. -1.
        -16    1    3    3    0    0 -0.21135051484E+03  0.24825594747E+02  0.15403583683E+03  0.26270209231E+03  0.00000000000E+00 0.  1.
          4    1    6    6  502    0  0.10850345430E+03 -0.20751355289E+03  0.14488742921E+03  0.27536746607E+03  0.00000000000E+00 0. -1.
         -3    1    6    6    0  502  0.93106588514E+01  0.20717772975E+01 -0.64887897390E+01  0.11536248164E+02  0.00000000000E+00 0.  1.
<mgrwt>
<rscale>  0 0.78123050E+03</rscale>
<asrwt>0</asrwt>
<pdfrwt beam="1">  1        1 0.11867168E+00 0.78123050E+03</pdfrwt>
<pdfrwt beam="2">  1       -2 0.17050018E+00 0.78123050E+03</pdfrwt>
<totfact> 0.44291561E+00</totfact>
</mgrwt>
</event>
<event>
12    3  0.1176505E-007  0.4794889E+03  0.7818608E-02  0.1019276E+00
         -2   -1    0    0    0  501 -0.00000000000E+00  0.00000000000E+00  0.99774243649E+03  0.99774243649E+03  0.00000000000E+00 0.  1.
          1   -1    0    0  501    0  0.00000000000E+00 -0.00000000000E+00 -0.25595706169E+03  0.25595706169E+03  0.00000000000E+00 0. -1.
        -24    2    1    2    0    0  0.75730803939E+02 -0.27734080667E+03  0.65490000419E+02  0.30511322446E+03  0.78435080620E+02 0.  0.
    5000000    2    1    2    0    0 -0.75730803939E+02  0.27734080667E+03  0.67629537438E+03  0.94858627372E+03  0.59982281347E+03 0.  0.
        -24    2    4    4    0    0  0.25067987808E+03  0.88057719416E+02  0.32003679724E+03  0.42367174502E+03  0.80496165836E+02 0.  0.
         24    2    4    4    0    0 -0.32641068202E+03  0.18928308726E+03  0.35625857714E+03  0.52491452870E+03  0.79013088753E+02 0.  0.
         13    1    5    5    0    0  0.91089081119E+02 -0.69313427616E+01  0.11826019111E+03  0.14943472492E+03  0.00000000000E+00 0. -1.
        -14    1    5    5    0    0  0.15959079696E+03  0.94989062178E+02  0.20177660614E+03  0.27423702010E+03  0.00000000000E+00 0.  1.
         15    1    3    3    0    0  0.78205724904E+02 -0.14980617816E+03  0.52124452629E+02  0.17685627700E+03  0.17770000000E+01 0. -1.
        -16    1    3    3    0    0 -0.24749209645E+01 -0.12753462851E+03  0.13365547790E+02  0.12825694746E+03  0.00000000000E+00 0.  1.
          2    1    6    6  502    0 -0.24318056052E+03  0.99022947143E+02  0.23563267686E+03  0.35279609902E+03  0.00000000000E+00 0. -1.
         -1    1    6    6    0  502 -0.83230121500E+02  0.90260140115E+02  0.12062590028E+03  0.17211842968E+03  0.00000000000E+00 0.  1.
<mgrwt>
<rscale>  0 0.47948887E+03</rscale>
<asrwt>0</asrwt>
<pdfrwt beam="1">  1        1 0.39378010E-01 0.47948887E+03</pdfrwt>
<pdfrwt beam="2">  1       -2 0.15349883E+00 0.47948887E+03</pdfrwt>
<totfact> 0.27587740E+01</totfact>
</mgrwt>
</event>
<event>
12    3  0.1176505E-007  0.8582122E+03  0.7818608E-02  0.9479381E-01
          1   -1    0    0  501    0  0.00000000000E+00  0.00000000000E+00  0.60241246093E+03  0.60241246093E+03  0.00000000000E+00 0. -1.
         -2   -1    0    0    0  501 -0.00000000000E+00 -0.00000000000E+00 -0.12690021034E+04  0.12690021034E+04  0.00000000000E+00 0.  1.
        -24    2    1    2    0    0  0.69208919852E+03  0.30500574275E+03 -0.14487123011E+03  0.77422177208E+03  0.80098172456E+02 0.  0.
    5000000    2    1    2    0    0 -0.69208919852E+03 -0.30500574275E+03 -0.52171841239E+03  0.10971927923E+04  0.59968821879E+03 0.  0.
        -24    2    4    4    0    0 -0.34301718541E+03 -0.45413412927E+03 -0.33934099591E+03  0.66738520842E+03  0.79700113263E+02 0.  0.
         24    2    4    4    0    0 -0.34907201312E+03  0.14912838652E+03 -0.18237741647E+03  0.42980758385E+03  0.85921423910E+02 0.  0.
         11    1    5    5    0    0 -0.20558088584E+03 -0.28174550004E+03 -0.16258415206E+03  0.38480856788E+03  0.00000000000E+00 0. -1.
        -12    1    5    5    0    0 -0.13743629957E+03 -0.17238862924E+03 -0.17675684386E+03  0.28257664054E+03  0.00000000000E+00 0.  1.
         15    1    3    3    0    0  0.41853288209E+03  0.21381456687E+03 -0.11827242848E+03  0.48464210245E+03  0.17770000000E+01 0. -1.
        -16    1    3    3    0    0  0.27355631644E+03  0.91191175879E+02 -0.26598801636E+02  0.28957966964E+03  0.00000000000E+00 0.  1.
          4    1    6    6  502    0 -0.30580649655E+03  0.15868645137E+03 -0.15558882631E+03  0.37803027134E+03  0.00000000000E+00 0. -1.
         -1    1    6    6    0  502 -0.43265516572E+02 -0.95580648451E+01 -0.26788590159E+02  0.51777312508E+02  0.00000000000E+00 0.  1.
<mgrwt>
<rscale>  0 0.85821219E+03</rscale>
<asrwt>0</asrwt>
<pdfrwt beam="1">  1        1 0.92678842E-01 0.85821219E+03</pdfrwt>
<pdfrwt beam="2">  1       -2 0.19523109E+00 0.85821219E+03</pdfrwt>
<totfact> 0.43167352E+00</totfact>
</mgrwt>
</event>
<event>
12    3  0.1176505E-007  0.9841718E+03  0.7818608E-02  0.9326077E-01
         -2   -1    0    0    0  501 -0.00000000000E+00  0.00000000000E+00  0.25164134216E+03  0.25164134216E+03  0.00000000000E+00 0.  1.
          1   -1    0    0  501    0  0.00000000000E+00 -0.00000000000E+00 -0.44898033150E+04  0.44898033150E+04  0.00000000000E+00 0. -1.
        -24    2    1    2    0    0 -0.77745981764E+03 -0.59062707398E+03 -0.19656417377E+04  0.21963562615E+04  0.83362329314E+02 0.  0.
    5000000    2    1    2    0    0  0.77745981764E+03  0.59062707398E+03 -0.22725202351E+04  0.25450883956E+04  0.59986883062E+03 0.  0.
        -24    2    4    4    0    0  0.50282829754E+03  0.41852357236E+03 -0.20247233171E+04  0.21293143691E+04  0.80479152049E+02 0.  0.
         24    2    4    4    0    0  0.27463152010E+03  0.17210350162E+03 -0.24779691796E+03  0.41577402654E+03  0.80141384385E+02 0.  0.
         13    1    5    5    0    0  0.33321048241E+03  0.22770226789E+03 -0.12110414597E+04  0.12765182981E+04  0.00000000000E+00 0. -1.
        -14    1    5    5    0    0  0.16961781513E+03  0.19082130447E+03 -0.81368185743E+03  0.85279607091E+03  0.00000000000E+00 0.  1.
         15    1    3    3    0    0 -0.54810892594E+03 -0.41725728236E+03 -0.12987242332E+04  0.14701070798E+04  0.17770000000E+01 0. -1.
        -16    1    3    3    0    0 -0.22935089171E+03 -0.17336979162E+03 -0.66691750451E+03  0.72624918175E+03  0.00000000000E+00 0.  1.
          4    1    6    6  502    0  0.12905703513E+03  0.12605254480E+03 -0.12004025729E+03  0.21669016069E+03  0.00000000000E+00 0. -1.
         -3    1    6    6    0  502  0.14557448497E+03  0.46050956825E+02 -0.12775666067E+03  0.19908386586E+03  0.00000000000E+00 0.  1.
<mgrwt>
<rscale>  0 0.98417178E+03</rscale>
<asrwt>0</asrwt>
<pdfrwt beam="1">  1        1 0.69073901E+00 0.98417178E+03</pdfrwt>
<pdfrwt beam="2">  1       -2 0.38714050E-01 0.98417178E+03</pdfrwt>
<totfact> 0.19616439E-01</totfact>
</mgrwt>
</event>
<event>
12    3  0.1176505E-007  0.4811027E+03  0.7818608E-02  0.1018833E+00
         -2   -1    0    0    0  501 -0.00000000000E+00  0.00000000000E+00  0.14500781879E+03  0.14500781879E+03  0.00000000000E+00 0.  1.
          1   -1    0    0  501    0  0.00000000000E+00 -0.00000000000E+00 -0.23051498934E+04  0.23051498934E+04  0.00000000000E+00 0. -1.
        -24    2    1    2    0    0 -0.29726258606E+03 -0.22589119245E+03 -0.39895962966E+03  0.55241473618E+03  0.81248869244E+02 0.  0.
    5000000    2    1    2    0    0  0.29726258606E+03  0.22589119245E+03 -0.17611824450E+04  0.18977429760E+04  0.60022739246E+03 0.  0.
        -24    2    4    4    0    0 -0.63812702894E+02  0.20210812833E+03 -0.23410785485E+03  0.32575129560E+03  0.79922852118E+02 0.  0.
         24    2    4    4    0    0  0.36107528896E+03  0.23783064120E+02 -0.15270745901E+04  0.15719916804E+04  0.90884768265E+02 0.  0.
         13    1    5    5    0    0 -0.42699053863E+02  0.16515279592E+03 -0.22478191513E+03  0.28218002157E+03  0.00000000000E+00 0. -1.
        -14    1    5    5    0    0 -0.21113649032E+02  0.36955332409E+02 -0.93259397235E+01  0.43571274030E+02  0.00000000000E+00 0.  1.
         15    1    3    3    0    0 -0.76157067300E+02 -0.10353928462E+03 -0.11742665504E+03  0.17410473688E+03  0.17770000000E+01 0. -1.
        -16    1    3    3    0    0 -0.22110551876E+03 -0.12235190783E+03 -0.28153297462E+03  0.37830999931E+03  0.00000000000E+00 0.  1.
          2    1    6    6  502    0  0.44544615708E+02  0.25408047771E+02 -0.32104660940E+03  0.32511646696E+03  0.00000000000E+00 0. -1.
         -3    1    6    6    0  502  0.31653067325E+03 -0.16249836508E+01 -0.12060279807E+04  0.12468752134E+04  0.00000000000E+00 0.  1.
<mgrwt>
<rscale>  0 0.48110268E+03</rscale>
<asrwt>0</asrwt>
<pdfrwt beam="1">  1        1 0.35463846E+00 0.48110268E+03</pdfrwt>
<pdfrwt beam="2">  1       -2 0.22308894E-01 0.48110268E+03</pdfrwt>
<totfact> 0.31016369E+01</totfact>
</mgrwt>
</event>
<event>
12    3  0.1176505E-007  0.1022921E+04  0.7818608E-02  0.9283757E-01
         -2   -1    0    0    0  501 -0.00000000000E+00  0.00000000000E+00  0.21381252151E+04  0.21381252151E+04  0.00000000000E+00 0.  1.
          1   -1    0    0  501    0  0.00000000000E+00 -0.00000000000E+00 -0.53413594598E+03  0.53413594598E+03  0.00000000000E+00 0. -1.
        -24    2    1    2    0    0  0.65225979456E+03 -0.70077438265E+03  0.10179487239E+04  0.13993846971E+04  0.74366330319E+02 0.  0.
    5000000    2    1    2    0    0 -0.65225979456E+03  0.70077438265E+03  0.58604054522E+03  0.12728764640E+04  0.60020279647E+03 0.  0.
        -24    2    4    4    0    0  0.81310271080E+02  0.11666969357E+03 -0.13406636443E+01  0.16365025543E+03  0.80971792268E+02 0.  0.
         24    2    4    4    0    0 -0.73357006564E+03  0.58410468907E+03  0.58738120886E+03  0.11092262085E+04  0.77863779461E+02 0.  0.
         11    1    5    5    0    0  0.42740047326E+02  0.89042794950E+02  0.34036002442E+02  0.10446904058E+03  0.00000000000E+00 0. -1.
        -12    1    5    5    0    0  0.38570223754E+02  0.27626898622E+02 -0.35376666086E+02  0.59181214851E+02  0.00000000000E+00 0.  1.
         15    1    3    3    0    0  0.75340180838E+02 -0.52714447839E+02  0.11290367658E+03  0.14562058156E+03  0.17770000000E+01 0. -1.
        -16    1    3    3    0    0  0.57691961372E+03 -0.64805993481E+03  0.90504504735E+03  0.12537641156E+04  0.00000000000E+00 0.  1.
          2    1    6    6  502    0 -0.34807759168E+03  0.31914264570E+03  0.31972235723E+03  0.57029152532E+03  0.00000000000E+00 0. -1.
         -1    1    6    6    0  502 -0.38549247396E+03  0.26496204338E+03  0.26765885163E+03  0.53893468321E+03  0.00000000000E+00 0.  1.
<mgrwt>
<rscale>  0 0.10229208E+04</rscale>
<asrwt>0</asrwt>
<pdfrwt beam="1">  1        1 0.82174762E-01 0.10229208E+04</pdfrwt>
<pdfrwt beam="2">  1       -2 0.32894234E+00 0.10229208E+04</pdfrwt>
<totfact> 0.75444174E-01</totfact>
</mgrwt>
</event>
<event>
12    3  0.1176505E-007  0.9945711E+03  0.7818608E-02  0.9314519E-01
         -2   -1    0    0    0  501 -0.00000000000E+00  0.00000000000E+00  0.12800900976E+04  0.12800900976E+04  0.00000000000E+00 0.  1.
          1   -1    0    0  501    0  0.00000000000E+00 -0.00000000000E+00 -0.19896588472E+04  0.19896588472E+04  0.00000000000E+00 0. -1.
        -24    2    1    2    0    0  0.53369554039E+03  0.82938658858E+03  0.86706526980E+03  0.13156131620E+04  0.79515827378E+02 0.  0.
    5000000    2    1    2    0    0 -0.53369554039E+03 -0.82938658858E+03 -0.15766340194E+04  0.19541357828E+04  0.60013230468E+03 0.  0.
        -24    2    4    4    0    0 -0.42266671845E+03 -0.62633959396E+03 -0.66494525641E+03  0.10099894828E+04  0.83535138999E+02 0.  0.
         24    2    4    4    0    0 -0.11102882195E+03 -0.20304699462E+03 -0.91168876303E+03  0.94414630000E+03  0.81733431611E+02 0.  0.
         13    1    5    5    0    0 -0.22225356883E+03 -0.40147849875E+03 -0.40991266292E+03  0.61531294886E+03  0.00000000000E+00 0. -1.
        -14    1    5    5    0    0 -0.20041314961E+03 -0.22486109521E+03 -0.25503259348E+03  0.39467653391E+03  0.00000000000E+00 0.  1.
         15    1    3    3    0    0  0.30624788332E+03  0.40297428639E+03  0.44950340471E+03  0.67692873340E+03  0.17770000000E+01 0. -1.
        -16    1    3    3    0    0  0.22744765707E+03  0.42641230219E+03  0.41756186510E+03  0.63868442861E+03  0.00000000000E+00 0.  1.
          2    1    6    6  502    0 -0.91745991851E+02 -0.20007464133E+03 -0.87843842045E+03  0.90559441675E+03  0.00000000000E+00 0. -1.
         -1    1    6    6    0  502 -0.19282830096E+02 -0.29723532874E+01 -0.33250342584E+02  0.38551883255E+02  0.00000000000E+00 0.  1.
<mgrwt>
<rscale>  0 0.99457108E+03</rscale>
<asrwt>0</asrwt>
<pdfrwt beam="1">  1        1 0.30610136E+00 0.99457108E+03</pdfrwt>
<pdfrwt beam="2">  1       -2 0.19693694E+00 0.99457108E+03</pdfrwt>
<totfact> 0.37209691E-01</totfact>
</mgrwt>
</event>
<event>
12    3  0.1176505E-007  0.7991927E+03  0.7818608E-02  0.9561186E-01
         -2   -1    0    0    0  501 -0.00000000000E+00  0.00000000000E+00  0.91445385004E+03  0.91445385004E+03  0.00000000000E+00 0.  1.
          1   -1    0    0  501    0  0.00000000000E+00 -0.00000000000E+00 -0.72804768125E+03  0.72804768125E+03  0.00000000000E+00 0. -1.
        -24    2    1    2    0    0 -0.20608546134E+03  0.65384210936E+03 -0.76150638989E+02  0.69435531419E+03  0.79684761290E+02 0.  0.
    5000000    2    1    2    0    0  0.20608546134E+03 -0.65384210936E+03  0.26255680778E+03  0.94814621710E+03  0.60005370622E+03 0.  0.
        -24    2    4    4    0    0 -0.55529557225E+02 -0.62705141902E+03  0.15664501414E+03  0.65341112393E+03  0.78303400960E+02 0.  0.
         24    2    4    4    0    0  0.26161501856E+03 -0.26790690334E+02  0.10591179364E+03  0.29473509317E+03  0.80568654493E+02 0.  0.
         13    1    5    5    0    0 -0.67766379449E+02 -0.60751877917E+03  0.15194145800E+03  0.62988693897E+03  0.00000000000E+00 0. -1.
        -14    1    5    5    0    0  0.12236822224E+02 -0.19532639848E+02  0.47035561348E+01  0.23524184957E+02  0.00000000000E+00 0.  1.
         15    1    3    3    0    0 -0.10710080792E+03  0.46238546966E+03 -0.53652414288E+02  0.47765326849E+03  0.17770000000E+01 0. -1.
        -16    1    3    3    0    0 -0.98984653416E+02  0.19145663969E+03 -0.22498224701E+02  0.21670204569E+03  0.00000000000E+00 0.  1.
          4    1    6    6  502    0  0.11524503932E+03  0.26263153405E+02  0.32374528115E+02  0.12255318187E+03  0.00000000000E+00 0. -1.
         -3    1    6    6    0  502  0.14636997924E+03 -0.53053843739E+02  0.73537265530E+02  0.17218191130E+03  0.00000000000E+00 0.  1.
<mgrwt>
<rscale>  0 0.79919268E+03</rscale>
<asrwt>0</asrwt>
<pdfrwt beam="1">  1        1 0.11200734E+00 0.79919268E+03</pdfrwt>
<pdfrwt beam="2">  1       -2 0.14068521E+00 0.79919268E+03</pdfrwt>
<totfact> 0.80960983E+00</totfact>
</mgrwt>
</event>
<event>
12    3  0.1176505E-007  0.8445634E+03  0.7818608E-02  0.9497663E-01
          1   -1    0    0  501    0  0.00000000000E+00  0.00000000000E+00  0.18859150770E+04  0.18859150770E+04  0.00000000000E+00 0. -1.
         -2   -1    0    0    0  501 -0.00000000000E+00 -0.00000000000E+00 -0.53974615083E+03  0.53974615083E+03  0.00000000000E+00 0.  1.
        -24    2    1    2    0    0  0.18658576098E+03 -0.72777623748E+03 -0.19354419510E+02  0.75559548729E+03  0.77957994016E+02 0.  0.
    5000000    2    1    2    0    0 -0.18658576098E+03  0.72777623748E+03  0.13655233457E+04  0.16700657405E+04  0.59999422671E+03 0.  0.
        -24    2    4    4    0    0 -0.35864615791E+03  0.63605687595E+03  0.92778438769E+03  0.11839812080E+04  0.88499800870E+02 0.  0.
         24    2    4    4    0    0  0.17206039692E+03  0.91719361526E+02  0.43773895799E+03  0.48608453257E+03  0.81520279643E+02 0.  0.
         13    1    5    5    0    0 -0.42139285792E+02  0.50312289384E+02  0.51292561304E+02  0.83294493907E+02  0.00000000000E+00 0. -1.
        -14    1    5    5    0    0 -0.31650687211E+03  0.58574458657E+03  0.87649182639E+03  0.11006867141E+04  0.00000000000E+00 0.  1.
         15    1    3    3    0    0  0.12166737217E+03 -0.34377394794E+03 -0.30840090269E+02  0.36597506149E+03  0.17770000000E+01 0. -1.
        -16    1    3    3    0    0  0.64918388809E+02 -0.38400228954E+03  0.11485670759E+02  0.38962042581E+03  0.00000000000E+00 0.  1.
          4    1    6    6  502    0  0.14538844219E+03  0.99053828719E+02  0.41325752595E+03  0.44914501317E+03  0.00000000000E+00 0. -1.
         -3    1    6    6    0  502  0.26671954734E+02 -0.73344671931E+01  0.24481432040E+02  0.36939519394E+02  0.00000000000E+00 0.  1.
<mgrwt>
<rscale>  0 0.84456343E+03</rscale>
<asrwt>0</asrwt>
<pdfrwt beam="1">  1        1 0.29014078E+00 0.84456343E+03</pdfrwt>
<pdfrwt beam="2">  1       -2 0.83037870E-01 0.84456343E+03</pdfrwt>
<totfact> 0.40771952E+00</totfact>
</mgrwt>
</event>
<event>
12    3  0.1176505E-007  0.8809296E+03  0.7818608E-02  0.9449739E-01
          1   -1    0    0  501    0  0.00000000000E+00  0.00000000000E+00  0.28722878642E+04  0.28722878642E+04  0.00000000000E+00 0. -1.
         -2   -1    0    0    0  501 -0.00000000000E+00 -0.00000000000E+00 -0.33190926377E+03  0.33190926377E+03  0.00000000000E+00 0.  1.
        -24    2    1    2    0    0 -0.84255072483E+03 -0.36567732760E+02  0.72550725398E+03  0.11150939136E+04  0.76450883758E+02 0.  0.
    5000000    2    1    2    0    0  0.84255072483E+03  0.36567732760E+02  0.18148713464E+04  0.20891032143E+04  0.59947086088E+03 0.  0.
        -24    2    4    4    0    0  0.18209221531E+03  0.14303489744E+03  0.13651377241E+03  0.28058083502E+03  0.80455193534E+02 0.  0.
         24    2    4    4    0    0  0.66045850952E+03 -0.10646716468E+03  0.16783575740E+04  0.18085223793E+04  0.79550928366E+02 0.  0.
         13    1    5    5    0    0  0.50977957969E+01  0.36147210952E+02  0.33621873288E+02  0.49629011123E+02  0.00000000000E+00 0. -1.
        -14    1    5    5    0    0  0.17699441951E+03  0.10688768648E+03  0.10289189912E+03  0.23095182390E+03  0.00000000000E+00 0.  1.
         15    1    3    3    0    0 -0.21120503552E+03  0.13472057829E+02  0.15069378841E+03  0.25980923572E+03  0.17770000000E+01 0. -1.
        -16    1    3    3    0    0 -0.63134568931E+03 -0.50039790589E+02  0.57481346557E+03  0.85528467790E+03  0.00000000000E+00 0.  1.
          4    1    6    6  502    0  0.11950563201E+03 -0.50651498458E+02  0.33426809509E+03  0.35858378347E+03  0.00000000000E+00 0. -1.
         -3    1    6    6    0  502  0.54095287751E+03 -0.55815666218E+02  0.13440894790E+04  0.14499385958E+04  0.00000000000E+00 0.  1.
<mgrwt>
<rscale>  0 0.88092964E+03</rscale>
<asrwt>0</asrwt>
<pdfrwt beam="1">  1        1 0.44189042E+00 0.88092964E+03</pdfrwt>
<pdfrwt beam="2">  1       -2 0.51062966E-01 0.88092964E+03</pdfrwt>
<totfact> 0.24524454E+00</totfact>
</mgrwt>
</event>
<event>
12    3  0.1176505E-007  0.1032138E+04  0.7818608E-02  0.9273983E-01
          1   -1    0    0  501    0  0.00000000000E+00  0.00000000000E+00  0.30641679237E+04  0.30641679237E+04  0.00000000000E+00 0. -1.
         -2   -1    0    0    0  501 -0.00000000000E+00 -0.00000000000E+00 -0.38711791348E+03  0.38711791348E+03  0.00000000000E+00 0.  1.
        -24    2    1    2    0    0  0.76335228961E+03 -0.60490642843E+03  0.84700773226E+03  0.12931666715E+04  0.78990104060E+02 0.  0.
    5000000    2    1    2    0    0 -0.76335228961E+03  0.60490642843E+03  0.18300422780E+04  0.21581191657E+04  0.59983755217E+03 0.  0.
        -24    2    4    4    0    0 -0.63772894449E+03  0.21323022595E+03  0.81012882233E+03  0.10551901278E+04  0.70371592718E+02 0.  0.
         24    2    4    4    0    0 -0.12562334513E+03  0.39167620248E+03  0.10199134556E+04  0.11029290379E+04  0.83890007192E+02 0.  0.
         11    1    5    5    0    0 -0.33390599026E+02 -0.15210913785E+01  0.55967245310E+02  0.65188790217E+02  0.00000000000E+00 0. -1.
        -12    1    5    5    0    0 -0.60433834546E+03  0.21475131733E+03  0.75416157702E+03  0.99000133755E+03  0.00000000000E+00 0.  1.
         15    1    3    3    0    0  0.70514384981E+03 -0.53284385438E+03  0.75175358540E+03  0.11602960971E+04  0.17770000000E+01 0. -1.
        -16    1    3    3    0    0  0.58208439801E+02 -0.72062574052E+02  0.95254146862E+02  0.13287057439E+03  0.00000000000E+00 0.  1.
          2    1    6    6  502    0 -0.23306184700E+02  0.12971415487E+03  0.42352563689E+03  0.44355710492E+03  0.00000000000E+00 0. -1.
         -1    1    6    6    0  502 -0.10231716043E+03  0.26196204761E+03  0.59638781873E+03  0.65937193300E+03  0.00000000000E+00 0.  1.
<mgrwt>
<rscale>  0 0.10321376E+04</rscale>
<asrwt>0</asrwt>
<pdfrwt beam="1">  1        1 0.47141043E+00 0.10321376E+04</pdfrwt>
<pdfrwt beam="2">  1       -2 0.59556604E-01 0.10321376E+04</pdfrwt>
<totfact> 0.12661802E+00</totfact>
</mgrwt>
</event>
<event>
12    3  0.1176505E-007  0.4613048E+03  0.7818608E-02  0.1024403E+00
          1   -1    0    0  501    0  0.00000000000E+00  0.00000000000E+00  0.12837722807E+04  0.12837722807E+04  0.00000000000E+00 0. -1.
         -2   -1    0    0    0  501 -0.00000000000E+00 -0.00000000000E+00 -0.23090124663E+03  0.23090124663E+03  0.00000000000E+00 0.  1.
        -24    2    1    2    0    0  0.27747513774E+03 -0.90416751168E+02  0.44567354988E+02  0.30561889118E+03  0.79050721437E+02 0.  0.
    5000000    2    1    2    0    0 -0.27747513774E+03  0.90416751168E+02  0.10083036791E+04  0.12090546362E+04  0.59997430196E+03 0.  0.
        -24    2    4    4    0    0  0.15145229829E+03  0.86682145237E+02  0.52062372496E+03  0.55477916033E+03  0.79241786899E+02 0.  0.
         24    2    4    4    0    0 -0.42892743603E+03  0.37346059302E+01  0.48767995416E+03  0.65427547586E+03  0.79069386993E+02 0.  0.
         11    1    5    5    0    0  0.39882317040E+02  0.60586571815E+02  0.14601868293E+03  0.16304228795E+03  0.00000000000E+00 0. -1.
        -12    1    5    5    0    0  0.11156998125E+03  0.26095573422E+02  0.37460504203E+03  0.39173687238E+03  0.00000000000E+00 0.  1.
         15    1    3    3    0    0  0.14951793430E+03 -0.83352497189E+02  0.46708865457E+02  0.17744894281E+03  0.17770000000E+01 0. -1.
        -16    1    3    3    0    0  0.12795720344E+03 -0.70642539787E+01 -0.21415104692E+01  0.12816994837E+03  0.00000000000E+00 0.  1.
          4    1    6    6  502    0 -0.13190794631E+03  0.37713642938E+02  0.15634112819E+03  0.20800137867E+03  0.00000000000E+00 0. -1.
         -3    1    6    6    0  502 -0.29701948971E+03 -0.33979037008E+02  0.33133882596E+03  0.44627409718E+03  0.00000000000E+00 0.  1.
<mgrwt>
<rscale>  0 0.46130478E+03</rscale>
<asrwt>0</asrwt>
<pdfrwt beam="1">  1        1 0.19750342E+00 0.46130478E+03</pdfrwt>
<pdfrwt beam="2">  1       -2 0.35523269E-01 0.46130478E+03</pdfrwt>
<totfact> 0.64176760E+01</totfact>
</mgrwt>
</event>
<event>
12    3  0.1176505E-007  0.3488847E+03  0.7818608E-02  0.1063074E+00
          1   -1    0    0  501    0  0.00000000000E+00  0.00000000000E+00  0.16423713043E+04  0.16423713043E+04  0.00000000000E+00 0. -1.
         -2   -1    0    0    0  501 -0.00000000000E+00 -0.00000000000E+00 -0.11777808818E+03  0.11777808818E+03  0.00000000000E+00 0.  1.
        -24    2    1    2    0    0  0.10643102139E+03  0.16870689421E+03  0.20513424228E+03  0.29702381256E+03  0.79708904170E+02 0.  0.
    5000000    2    1    2    0    0 -0.10643102139E+03 -0.16870689421E+03  0.13194589738E+04  0.14631255799E+04  0.59997908335E+03 0.  0.
        -24    2    4    4    0    0 -0.15510845441E+03  0.10825864010E+03  0.10351378152E+04  0.10552349610E+04  0.78942768508E+02 0.  0.
         24    2    4    4    0    0  0.48677433023E+02 -0.27696553431E+03  0.28432115861E+03  0.40789061887E+03  0.80354440114E+02 0.  0.
         11    1    5    5    0    0 -0.81244244910E+02  0.11030906426E+02  0.36903092409E+03  0.37802927289E+03  0.00000000000E+00 0. -1.
        -12    1    5    5    0    0 -0.73864209503E+02  0.97227733669E+02  0.66610689109E+03  0.67720568811E+03  0.00000000000E+00 0.  1.
         15    1    3    3    0    0  0.61306410776E+02  0.12109668874E+03  0.85035156334E+02  0.16017808704E+03  0.17770000000E+01 0. -1.
        -16    1    3    3    0    0  0.45124610613E+02  0.47610205472E+02  0.12009908595E+03  0.13684572552E+03  0.00000000000E+00 0.  1.
          4    1    6    6  502    0 -0.12052725638E+02 -0.16083279172E+03  0.16286613937E+03  0.22921133139E+03  0.00000000000E+00 0. -1.
         -3    1    6    6    0  502  0.60730158662E+02 -0.11613274259E+03  0.12145501925E+03  0.17867928748E+03  0.00000000000E+00 0.  1.
<mgrwt>
<rscale>  0 0.34888466E+03</rscale>
<asrwt>0</asrwt>
<pdfrwt beam="1">  1        1 0.25267249E+00 0.34888466E+03</pdfrwt>
<pdfrwt beam="2">  1       -2 0.18119707E-01 0.34888466E+03</pdfrwt>
<totfact> 0.12495726E+02</totfact>
</mgrwt>
</event>
<event>
12    3  0.1176505E-007  0.1023712E+04  0.7818608E-02  0.9282913E-01
          1   -1    0    0  501    0  0.00000000000E+00  0.00000000000E+00  0.69664736104E+03  0.69664736104E+03  0.00000000000E+00 0. -1.
         -2   -1    0    0    0  501 -0.00000000000E+00 -0.00000000000E+00 -0.16447910333E+04  0.16447910333E+04  0.00000000000E+00 0.  1.
        -24    2    1    2    0    0 -0.35150735918E+03  0.87099642864E+03 -0.11418196805E+03  0.94945325986E+03  0.78941551654E+02 0.  0.
    5000000    2    1    2    0    0  0.35150735918E+03 -0.87099642864E+03 -0.83396170421E+03  0.13919851345E+04  0.59994857134E+03 0.  0.
        -24    2    4    4    0    0  0.20268701807E+03 -0.91391220894E+03 -0.71937998274E+03  0.11834842312E+04  0.82521591474E+02 0.  0.
         24    2    4    4    0    0  0.14882034112E+03  0.42915780302E+02 -0.11458172147E+03  0.20850090324E+03  0.79714475664E+02 0.  0.
         11    1    5    5    0    0  0.89796704040E+01 -0.30523360366E+02 -0.78869457492E+01  0.32779779161E+02  0.00000000000E+00 0. -1.
        -12    1    5    5    0    0  0.19370734766E+03 -0.88338884857E+03 -0.71149303699E+03  0.11507044521E+04  0.00000000000E+00 0.  1.
         15    1    3    3    0    0 -0.82199109065E+02  0.23549080837E+03  0.25192379727E+01  0.24944361817E+03  0.17770000000E+01 0. -1.
        -16    1    3    3    0    0 -0.26930825012E+03  0.63550562027E+03 -0.11670120602E+03  0.70000964169E+03  0.00000000000E+00 0.  1.
          2    1    6    6  502    0 -0.82847307485E+01 -0.12793936051E+01  0.11034091194E+01  0.84552423535E+01  0.00000000000E+00 0. -1.
         -1    1    6    6    0  502  0.15710507186E+03  0.44195173907E+02 -0.11568513059E+03  0.20004566089E+03  0.00000000000E+00 0.  1.
<mgrwt>
<rscale>  0 0.10237121E+04</rscale>
<asrwt>0</asrwt>
<pdfrwt beam="1">  1        1 0.10717652E+00 0.10237121E+04</pdfrwt>
<pdfrwt beam="2">  1       -2 0.25304477E+00 0.10237121E+04</pdfrwt>
<totfact> 0.14791975E+00</totfact>
</mgrwt>
</event>
<event>
12    3  0.1176505E-007  0.8202191E+03  0.7818608E-02  0.9531203E-01
          1   -1    0    0  501    0  0.00000000000E+00  0.00000000000E+00  0.10554130021E+04  0.10554130021E+04  0.00000000000E+00 0. -1.
         -2   -1    0    0    0  501 -0.00000000000E+00 -0.00000000000E+00 -0.67040383945E+03  0.67040383945E+03  0.00000000000E+00 0.  1.
        -24    2    1    2    0    0  0.69527548873E+03  0.17939147412E+03  0.31247526912E+03  0.78727433403E+03  0.81060329372E+02 0.  0.
    5000000    2    1    2    0    0 -0.69527548873E+03 -0.17939147412E+03  0.72533893563E+02  0.93854250756E+03  0.60000963873E+03 0.  0.
        -24    2    4    4    0    0 -0.28730488984E+03  0.20451549883E+03  0.85547871576E+02  0.37227616124E+03  0.83068724008E+02 0.  0.
         24    2    4    4    0    0 -0.40797059889E+03 -0.38390697295E+03 -0.13013978013E+02  0.56626634632E+03  0.81631108741E+02 0.  0.
         13    1    5    5    0    0 -0.74752454477E+02  0.13685270896E+02  0.88349654666E+01  0.76506684052E+02  0.00000000000E+00 0. -1.
        -14    1    5    5    0    0 -0.21255243537E+03  0.19083022793E+03  0.76712906109E+02  0.29576947719E+03  0.00000000000E+00 0.  1.
         15    1    3    3    0    0  0.11585803287E+03  0.19443433328E+02  0.83091329221E+02  0.14390433489E+03  0.17770000000E+01 0. -1.
        -16    1    3    3    0    0  0.57941745586E+03  0.15994804080E+03  0.22938393990E+03  0.64336999914E+03  0.00000000000E+00 0.  1.
          4    1    6    6  502    0 -0.25922783043E+03 -0.24127957498E+03 -0.47548673019E+02  0.35731747463E+03  0.00000000000E+00 0. -1.
         -3    1    6    6    0  502 -0.14874276845E+03 -0.14262739797E+03  0.34534695006E+02  0.20894887169E+03  0.00000000000E+00 0.  1.
<mgrwt>
<rscale>  0 0.82021911E+03</rscale>
<asrwt>0</asrwt>
<pdfrwt beam="1">  1        1 0.16237123E+00 0.82021911E+03</pdfrwt>
<pdfrwt beam="2">  1       -2 0.10313905E+00 0.82021911E+03</pdfrwt>
<totfact> 0.93754851E+00</totfact>
</mgrwt>
</event>
<event>
12    3  0.1176505E-007  0.4003057E+03  0.7818608E-02  0.1043674E+00
         -2   -1    0    0    0  501 -0.00000000000E+00  0.00000000000E+00  0.43180978131E+03  0.43180978131E+03  0.00000000000E+00 0.  1.
          1   -1    0    0  501    0  0.00000000000E+00 -0.00000000000E+00 -0.53318501656E+03  0.53318501656E+03  0.00000000000E+00 0. -1.
        -24    2    1    2    0    0 -0.22386561013E+03  0.15364526546E+03 -0.11657635416E+03  0.30628948384E+03  0.80625818235E+02 0.  0.
    5000000    2    1    2    0    0  0.22386561013E+03 -0.15364526546E+03  0.15201118907E+02  0.65870531402E+03  0.59994911260E+03 0.  0.
        -24    2    4    4    0    0 -0.37063172582E+02 -0.23796689262E+03  0.19608368434E+03  0.32043655851E+03  0.78923101909E+02 0.  0.
         24    2    4    4    0    0  0.26092878271E+03  0.84321627167E+02 -0.18088256544E+03  0.33826875551E+03  0.80704907052E+02 0.  0.
         11    1    5    5    0    0  0.14831566143E+02 -0.70699999682E+02  0.27345449735E+02  0.77241432733E+02  0.00000000000E+00 0. -1.
        -12    1    5    5    0    0 -0.51894738724E+02 -0.16726689294E+03  0.16873823461E+03  0.24319512577E+03  0.00000000000E+00 0.  1.
         15    1    3    3    0    0 -0.48443335133E+02  0.68703676154E+02 -0.11506970799E+02  0.84867661343E+02  0.17770000000E+01 0. -1.
        -16    1    3    3    0    0 -0.17542227500E+03  0.84941589303E+02 -0.10506938336E+03  0.22142182250E+03  0.00000000000E+00 0.  1.
          2    1    6    6  502    0  0.12758720098E+03  0.38900965724E+02 -0.13583536382E+03  0.19037600965E+03  0.00000000000E+00 0. -1.
         -1    1    6    6    0  502  0.13334158173E+03  0.45420661443E+02 -0.45047201621E+02  0.14789274586E+03  0.00000000000E+00 0.  1.
<mgrwt>
<rscale>  0 0.40030568E+03</rscale>
<asrwt>0</asrwt>
<pdfrwt beam="1">  1        1 0.82028464E-01 0.40030568E+03</pdfrwt>
<pdfrwt beam="2">  1       -2 0.66432274E-01 0.40030568E+03</pdfrwt>
<totfact> 0.77269629E+01</totfact>
</mgrwt>
</event>
<event>
12    3  0.1176505E-007  0.5512942E+03  0.7818608E-02  0.1001195E+00
         -2   -1    0    0    0  501 -0.00000000000E+00  0.00000000000E+00  0.59924379341E+03  0.59924379341E+03  0.00000000000E+00 0.  1.
          3   -1    0    0  501    0  0.00000000000E+00 -0.00000000000E+00 -0.12825051712E+04  0.12825051712E+04  0.00000000000E+00 0. -1.
        -24    2    1    2    0    0 -0.59445516059E+02 -0.45824737549E+03  0.36151306306E+03  0.59131833605E+03  0.73764851150E+02 0.  0.
    5000000    2    1    2    0    0  0.59445516059E+02  0.45824737549E+03 -0.10447744409E+04  0.12904306286E+04  0.60011094669E+03 0.  0.
        -24    2    4    4    0    0  0.24163440901E+03  0.31092945311E+03 -0.28835946326E+03  0.49497588422E+03  0.82374956601E+02 0.  0.
         24    2    4    4    0    0 -0.18218889295E+03  0.14731792238E+03 -0.75641497762E+03  0.79545474436E+03  0.75427243000E+02 0.  0.
         13    1    5    5    0    0  0.60683541608E+02  0.28902433446E+02 -0.47246977482E+02  0.82159112474E+02  0.00000000000E+00 0. -1.
        -14    1    5    5    0    0  0.18095086740E+03  0.28202701967E+03 -0.24111248577E+03  0.41281677174E+03  0.00000000000E+00 0.  1.
         15    1    3    3    0    0  0.54905712173E+01 -0.18110940908E+03  0.11373905899E+03  0.21394040222E+03  0.17770000000E+01 0. -1.
        -16    1    3    3    0    0 -0.64936087276E+02 -0.27713796641E+03  0.24777400407E+03  0.37737793384E+03  0.00000000000E+00 0.  1.
          4    1    6    6  502    0 -0.10490067432E+03  0.79564170439E+02 -0.30016003290E+03  0.32776615756E+03  0.00000000000E+00 0. -1.
         -3    1    6    6    0  502 -0.77288218629E+02  0.67753751941E+02 -0.45625494472E+03  0.46768858680E+03  0.00000000000E+00 0.  1.
<mgrwt>
<rscale>  0 0.55129417E+03</rscale>
<asrwt>0</asrwt>
<pdfrwt beam="1">  1        3 0.19730849E+00 0.55129417E+03</pdfrwt>
<pdfrwt beam="2">  1       -2 0.92191353E-01 0.55129417E+03</pdfrwt>
<totfact> 0.65254958E-01</totfact>
</mgrwt>
</event>
<event>
12    3  0.1176505E-007  0.9821077E+03  0.7818608E-02  0.9328389E-01
          1   -1    0    0  501    0  0.00000000000E+00  0.00000000000E+00  0.34316251111E+04  0.34316251111E+04  0.00000000000E+00 0. -1.
         -2   -1    0    0    0  501 -0.00000000000E+00 -0.00000000000E+00 -0.52276393127E+03  0.52276393127E+03  0.00000000000E+00 0.  1.
        -24    2    1    2    0    0  0.71074991339E+03 -0.65849105634E+03  0.16954441593E+03  0.98752256836E+03  0.87633346299E+02 0.  0.
    5000000    2    1    2    0    0 -0.71074991339E+03  0.65849105634E+03  0.27393167639E+04  0.29668664740E+04  0.59972029395E+03 0.  0.
        -24    2    4    4    0    0 -0.63923340946E+03  0.56911580566E+03  0.26822157842E+04  0.28165593531E+04  0.78822105898E+02 0.  0.
         24    2    4    4    0    0 -0.71516503923E+02  0.89375250678E+02  0.57100979728E+02  0.15030712096E+03  0.78925046455E+02 0.  0.
         13    1    5    5    0    0 -0.41309184959E+03  0.39849431881E+03  0.16980283657E+04  0.17924126001E+04  0.00000000000E+00 0. -1.
        -14    1    5    5    0    0 -0.22614155988E+03  0.17062148685E+03  0.98418741849E+03  0.10241467530E+04  0.00000000000E+00 0.  1.
         15    1    3    3    0    0  0.58289520349E+03 -0.51225997387E+03  0.10633901330E+03  0.78325490267E+03  0.17770000000E+01 0. -1.
        -16    1    3    3    0    0  0.12785470990E+03 -0.14623108247E+03  0.63205402630E+02  0.20426766568E+03  0.00000000000E+00 0.  1.
          4    1    6    6  502    0 -0.93183364463E+01  0.71347383486E+02  0.43677173449E+02  0.84172299510E+02  0.00000000000E+00 0. -1.
         -3    1    6    6    0  502 -0.62198167477E+02  0.18027867192E+02  0.13423806279E+02  0.66134821448E+02  0.00000000000E+00 0.  1.
<mgrwt>
<rscale>  0 0.98210772E+03</rscale>
<asrwt>0</asrwt>
<pdfrwt beam="1">  1        1 0.52794231E+00 0.98210772E+03</pdfrwt>
<pdfrwt beam="2">  1       -2 0.80425222E-01 0.98210772E+03</pdfrwt>
<totfact> 0.35167305E-01</totfact>
</mgrwt>
</event>
<event>
12    3  0.1176505E-007  0.3891595E+03  0.7818608E-02  0.1047599E+00
          1   -1    0    0  501    0  0.00000000000E+00  0.00000000000E+00  0.83934554003E+03  0.83934554003E+03  0.00000000000E+00 0. -1.
         -2   -1    0    0    0  501 -0.00000000000E+00 -0.00000000000E+00 -0.31595201345E+03  0.31595201345E+03  0.00000000000E+00 0.  1.
        -24    2    1    2    0    0  0.29349026654E+03  0.12826166558E+03  0.68211649580E+02  0.33687217916E+03  0.79009142157E+02 0.  0.
    5000000    2    1    2    0    0 -0.29349026654E+03 -0.12826166558E+03  0.45518187700E+03  0.81842537431E+03  0.60003496628E+03 0.  0.
        -24    2    4    4    0    0  0.53329357154E+02 -0.63047130558E+02  0.44135595134E+03  0.45620480804E+03  0.80677072898E+02 0.  0.
         24    2    4    4    0    0 -0.34681962369E+03 -0.65214535021E+02  0.13825925662E+02  0.36222056627E+03  0.80472327258E+02 0.  0.
         11    1    5    5    0    0  0.63825605585E+02 -0.64033049190E+02  0.27427987413E+03  0.28879644851E+03  0.00000000000E+00 0. -1.
        -12    1    5    5    0    0 -0.10496248432E+02  0.98591863200E+00  0.16707607721E+03  0.16740835954E+03  0.00000000000E+00 0.  1.
         15    1    3    3    0    0  0.17964966022E+03  0.64129202569E+02  0.77449174884E+02  0.20588367458E+03  0.17770000000E+01 0. -1.
        -16    1    3    3    0    0  0.11384060631E+03  0.64132463009E+02 -0.92375253041E+01  0.13098850458E+03  0.00000000000E+00 0.  1.
          4    1    6    6  502    0 -0.33932997925E+02 -0.21110344925E+02  0.22996285634E+02  0.46107745162E+02  0.00000000000E+00 0. -1.
         -3    1    6    6    0  502 -0.31288662577E+03 -0.44104190096E+02 -0.91703599713E+01  0.31611282111E+03  0.00000000000E+00 0.  1.
<mgrwt>
<rscale>  0 0.38915950E+03</rscale>
<asrwt>0</asrwt>
<pdfrwt beam="1">  1        1 0.12913008E+00 0.38915950E+03</pdfrwt>
<pdfrwt beam="2">  1       -2 0.48608002E-01 0.38915950E+03</pdfrwt>
<totfact> 0.75865039E+01</totfact>
</mgrwt>
</event>
<event>
12    3  0.1176505E-007  0.8000856E+03  0.7818608E-02  0.9559893E-01
         -2   -1    0    0    0  501 -0.00000000000E+00  0.00000000000E+00  0.10194173551E+04  0.10194173551E+04  0.00000000000E+00 0.  1.
          1   -1    0    0  501    0  0.00000000000E+00 -0.00000000000E+00 -0.71127651182E+03  0.71127651182E+03  0.00000000000E+00 0. -1.
        -24    2    1    2    0    0  0.66613136007E+02 -0.69628142021E+03  0.39201095023E+03  0.80578541013E+03  0.79827414192E+02 0.  0.
    5000000    2    1    2    0    0 -0.66613136007E+02  0.69628142021E+03 -0.83870106922E+02  0.92490845682E+03  0.59931321748E+03 0.  0.
        -24    2    4    4    0    0 -0.25881832781E+03  0.64090724497E+03 -0.56246767727E+01  0.69587869476E+03  0.80414534551E+02 0.  0.
         24    2    4    4    0    0  0.19220519180E+03  0.55374175245E+02 -0.78245430150E+02  0.22902976207E+03  0.79518233965E+02 0.  0.
         11    1    5    5    0    0 -0.28509620501E+02  0.34404870572E+02 -0.14757755456E+02  0.47056189033E+02  0.00000000000E+00 0. -1.
        -12    1    5    5    0    0 -0.23030870731E+03  0.60650237439E+03  0.91330786828E+01  0.64882250573E+03  0.00000000000E+00 0.  1.
         15    1    3    3    0    0 -0.17578658963E+02 -0.13254176480E+03  0.65435179844E+02  0.14886654815E+03  0.17770000000E+01 0. -1.
        -16    1    3    3    0    0  0.84191794970E+02 -0.56373965541E+03  0.32657577038E+03  0.65691886198E+03  0.00000000000E+00 0.  1.
          4    1    6    6  502    0  0.11974904319E+03  0.51823499209E+02 -0.85693431157E+02  0.15610532521E+03  0.00000000000E+00 0. -1.
         -3    1    6    6    0  502  0.72456148610E+02  0.35506760361E+01  0.74480010069E+01  0.72924436855E+02  0.00000000000E+00 0.  1.
<mgrwt>
<rscale>  0 0.80008565E+03</rscale>
<asrwt>0</asrwt>
<pdfrwt beam="1">  1        1 0.10942716E+00 0.80008565E+03</pdfrwt>
<pdfrwt beam="2">  1       -2 0.15683344E+00 0.80008565E+03</pdfrwt>
<totfact> 0.62962512E+00</totfact>
</mgrwt>
</event>
<event>
12    3  0.1176505E-007  0.7594839E+03  0.7818608E-02  0.9620588E-01
         -4   -1    0    0    0  501 -0.00000000000E+00  0.00000000000E+00  0.28039112135E+03  0.28039112135E+03  0.00000000000E+00 0.  1.
          1   -1    0    0  501    0  0.00000000000E+00 -0.00000000000E+00 -0.33839695249E+04  0.33839695249E+04  0.00000000000E+00 0. -1.
        -24    2    1    2    0    0  0.71673277716E+03 -0.24543886510E+03 -0.22482145038E+04  0.23737990448E+04  0.80668084126E+02 0.  0.
    5000000    2    1    2    0    0 -0.71673277716E+03  0.24543886510E+03 -0.85536389979E+03  0.12905616015E+04  0.59996311200E+03 0.  0.
        -24    2    4    4    0    0 -0.24353064273E+03  0.10004158053E+03 -0.72063511692E+03  0.77137337523E+03  0.79915083007E+02 0.  0.
         24    2    4    4    0    0 -0.47320213443E+03  0.14539728456E+03 -0.13472878287E+03  0.51918822624E+03  0.79648847726E+02 0.  0.
         13    1    5    5    0    0 -0.14443393572E+03  0.72920953294E+02 -0.53823421939E+03  0.56202731441E+03  0.00000000000E+00 0. -1.
        -14    1    5    5    0    0 -0.99096707017E+02  0.27120627241E+02 -0.18240089753E+03  0.20934606083E+03  0.00000000000E+00 0.  1.
         15    1    3    3    0    0  0.69634756374E+03 -0.23067096086E+03 -0.22046194943E+04  0.23234584769E+04  0.17770000000E+01 0. -1.
        -16    1    3    3    0    0  0.20385213422E+02 -0.14767904242E+02 -0.43595009487E+02  0.50340567876E+02  0.00000000000E+00 0.  1.
          4    1    6    6  502    0 -0.26773327329E+03  0.95485370655E+02 -0.11567798045E+03  0.30688753119E+03  0.00000000000E+00 0. -1.
         -3    1    6    6    0  502 -0.20546886113E+03  0.49911913909E+02 -0.19050802424E+02  0.21230069505E+03  0.00000000000E+00 0.  1.
<mgrwt>
<rscale>  0 0.75948386E+03</rscale>
<asrwt>0</asrwt>
<pdfrwt beam="1">  1        1 0.52061065E+00 0.75948386E+03</pdfrwt>
<pdfrwt beam="2">  1       -4 0.43137100E-01 0.75948386E+03</pdfrwt>
<totfact> 0.84009444E-01</totfact>
</mgrwt>
</event>
<event>
12    3  0.1176505E-007  0.5248960E+03  0.7818608E-02  0.1007477E+00
          1   -1    0    0  501    0  0.00000000000E+00  0.00000000000E+00  0.30931081414E+04  0.30931081414E+04  0.00000000000E+00 0. -1.
         -2   -1    0    0    0  501 -0.00000000000E+00 -0.00000000000E+00 -0.14841489105E+03  0.14841489105E+03  0.00000000000E+00 0.  1.
        -24    2    1    2    0    0 -0.24433326663E+03 -0.41419719218E+03  0.17824785520E+04  0.18479983771E+04  0.81302854588E+02 0.  0.
    5000000    2    1    2    0    0  0.24433326663E+03  0.41419719218E+03  0.11622146984E+04  0.13935246554E+04  0.59992491268E+03 0.  0.
        -24    2    4    4    0    0 -0.39473158000E+02  0.42764119244E+02  0.77519602493E+03  0.78135259496E+03  0.78715312859E+02 0.  0.
         24    2    4    4    0    0  0.28380642463E+03  0.37143307294E+03  0.38701867344E+03  0.61217206042E+03  0.80390071779E+02 0.  0.
         13    1    5    5    0    0 -0.56906880739E+02  0.44094188072E+02  0.71650525725E+03  0.72011282045E+03  0.00000000000E+00 0. -1.
        -14    1    5    5    0    0  0.17433722739E+02 -0.13300688277E+01  0.58690767677E+02  0.61239774511E+02  0.00000000000E+00 0.  1.
         15    1    3    3    0    0 -0.70672262952E+02 -0.19292488704E+03  0.69556295741E+03  0.72527619997E+03  0.17770000000E+01 0. -1.
        -16    1    3    3    0    0 -0.17366100368E+03 -0.22127230514E+03  0.10869155946E+04  0.11227221771E+04  0.00000000000E+00 0.  1.
          2    1    6    6  502    0  0.27070072939E+03  0.37243625254E+03  0.38141319838E+03  0.59788265988E+03  0.00000000000E+00 0. -1.
         -3    1    6    6    0  502  0.13105695238E+02 -0.10031796020E+01  0.56054750599E+01  0.14289400535E+02  0.00000000000E+00 0.  1.
<mgrwt>
<rscale>  0 0.52489603E+03</rscale>
<asrwt>0</asrwt>
<pdfrwt beam="1">  1        1 0.47586274E+00 0.52489603E+03</pdfrwt>
<pdfrwt beam="2">  1       -2 0.22833063E-01 0.52489603E+03</pdfrwt>
<totfact> 0.84353540E+00</totfact>
</mgrwt>
</event>
<event>
12    3  0.1176505E-007  0.9925312E+03  0.7818608E-02  0.9316775E-01
         -2   -1    0    0    0  501 -0.00000000000E+00  0.00000000000E+00  0.18245509998E+04  0.18245509998E+04  0.00000000000E+00 0.  1.
          1   -1    0    0  501    0  0.00000000000E+00 -0.00000000000E+00 -0.59484296758E+03  0.59484296758E+03  0.00000000000E+00 0. -1.
        -24    2    1    2    0    0 -0.83703942089E+01 -0.90372820408E+03  0.91786717005E+03  0.12906427394E+04  0.80522099373E+02 0.  0.
    5000000    2    1    2    0    0  0.83703942089E+01  0.90372820408E+03  0.31184086220E+03  0.11287512280E+04  0.60003323335E+03 0.  0.
        -24    2    4    4    0    0  0.28943598274E+03  0.49607348223E+03  0.12487892301E+03  0.59335118497E+03  0.81294498062E+02 0.  0.
         24    2    4    4    0    0 -0.28106558854E+03  0.40765472186E+03  0.18696193919E+03  0.53540004308E+03  0.80735383261E+02 0.  0.
         13    1    5    5    0    0  0.22094116736E+02  0.10523428726E+02 -0.25602375150E+01  0.24605840010E+02  0.00000000000E+00 0. -1.
        -14    1    5    5    0    0  0.26734186601E+03  0.48555005350E+03  0.12743916053E+03  0.56874534496E+03  0.00000000000E+00 0.  1.
         15    1    3    3    0    0 -0.36954995126E+02 -0.47649974040E+03  0.51759439261E+03  0.70450322019E+03  0.17770000000E+01 0. -1.
        -16    1    3    3    0    0  0.28584600917E+02 -0.42722846368E+03  0.40027277744E+03  0.58613951919E+03  0.00000000000E+00 0.  1.
          4    1    6    6  502    0 -0.22256131372E+03  0.36604978216E+03  0.14514577236E+03  0.45231988307E+03  0.00000000000E+00 0. -1.
         -3    1    6    6    0  502 -0.58504274820E+02  0.41604939697E+02  0.41816166825E+02  0.83080160010E+02  0.00000000000E+00 0.  1.
<mgrwt>
<rscale>  0 0.99253120E+03</rscale>
<asrwt>0</asrwt>
<pdfrwt beam="1">  1        1 0.91514303E-01 0.99253120E+03</pdfrwt>
<pdfrwt beam="2">  1       -2 0.28070015E+00 0.99253120E+03</pdfrwt>
<totfact> 0.12761900E+00</totfact>
</mgrwt>
</event>
<event>
12    3  0.1176505E-007  0.7060888E+03  0.7818608E-02  0.9706876E-01
         -2   -1    0    0    0  501 -0.00000000000E+00  0.00000000000E+00  0.34400194898E+04  0.34400194898E+04  0.00000000000E+00 0.  1.
          1   -1    0    0  501    0  0.00000000000E+00 -0.00000000000E+00 -0.43567521934E+03  0.43567521934E+03  0.00000000000E+00 0. -1.
        -24    2    1    2    0    0 -0.42636386368E+03 -0.51047769837E+03  0.28971037179E+04  0.29735690927E+04  0.80805767546E+02 0.  0.
    5000000    2    1    2    0    0  0.42636386368E+03  0.51047769837E+03  0.10724055255E+03  0.90212561642E+03  0.59996372132E+03 0.  0.
        -24    2    4    4    0    0  0.42548783471E+03  0.29308404559E+03  0.29827407879E+03  0.60204686339E+03  0.80961993403E+02 0.  0.
         24    2    4    4    0    0  0.87602897433E+00  0.21739365278E+03 -0.19103352624E+03  0.30007875303E+03  0.79326427985E+02 0.  0.
         13    1    5    5    0    0  0.52372606377E+02  0.46865946365E+02  0.73470144754E+02  0.10167186925E+03  0.00000000000E+00 0. -1.
        -14    1    5    5    0    0  0.37311522833E+03  0.24621809922E+03  0.22480393403E+03  0.50037499414E+03  0.00000000000E+00 0.  1.
         15    1    3    3    0    0 -0.13736744775E+03 -0.20730765132E+03  0.95887055077E+03  0.99059687506E+03  0.17770000000E+01 0. -1.
        -16    1    3    3    0    0 -0.28899641593E+03 -0.30317004705E+03  0.19382331671E+04  0.19829722177E+04  0.00000000000E+00 0.  1.
          2    1    6    6  502    0 -0.16406943030E+02  0.10005186491E+02 -0.27028019781E+01  0.19406098908E+02  0.00000000000E+00 0. -1.
         -1    1    6    6    0  502  0.17282972004E+02  0.20738846629E+03 -0.18833072426E+03  0.28067265412E+03  0.00000000000E+00 0.  1.
<mgrwt>
<rscale>  0 0.70608882E+03</rscale>
<asrwt>0</asrwt>
<pdfrwt beam="1">  1        1 0.67026959E-01 0.70608882E+03</pdfrwt>
<pdfrwt beam="2">  1       -2 0.52923375E+00 0.70608882E+03</pdfrwt>
<totfact> 0.54923751E-02</totfact>
</mgrwt>
</event>
<event>
12    3  0.1176505E-007  0.1207777E+04  0.7818608E-02  0.9106076E-01
         -2   -1    0    0    0  501 -0.00000000000E+00  0.00000000000E+00  0.84869665172E+03  0.84869665172E+03  0.00000000000E+00 0.  1.
          1   -1    0    0  501    0  0.00000000000E+00 -0.00000000000E+00 -0.19094063221E+04  0.19094063221E+04  0.00000000000E+00 0. -1.
        -24    2    1    2    0    0 -0.32477107390E+03  0.11531237562E+04 -0.40944278812E+03  0.12685079583E+04  0.79362434544E+02 0.  0.
    5000000    2    1    2    0    0  0.32477107390E+03 -0.11531237562E+04 -0.65126688231E+03  0.14895950156E+04  0.59964498737E+03 0.  0.
        -24    2    4    4    0    0  0.29064711216E+03 -0.88316465365E+03 -0.19638768875E+03  0.95351731514E+03  0.78559510672E+02 0.  0.
         24    2    4    4    0    0  0.34123961743E+02 -0.26995910254E+03 -0.45487919356E+03  0.53607770042E+03  0.80136498240E+02 0.  0.
         11    1    5    5    0    0  0.18786276225E+03 -0.67744033290E+03 -0.14208195190E+03  0.71722040067E+03  0.00000000000E+00 0. -1.
        -12    1    5    5    0    0  0.10278434990E+03 -0.20572432075E+03 -0.54305736850E+02  0.23629691447E+03  0.00000000000E+00 0.  1.
         15    1    3    3    0    0 -0.65957792595E+02  0.36380728803E+03 -0.11533407037E+03  0.38731289515E+03  0.17770000000E+01 0. -1.
        -16    1    3    3    0    0 -0.25881328131E+03  0.78931646815E+03 -0.29410871775E+03  0.88119506316E+03  0.00000000000E+00 0.  1.
          4    1    6    6  502    0 -0.23104387083E+02 -0.53577115944E+02 -0.73148271981E+02  0.93568102199E+02  0.00000000000E+00 0. -1.
         -3    1    6    6    0  502  0.57228348826E+02 -0.21638198659E+03 -0.38173092158E+03  0.44250959822E+03  0.00000000000E+00 0.  1.
<mgrwt>
<rscale>  0 0.12077771E+04</rscale>
<asrwt>0</asrwt>
<pdfrwt beam="1">  1        1 0.29375482E+00 0.12077771E+04</pdfrwt>
<pdfrwt beam="2">  1       -2 0.13056872E+00 0.12077771E+04</pdfrwt>
<totfact> 0.12650615E+00</totfact>
</mgrwt>
</event>
<event>
12    3  0.1176505E-007  0.5363419E+03  0.7818608E-02  0.1004706E+00
         -2   -1    0    0    0  501 -0.00000000000E+00  0.00000000000E+00  0.67576301497E+03  0.67576301497E+03  0.00000000000E+00 0.  1.
          1   -1    0    0  501    0  0.00000000000E+00 -0.00000000000E+00 -0.53408204396E+03  0.53408204396E+03  0.00000000000E+00 0. -1.
        -24    2    1    2    0    0 -0.36407351362E+03 -0.25917474458E+03  0.47258772171E+02  0.45585718556E+03  0.76493859461E+02 0.  0.
    5000000    2    1    2    0    0  0.36407351362E+03  0.25917474458E+03  0.94422198834E+02  0.75398787337E+03  0.59988423050E+03 0.  0.
        -24    2    4    4    0    0  0.44742039210E+03  0.23032069551E+03 -0.10680669732E+03  0.52029589942E+03  0.77894302204E+02 0.  0.
         24    2    4    4    0    0 -0.83346878478E+02  0.28854049069E+02  0.20122889615E+03  0.23369197395E+03  0.79621678849E+02 0.  0.
         13    1    5    5    0    0  0.19896085445E+03  0.70520070105E+02 -0.18153539667E+02  0.21186800819E+03  0.00000000000E+00 0. -1.
        -14    1    5    5    0    0  0.24845953764E+03  0.15980062541E+03 -0.88653157649E+02  0.30842789123E+03  0.00000000000E+00 0.  1.
         15    1    3    3    0    0 -0.20336642699E+03 -0.13162485087E+03 -0.11224938000E+02  0.24251218930E+03  0.17770000000E+01 0. -1.
        -16    1    3    3    0    0 -0.16070708662E+03 -0.12754989371E+03  0.58483710172E+02  0.21334499626E+03  0.00000000000E+00 0.  1.
          2    1    6    6  502    0  0.15718880043E+02  0.75019094087E+01  0.32322980912E+02  0.36716984212E+02  0.00000000000E+00 0. -1.
         -1    1    6    6    0  502 -0.99065758522E+02  0.21352139660E+02  0.16890591524E+03  0.19697498974E+03  0.00000000000E+00 0.  1.
<mgrwt>
<rscale>  0 0.53634190E+03</rscale>
<asrwt>0</asrwt>
<pdfrwt beam="1">  1        1 0.82166468E-01 0.53634190E+03</pdfrwt>
<pdfrwt beam="2">  1       -2 0.10396354E+00 0.53634190E+03</pdfrwt>
<totfact> 0.27673327E+01</totfact>
</mgrwt>
</event>
<event>
12    3  0.1176505E-007  0.7415070E+03  0.7818608E-02  0.9648769E-01
          1   -1    0    0  501    0  0.00000000000E+00  0.00000000000E+00  0.21442554883E+04  0.21442554883E+04  0.00000000000E+00 0. -1.
         -2   -1    0    0    0  501 -0.00000000000E+00 -0.00000000000E+00 -0.33682730476E+03  0.33682730476E+03  0.00000000000E+00 0.  1.
        -24    2    1    2    0    0  0.40215798544E+03 -0.48091831751E+03  0.21509250156E+03  0.66762882421E+03  0.80311825510E+02 0.  0.
    5000000    2    1    2    0    0 -0.40215798544E+03  0.48091831751E+03  0.15923356819E+04  0.18134539688E+04  0.60005741360E+03 0.  0.
        -24    2    4    4    0    0 -0.53660957938E+03  0.44552848581E+03  0.13784293304E+04  0.15467263465E+04  0.76482020974E+02 0.  0.
         24    2    4    4    0    0  0.13445159394E+03  0.35389831705E+02  0.21390635150E+03  0.26672762232E+03  0.77833321899E+02 0.  0.
         13    1    5    5    0    0 -0.31205489437E+02  0.76989225534E+01  0.80402675542E+02  0.86588949721E+02  0.00000000000E+00 0. -1.
        -14    1    5    5    0    0 -0.50540408994E+03  0.43782956326E+03  0.12980266549E+04  0.14601373968E+04  0.00000000000E+00 0.  1.
         15    1    3    3    0    0  0.10222029442E+03 -0.15867143063E+03  0.94970499625E+02  0.21130112404E+03  0.17770000000E+01 0. -1.
        -16    1    3    3    0    0  0.29993769102E+03 -0.32224688688E+03  0.12012200193E+03  0.45632770018E+03  0.00000000000E+00 0.  1.
          2    1    6    6  502    0  0.89965268605E+02 -0.89351266782E+01  0.88696135498E+02  0.12665145280E+03  0.00000000000E+00 0. -1.
         -1    1    6    6    0  502  0.44486325333E+02  0.44324958383E+02  0.12521021600E+03  0.14007616952E+03  0.00000000000E+00 0.  1.
<mgrwt>
<rscale>  0 0.74150703E+03</rscale>
<asrwt>0</asrwt>
<pdfrwt beam="1">  1        1 0.32988545E+00 0.74150703E+03</pdfrwt>
<pdfrwt beam="2">  1       -2 0.51819587E-01 0.74150703E+03</pdfrwt>
<totfact> 0.76845664E+00</totfact>
</mgrwt>
</event>
<event>
12    3  0.1449516E-007  0.8921111E+03  0.7818608E-02  0.9435497E-01
          1   -1    0    0  501    0  0.00000000000E+00  0.00000000000E+00  0.76138698951E+03  0.76138698951E+03  0.00000000000E+00 0. -1.
         -2   -1    0    0    0  501 -0.00000000000E+00 -0.00000000000E+00 -0.15170948427E+04  0.15170948427E+04  0.00000000000E+00 0.  1.
        -24    2    1    2    0    0  0.85229567735E+03  0.23794292953E+03 -0.81745291551E+03  0.12075929609E+04  0.83825596869E+02 0.  0.
    5000000    2    1    2    0    0 -0.85229567735E+03 -0.23794292953E+03  0.61745062343E+02  0.10708888713E+04  0.59997146823E+03 0.  0.
        -24    2    4    4    0    0 -0.27266455889E+03 -0.42840272124E+02 -0.24909906251E+03  0.38019219001E+03  0.79463877382E+02 0.  0.
         24    2    4    4    0    0 -0.57963111846E+03 -0.19510265741E+03  0.31084412485E+03  0.69069668133E+03  0.80003470125E+02 0.  0.
         13    1    5    5    0    0 -0.15624256465E+03  0.83878223547E+01 -0.10740925475E+03  0.18978630766E+03  0.00000000000E+00 0. -1.
        -14    1    5    5    0    0 -0.11642199425E+03 -0.51228094479E+02 -0.14168980776E+03  0.19040588234E+03  0.00000000000E+00 0.  1.
         15    1    3    3    0    0  0.12302862366E+03  0.45336198599E+02 -0.85407872147E+02  0.15648985749E+03  0.17770000000E+01 0. -1.
        -16    1    3    3    0    0  0.72926705369E+03  0.19260673093E+03 -0.73204504336E+03  0.10511031034E+04  0.00000000000E+00 0.  1.
          2    1    6    6  502    0 -0.28664050791E+03 -0.61591727512E+02  0.12306800073E+03  0.31796549259E+03  0.00000000000E+00 0. -1.
         -1    1    6    6    0  502 -0.29299061055E+03 -0.13351092990E+03  0.18777612412E+03  0.37273118874E+03  0.00000000000E+00 0.  1.
<mgrwt>
<rscale>  0 0.89211112E+03</rscale>
<asrwt>0</asrwt>
<pdfrwt beam="1">  1        1 0.11713646E+00 0.89211112E+03</pdfrwt>
<pdfrwt beam="2">  1       -2 0.23339920E+00 0.89211112E+03</pdfrwt>
<totfact> 0.17293007E+00</totfact>
</mgrwt>
</event>
<event>
12    3  0.1176505E-007  0.5308363E+03  0.7818608E-02  0.1006030E+00
         -2   -1    0    0    0  501 -0.00000000000E+00  0.00000000000E+00  0.12205029480E+04  0.12205029480E+04  0.00000000000E+00 0.  1.
          1   -1    0    0  501    0  0.00000000000E+00 -0.00000000000E+00 -0.10860418358E+04  0.10860418358E+04  0.00000000000E+00 0. -1.
        -24    2    1    2    0    0  0.48971801765E+03 -0.72787109221E+02  0.10146250948E+04  0.11318535155E+04  0.80663482954E+02 0.  0.
    5000000    2    1    2    0    0 -0.48971801765E+03  0.72787109221E+02 -0.88016398257E+03  0.11746912683E+04  0.60007436162E+03 0.  0.
        -24    2    4    4    0    0 -0.26244578790E+03 -0.69702256313E+02 -0.84618325749E+03  0.89246320986E+03  0.82026090837E+02 0.  0.
         24    2    4    4    0    0 -0.22727222975E+03  0.14248936553E+03 -0.33980725077E+02  0.28222805841E+03  0.80883258920E+02 0.  0.
         11    1    5    5    0    0 -0.93510477491E+02  0.14469275442E+02 -0.30208532059E+03  0.31655822569E+03  0.00000000000E+00 0. -1.
        -12    1    5    5    0    0 -0.16893531041E+03 -0.84171531756E+02 -0.54409793690E+03  0.57590498418E+03  0.00000000000E+00 0.  1.
         15    1    3    3    0    0  0.47126516630E+03 -0.52885792252E+02  0.96748265144E+03  0.10774570073E+04  0.17770000000E+01 0. -1.
        -16    1    3    3    0    0  0.18452851353E+02 -0.19901316969E+02  0.47142443337E+02  0.54396508197E+02  0.00000000000E+00 0.  1.
          4    1    6    6  502    0 -0.15880879210E+03  0.60060368454E+02 -0.41586565974E+02  0.17480538543E+03  0.00000000000E+00 0. -1.
         -3    1    6    6    0  502 -0.68463437649E+02  0.82428997080E+02  0.76058408974E+01  0.10742267298E+03  0.00000000000E+00 0.  1.
<mgrwt>
<rscale>  0 0.53083630E+03</rscale>
<asrwt>0</asrwt>
<pdfrwt beam="1">  1        1 0.16708336E+00 0.53083630E+03</pdfrwt>
<pdfrwt beam="2">  1       -2 0.18776968E+00 0.53083630E+03</pdfrwt>
<totfact> 0.19662761E+00</totfact>
</mgrwt>
</event>
<event>
12    3  0.1176505E-007  0.7441419E+03  0.7818608E-02  0.9644586E-01
          1   -1    0    0  501    0  0.00000000000E+00  0.00000000000E+00  0.11565019370E+04  0.11565019370E+04  0.00000000000E+00 0. -1.
         -2   -1    0    0    0  501 -0.00000000000E+00 -0.00000000000E+00 -0.11384200758E+04  0.11384200758E+04  0.00000000000E+00 0.  1.
        -24    2    1    2    0    0 -0.19955864147E+02  0.64108359509E+03 -0.84486184467E+03  0.10636471469E+04  0.78532185168E+02 0.  0.
    5000000    2    1    2    0    0  0.19955864147E+02 -0.64108359509E+03  0.86294370586E+03  0.12312748660E+04  0.59998295283E+03 0.  0.
        -24    2    4    4    0    0 -0.21341949415E+03 -0.66635266259E+02  0.35572092231E+03  0.42582815745E+03  0.69311657900E+02 0.  0.
         24    2    4    4    0    0  0.23337535829E+03 -0.57444832883E+03  0.50722278356E+03  0.80544670852E+03  0.83752658213E+02 0.  0.
         11    1    5    5    0    0 -0.13424705910E+03 -0.58329830813E+02  0.17361981325E+03  0.22708694721E+03  0.00000000000E+00 0. -1.
        -12    1    5    5    0    0 -0.79172435044E+02 -0.83054354453E+01  0.18210110905E+03  0.19874121024E+03  0.00000000000E+00 0.  1.
         15    1    3    3    0    0  0.86253784171E+01  0.15798491523E+03 -0.26191744747E+03  0.30600251243E+03  0.17770000000E+01 0. -1.
        -16    1    3    3    0    0 -0.28581242564E+02  0.48309867986E+03 -0.58294439719E+03  0.75764463446E+03  0.00000000000E+00 0.  1.
          4    1    6    6  502    0  0.64909802272E+02 -0.17241347062E+03  0.20147233837E+03  0.27300327912E+03  0.00000000000E+00 0. -1.
         -3    1    6    6    0  502  0.16846555602E+03 -0.40203485821E+03  0.30575044518E+03  0.53244342940E+03  0.00000000000E+00 0.  1.
<mgrwt>
<rscale>  0 0.74414187E+03</rscale>
<asrwt>0</asrwt>
<pdfrwt beam="1">  1        1 0.17792337E+00 0.74414187E+03</pdfrwt>
<pdfrwt beam="2">  1       -2 0.17514155E+00 0.74414187E+03</pdfrwt>
<totfact> 0.20407914E+00</totfact>
</mgrwt>
</event>
<event>
12    3  0.1176505E-007  0.3492487E+03  0.7818608E-02  0.1062924E+00
         -2   -1    0    0    0  501 -0.00000000000E+00  0.00000000000E+00  0.41422033822E+03  0.41422033822E+03  0.00000000000E+00 0.  1.
          1   -1    0    0  501    0  0.00000000000E+00 -0.00000000000E+00 -0.59117983526E+03  0.59117983526E+03  0.00000000000E+00 0. -1.
        -24    2    1    2    0    0  0.27391844898E+03  0.74423208113E+02  0.39756209962E+02  0.30715595320E+03  0.11042686611E+03 0.  0.
    5000000    2    1    2    0    0 -0.27391844898E+03 -0.74423208113E+02 -0.21671570700E+03  0.69824422028E+03  0.60000763570E+03 0.  0.
        -24    2    4    4    0    0  0.15011080047E+02  0.28079226439E+02 -0.34594062806E+03  0.35643105901E+03  0.79714529464E+02 0.  0.
         24    2    4    4    0    0 -0.28892952902E+03 -0.10250243455E+03  0.12922492105E+03  0.34181316126E+03  0.78422797453E+02 0.  0.
         11    1    5    5    0    0  0.43324108126E+02  0.35489651217E+02 -0.20706081385E+03  0.21450098909E+03  0.00000000000E+00 0. -1.
        -12    1    5    5    0    0 -0.28313028079E+02 -0.74104247778E+01 -0.13887981421E+03  0.14193006993E+03  0.00000000000E+00 0.  1.
         15    1    3    3    0    0  0.17273519757E+03  0.89779810263E+02 -0.66249591182E+01  0.19479453438E+03  0.17770000000E+01 0. -1.
        -16    1    3    3    0    0  0.10118325141E+03 -0.15356602150E+02  0.46381169080E+02  0.11236141882E+03  0.00000000000E+00 0.  1.
          2    1    6    6  502    0 -0.39584852492E+02  0.12643207706E+02  0.12535078919E+02  0.43404371340E+02  0.00000000000E+00 0. -1.
         -1    1    6    6    0  502 -0.24934467653E+03 -0.11514564226E+03  0.11668984213E+03  0.29840878992E+03  0.00000000000E+00 0.  1.
<mgrwt>
<rscale>  0 0.34924872E+03</rscale>
<asrwt>0</asrwt>
<pdfrwt beam="1">  1        1 0.90950744E-01 0.34924872E+03</pdfrwt>
<pdfrwt beam="2">  1       -2 0.63726206E-01 0.34924872E+03</pdfrwt>
<totfact> 0.73621193E+01</totfact>
</mgrwt>
</event>
<event>
12    3  0.1176505E-007  0.4836962E+03  0.7818608E-02  0.1018124E+00
         -2   -1    0    0    0  501 -0.00000000000E+00  0.00000000000E+00  0.14882830400E+03  0.14882830400E+03  0.00000000000E+00 0.  1.
          1   -1    0    0  501    0  0.00000000000E+00 -0.00000000000E+00 -0.25588562572E+04  0.25588562572E+04  0.00000000000E+00 0. -1.
        -24    2    1    2    0    0  0.21666827656E+03 -0.21919184592E+03 -0.16995273324E+04  0.17279961963E+04  0.50867411198E+02 0.  0.
    5000000    2    1    2    0    0 -0.21666827656E+03  0.21919184592E+03 -0.71050062077E+03  0.97968836485E+03  0.59998996053E+03 0.  0.
        -24    2    4    4    0    0 -0.20592270524E+03 -0.16884913746E+03 -0.30327304964E+03  0.41145054353E+03  0.80017594156E+02 0.  0.
         24    2    4    4    0    0 -0.10745571322E+02  0.38804098338E+03 -0.40722757112E+03  0.56823782133E+03  0.79803852127E+02 0.  0.
         11    1    5    5    0    0 -0.16846159365E+03 -0.14777548344E+03 -0.20305430981E+03  0.30240362890E+03  0.00000000000E+00 0. -1.
        -12    1    5    5    0    0 -0.37461111590E+02 -0.21073654019E+02 -0.10021873983E+03  0.10904691462E+03  0.00000000000E+00 0.  1.
         15    1    3    3    0    0  0.92721771186E+02 -0.60366089914E+02 -0.56961940335E+03  0.58026788129E+03  0.17770000000E+01 0. -1.
        -16    1    3    3    0    0  0.12394650537E+03 -0.15882575601E+03 -0.11299079291E+04  0.11477283150E+04  0.00000000000E+00 0.  1.
          4    1    6    6  502    0 -0.71512878454E+01  0.21085278019E+03 -0.16362496038E+03  0.26698906998E+03  0.00000000000E+00 0. -1.
         -3    1    6    6    0  502 -0.35942834770E+01  0.17718820320E+03 -0.24360261074E+03  0.30124875134E+03  0.00000000000E+00 0.  1.
<mgrwt>
<rscale>  0 0.48369618E+03</rscale>
<asrwt>0</asrwt>
<pdfrwt beam="1">  1        1 0.39367016E+00 0.48369618E+03</pdfrwt>
<pdfrwt beam="2">  1       -2 0.22896664E-01 0.48369618E+03</pdfrwt>
<totfact> 0.19990085E+01</totfact>
</mgrwt>
</event>
<event>
12    3  0.1176505E-007  0.5234569E+03  0.7818608E-02  0.1007831E+00
         -2   -1    0    0    0  501 -0.00000000000E+00  0.00000000000E+00  0.59440919752E+03  0.59440919752E+03  0.00000000000E+00 0.  1.
          1   -1    0    0  501    0  0.00000000000E+00 -0.00000000000E+00 -0.30612424138E+04  0.30612424138E+04  0.00000000000E+00 0. -1.
        -24    2    1    2    0    0  0.19476489496E+03  0.31400291337E+03  0.48839501707E+03  0.61756688442E+03  0.79548539415E+02 0.  0.
    5000000    2    1    2    0    0 -0.19476489496E+03 -0.31400291337E+03 -0.29552282334E+04  0.30380847269E+04  0.60004475068E+03 0.  0.
        -24    2    4    4    0    0  0.10907187019E+03  0.97884278547E+02 -0.44357911774E+03  0.47387049206E+03  0.79453160421E+02 0.  0.
         24    2    4    4    0    0 -0.30383676515E+03 -0.41188719191E+03 -0.25116491156E+04  0.25642142349E+04  0.69609794996E+02 0.  0.
         11    1    5    5    0    0  0.12057808707E+03  0.83255362729E+02 -0.41114957934E+03  0.43647967546E+03  0.00000000000E+00 0. -1.
        -12    1    5    5    0    0 -0.11506216881E+02  0.14628915818E+02 -0.32429538399E+02  0.37390816596E+02  0.00000000000E+00 0.  1.
         15    1    3    3    0    0  0.11588444045E+03  0.20315612778E+03  0.24492187736E+03  0.33866133457E+03  0.17770000000E+01 0. -1.
        -16    1    3    3    0    0  0.78880454509E+02  0.11084678559E+03  0.24347313971E+03  0.27890554985E+03  0.00000000000E+00 0.  1.
          2    1    6    6  502    0 -0.66781983590E+02 -0.88675880162E+02 -0.70055327007E+03  0.70929410632E+03  0.00000000000E+00 0. -1.
         -1    1    6    6    0  502 -0.23705478156E+03 -0.32321131175E+03 -0.18110958456E+04  0.18549201285E+04  0.00000000000E+00 0.  1.
<mgrwt>
<rscale>  0 0.52345687E+03</rscale>
<asrwt>0</asrwt>
<pdfrwt beam="1">  1        1 0.47096037E+00 0.52345687E+03</pdfrwt>
<pdfrwt beam="2">  1       -2 0.91447569E-01 0.52345687E+03</pdfrwt>
<totfact> 0.55072768E-01</totfact>
</mgrwt>
</event>
<event>
12    3  0.1176505E-007  0.1720170E+04  0.7818608E-02  0.8749944E-01
         -2   -1    0    0    0  501 -0.00000000000E+00  0.00000000000E+00  0.14905468041E+04  0.14905468041E+04  0.00000000000E+00 0.  1.
          1   -1    0    0  501    0  0.00000000000E+00 -0.00000000000E+00 -0.22366535751E+04  0.22366535751E+04  0.00000000000E+00 0. -1.
        -24    2    1    2    0    0  0.89279853314E+03  0.14237608406E+04  0.22196961936E+03  0.16971384460E+04  0.82608965392E+02 0.  0.
    5000000    2    1    2    0    0 -0.89279853314E+03 -0.14237608406E+04 -0.96807639035E+03  0.20300619331E+04  0.59982947812E+03 0.  0.
        -24    2    4    4    0    0 -0.48771660482E+03 -0.11995878448E+04 -0.83274499909E+03  0.15417730258E+04  0.81983812204E+02 0.  0.
         24    2    4    4    0    0 -0.40508192832E+03 -0.22417299572E+03 -0.13533139126E+03  0.48828890731E+03  0.75937941004E+02 0.  0.
         11    1    5    5    0    0 -0.49738785070E+02 -0.81448883177E+02 -0.79654157204E+02  0.12430869668E+03  0.00000000000E+00 0. -1.
        -12    1    5    5    0    0 -0.43797781975E+03 -0.11181389617E+04 -0.75309084189E+03  0.14174643291E+04  0.00000000000E+00 0.  1.
         15    1    3    3    0    0  0.57268894986E+02  0.89005474052E+02 -0.59950019988E+01  0.10602263212E+03  0.17770000000E+01 0. -1.
        -16    1    3    3    0    0  0.83552963815E+03  0.13347553665E+04  0.22796462136E+03  0.15911158139E+04  0.00000000000E+00 0.  1.
          2    1    6    6  502    0 -0.24263325764E+03 -0.14649115926E+03 -0.11929620087E+03  0.30750957871E+03  0.00000000000E+00 0. -1.
         -1    1    6    6    0  502 -0.16244867067E+03 -0.77681836459E+02 -0.16035190395E+02  0.18077932860E+03  0.00000000000E+00 0.  1.
<mgrwt>
<rscale>  0 0.17201698E+04</rscale>
<asrwt>0</asrwt>
<pdfrwt beam="1">  1        1 0.34410055E+00 0.17201698E+04</pdfrwt>
<pdfrwt beam="2">  1       -2 0.22931490E+00 0.17201698E+04</pdfrwt>
<totfact> 0.14294877E-01</totfact>
</mgrwt>
</event>
<event>
12    3  0.1570505E-007  0.1279948E+04  0.7818608E-02  0.9045620E-01
         -2   -1    0    0    0  501 -0.00000000000E+00  0.00000000000E+00  0.13477132045E+04  0.13477132045E+04  0.00000000000E+00 0.  1.
          1   -1    0    0  501    0  0.00000000000E+00 -0.00000000000E+00 -0.13207719995E+04  0.13207719995E+04  0.00000000000E+00 0. -1.
        -24    2    1    2    0    0 -0.17511516906E+02  0.12635777815E+04 -0.58757709693E+02  0.12669164174E+04  0.68478297834E+02 0.  0.
    5000000    2    1    2    0    0  0.17511516906E+02 -0.12635777815E+04  0.85698914786E+02  0.14015687866E+04  0.60009607273E+03 0.  0.
        -24    2    4    4    0    0 -0.30418042496E+02 -0.11358275772E+04 -0.11671133725E+03  0.11448980867E+04  0.78361663212E+02 0.  0.
         24    2    4    4    0    0  0.47929559402E+02 -0.12775020427E+03  0.20241025204E+03  0.25667069989E+03  0.79325788336E+02 0.  0.
         11    1    5    5    0    0 -0.24425642205E+02 -0.25393292330E+03  0.14024040551E+01  0.25510881653E+03  0.00000000000E+00 0. -1.
        -12    1    5    5    0    0 -0.59924002911E+01 -0.88189465389E+03 -0.11811374131E+03  0.88978927017E+03  0.00000000000E+00 0.  1.
         15    1    3    3    0    0  0.22342756396E+02  0.52892024880E+03 -0.84815495151E+01  0.52946286249E+03  0.17770000000E+01 0. -1.
        -16    1    3    3    0    0 -0.39854273302E+02  0.73465753266E+03 -0.50276160178E+02  0.73745355493E+03  0.00000000000E+00 0.  1.
          2    1    6    6  502    0 -0.10709116009E+02 -0.83749410287E+02  0.10410423724E+03  0.13403858064E+03  0.00000000000E+00 0. -1.
         -1    1    6    6    0  502  0.58638675411E+02 -0.44000793978E+02  0.98306014802E+02  0.12263211925E+03  0.00000000000E+00 0.  1.
<mgrwt>
<rscale>  0 0.12799477E+04</rscale>
<asrwt>0</asrwt>
<pdfrwt beam="1">  1        1 0.20319569E+00 0.12799477E+04</pdfrwt>
<pdfrwt beam="2">  1       -2 0.20734049E+00 0.12799477E+04</pdfrwt>
<totfact> 0.88180847E-01</totfact>
</mgrwt>
</event>
<event>
12    3  0.1176505E-007  0.7523316E+03  0.7818608E-02  0.9631699E-01
         -2   -1    0    0    0  501 -0.00000000000E+00  0.00000000000E+00  0.21096125450E+03  0.21096125450E+03  0.00000000000E+00 0.  1.
          1   -1    0    0  501    0  0.00000000000E+00 -0.00000000000E+00 -0.34815424447E+04  0.34815424447E+04  0.00000000000E+00 0. -1.
        -24    2    1    2    0    0  0.35828985897E+03 -0.65165160459E+03 -0.12375623749E+04  0.14461475667E+04  0.82223572289E+02 0.  0.
    5000000    2    1    2    0    0 -0.35828985897E+03  0.65165160459E+03 -0.20330188152E+04  0.22463561325E+04  0.59994077563E+03 0.  0.
        -24    2    4    4    0    0 -0.22207202941E+03  0.31979324781E+03 -0.35932819034E+03  0.53286248099E+03  0.56938279625E+02 0.  0.
         24    2    4    4    0    0 -0.13621782957E+03  0.33185835678E+03 -0.16736906249E+04  0.17134936515E+04  0.78325729900E+02 0.  0.
         11    1    5    5    0    0 -0.12266851821E+03  0.13117470521E+03 -0.17988538482E+03  0.25419110984E+03  0.00000000000E+00 0. -1.
        -12    1    5    5    0    0 -0.99403511198E+02  0.18861854260E+03 -0.17944280552E+03  0.27867137116E+03  0.00000000000E+00 0.  1.
         15    1    3    3    0    0  0.31375139351E+03 -0.50367962781E+03 -0.96662988075E+03  0.11342440604E+04  0.17770000000E+01 0. -1.
        -16    1    3    3    0    0  0.44538465463E+02 -0.14797197678E+03 -0.27093249420E+03  0.31190350628E+03  0.00000000000E+00 0.  1.
          2    1    6    6  502    0 -0.10312118229E+03  0.17096725267E+03 -0.10301825284E+04  0.10493520961E+04  0.00000000000E+00 0. -1.
         -1    1    6    6    0  502 -0.33096647277E+02  0.16089110411E+03 -0.64350809649E+03  0.66414155546E+03  0.00000000000E+00 0.  1.
<mgrwt>
<rscale>  0 0.75233162E+03</rscale>
<asrwt>0</asrwt>
<pdfrwt beam="1">  1        1 0.53562189E+00 0.75233162E+03</pdfrwt>
<pdfrwt beam="2">  1       -2 0.32455579E-01 0.75233162E+03</pdfrwt>
<totfact> 0.21705482E+00</totfact>
</mgrwt>
</event>
<event>
12    3  0.1176505E-007  0.5697688E+03  0.7818608E-02  0.9970190E-01
         -2   -1    0    0    0  501 -0.00000000000E+00  0.00000000000E+00  0.34488935614E+03  0.34488935614E+03  0.00000000000E+00 0.  1.
          1   -1    0    0  501    0  0.00000000000E+00 -0.00000000000E+00 -0.11324095430E+04  0.11324095430E+04  0.00000000000E+00 0. -1.
        -24    2    1    2    0    0 -0.26505277376E+03 -0.35032951860E+03 -0.52408022742E+03  0.68839862971E+03  0.79049630790E+02 0.  0.
    5000000    2    1    2    0    0  0.26505277376E+03  0.35032951860E+03 -0.26343995945E+03  0.78890026945E+03  0.59998273176E+03 0.  0.
        -24    2    4    4    0    0  0.36898734930E+03  0.41093200971E+03 -0.93517612019E+02  0.56579135026E+03  0.79734106424E+02 0.  0.
         24    2    4    4    0    0 -0.10393457554E+03 -0.60602491108E+02 -0.16992234743E+03  0.22310891918E+03  0.80180594554E+02 0.  0.
         13    1    5    5    0    0  0.11121551918E+03  0.17828588538E+03 -0.22089680639E+02  0.21128819802E+03  0.00000000000E+00 0. -1.
        -14    1    5    5    0    0  0.25777183012E+03  0.23264612433E+03 -0.71427931381E+02  0.35450315224E+03  0.00000000000E+00 0.  1.
         15    1    3    3    0    0 -0.74309195170E+02 -0.93173067303E+02 -0.91722418206E+02  0.15039693045E+03  0.17770000000E+01 0. -1.
        -16    1    3    3    0    0 -0.19074357859E+03 -0.25715645130E+03 -0.43235780921E+03  0.53800169926E+03  0.00000000000E+00 0.  1.
          4    1    6    6  502    0 -0.27097882238E+02 -0.60148614318E+02 -0.61285073802E+02  0.90044496206E+02  0.00000000000E+00 0. -1.
         -3    1    6    6    0  502 -0.76836693298E+02 -0.45387678987E+00 -0.10863727362E+03  0.13306442297E+03  0.00000000000E+00 0.  1.
<mgrwt>
<rscale>  0 0.56976880E+03</rscale>
<asrwt>0</asrwt>
<pdfrwt beam="1">  1        1 0.17421685E+00 0.56976880E+03</pdfrwt>
<pdfrwt beam="2">  1       -2 0.53059902E-01 0.56976880E+03</pdfrwt>
<totfact> 0.36790541E+01</totfact>
</mgrwt>
</event>
<event>
12    3  0.1176505E-007  0.6362882E+03  0.7818608E-02  0.9832854E-01
         -2   -1    0    0    0  501 -0.00000000000E+00  0.00000000000E+00  0.25305212600E+03  0.25305212600E+03  0.00000000000E+00 0.  1.
          1   -1    0    0  501    0  0.00000000000E+00 -0.00000000000E+00 -0.19482272386E+04  0.19482272386E+04  0.00000000000E+00 0. -1.
        -24    2    1    2    0    0  0.42070677219E+03  0.37792458849E+03 -0.57554477505E+03  0.81079222314E+03  0.79442169311E+02 0.  0.
    5000000    2    1    2    0    0 -0.42070677219E+03 -0.37792458849E+03 -0.11196303375E+04  0.13904871414E+04  0.60005101035E+03 0.  0.
        -24    2    4    4    0    0 -0.20514419901E+03 -0.43277668044E+03 -0.38991972472E+03  0.62421327587E+03  0.90691920947E+02 0.  0.
         24    2    4    4    0    0 -0.21556257318E+03  0.54852091948E+02 -0.72971061280E+03  0.76627386556E+03  0.72263985895E+02 0.  0.
         13    1    5    5    0    0 -0.85277344564E+02 -0.22635153864E+03 -0.14403353819E+03  0.28151892417E+03  0.00000000000E+00 0. -1.
        -14    1    5    5    0    0 -0.11986685445E+03 -0.20642514179E+03 -0.24588618653E+03  0.34269435170E+03  0.00000000000E+00 0.  1.
         15    1    3    3    0    0  0.14498621696E+03  0.11985087394E+03 -0.14114074612E+03  0.23517887455E+03  0.17770000000E+01 0. -1.
        -16    1    3    3    0    0  0.27572055523E+03  0.25807371455E+03 -0.43440402893E+03  0.57561334858E+03  0.00000000000E+00 0.  1.
          4    1    6    6  502    0 -0.72890303070E+02  0.38994896436E+02 -0.17908416223E+03  0.19724283356E+03  0.00000000000E+00 0. -1.
         -3    1    6    6    0  502 -0.14267227011E+03  0.15857195512E+02 -0.55062645057E+03  0.56903103200E+03  0.00000000000E+00 0.  1.
<mgrwt>
<rscale>  0 0.63628822E+03</rscale>
<asrwt>0</asrwt>
<pdfrwt beam="1">  1        1 0.29972727E+00 0.63628822E+03</pdfrwt>
<pdfrwt beam="2">  1       -2 0.38931095E-01 0.63628822E+03</pdfrwt>
<totfact> 0.18664053E+01</totfact>
</mgrwt>
</event>
<event>
12    3  0.1176505E-007  0.2185171E+04  0.7818608E-02  0.8524626E-01
          1   -1    0    0  501    0  0.00000000000E+00  0.00000000000E+00  0.20741585291E+04  0.20741585291E+04  0.00000000000E+00 0. -1.
         -2   -1    0    0    0  501 -0.00000000000E+00 -0.00000000000E+00 -0.23811066165E+04  0.23811066165E+04  0.00000000000E+00 0.  1.
        -24    2    1    2    0    0 -0.16902551210E+04  0.13254881040E+04  0.22874443592E+03  0.21615909424E+04  0.79185209886E+02 0.  0.
    5000000    2    1    2    0    0  0.16902551210E+04 -0.13254881040E+04 -0.53569252331E+03  0.22936742031E+04  0.60007814708E+03 0.  0.
        -24    2    4    4    0    0  0.72127584460E+03 -0.23022598838E+03 -0.25427750759E+03  0.80267528236E+03  0.79923140070E+02 0.  0.
         24    2    4    4    0    0  0.96897927641E+03 -0.10952621157E+04 -0.28141501572E+03  0.14909989208E+04  0.73235446369E+02 0.  0.
         11    1    5    5    0    0  0.44976032799E+03 -0.11738678213E+03 -0.18710003719E+03  0.50106928979E+03  0.00000000000E+00 0. -1.
        -12    1    5    5    0    0  0.27151551660E+03 -0.11283920625E+03 -0.67177470409E+02  0.30160599257E+03  0.00000000000E+00 0.  1.
         15    1    3    3    0    0 -0.84352683142E+03  0.70069689704E+03  0.91820942047E+02  0.11004307793E+04  0.17770000000E+01 0. -1.
        -16    1    3    3    0    0 -0.84672828958E+03  0.62479120700E+03  0.13692349387E+03  0.10611601632E+04  0.00000000000E+00 0.  1.
          2    1    6    6  502    0  0.95761982894E+02 -0.96757765166E+02 -0.46719412486E+02  0.14392750255E+03  0.00000000000E+00 0. -1.
         -1    1    6    6    0  502  0.87321729351E+03 -0.99850435049E+03 -0.23469560323E+03  0.13470714182E+04  0.00000000000E+00 0.  1.
<mgrwt>
<rscale>  0 0.21851708E+04</rscale>
<asrwt>0</asrwt>
<pdfrwt beam="1">  1        1 0.31910131E+00 0.21851708E+04</pdfrwt>
<pdfrwt beam="2">  1       -2 0.36632409E+00 0.21851708E+04</pdfrwt>
<totfact> 0.24842447E-02</totfact>
</mgrwt>
</event>
<event>
12    3  0.1176505E-007  0.4519866E+03  0.7818608E-02  0.1027131E+00
         -2   -1    0    0    0  501 -0.00000000000E+00  0.00000000000E+00  0.11724616362E+03  0.11724616362E+03  0.00000000000E+00 0.  1.
          1   -1    0    0  501    0  0.00000000000E+00 -0.00000000000E+00 -0.30108371728E+04  0.30108371728E+04  0.00000000000E+00 0. -1.
        -24    2    1    2    0    0 -0.33106519531E+02  0.36929556695E+03 -0.46993722674E+03  0.60389152959E+03  0.79804292058E+02 0.  0.
    5000000    2    1    2    0    0  0.33106519531E+02 -0.36929556695E+03 -0.24236537824E+04  0.25241918068E+04  0.59997613545E+03 0.  0.
        -24    2    4    4    0    0  0.12482680310E+03 -0.70679601549E+01 -0.16942899216E+04  0.17010382789E+04  0.85329952365E+02 0.  0.
         24    2    4    4    0    0 -0.91720283567E+02 -0.36222760680E+03 -0.72936386079E+03  0.82315352795E+03  0.77386301146E+02 0.  0.
         11    1    5    5    0    0  0.13780847825E+03 -0.70731632101E+01 -0.15796911444E+04  0.15857065674E+04  0.00000000000E+00 0. -1.
        -12    1    5    5    0    0 -0.12981675152E+02  0.52030551670E-02 -0.11459877725E+03  0.11533171144E+03  0.00000000000E+00 0.  1.
         15    1    3    3    0    0  0.22670072147E+02  0.14331269411E+03 -0.15566374262E+03  0.21280699932E+03  0.17770000000E+01 0. -1.
        -16    1    3    3    0    0 -0.55776591678E+02  0.22598287285E+03 -0.31427348412E+03  0.39108453027E+03  0.00000000000E+00 0.  1.
          4    1    6    6  502    0 -0.26740325154E+02 -0.17308580547E+03 -0.41656678287E+03  0.45188673983E+03  0.00000000000E+00 0. -1.
         -3    1    6    6    0  502 -0.64979958413E+02 -0.18914180132E+03 -0.31279707792E+03  0.37126678812E+03  0.00000000000E+00 0.  1.
<mgrwt>
<rscale>  0 0.45198664E+03</rscale>
<asrwt>0</asrwt>
<pdfrwt beam="1">  1        1 0.46320570E+00 0.45198664E+03</pdfrwt>
<pdfrwt beam="2">  1       -2 0.18037872E-01 0.45198664E+03</pdfrwt>
<totfact> 0.14832424E+01</totfact>
</mgrwt>
</event>
<event>
12    3  0.1176505E-007  0.7916565E+03  0.7818608E-02  0.9572173E-01
          1   -1    0    0  501    0  0.00000000000E+00  0.00000000000E+00  0.36745755900E+04  0.36745755900E+04  0.00000000000E+00 0. -1.
         -2   -1    0    0    0  501 -0.00000000000E+00 -0.00000000000E+00 -0.31893681405E+03  0.31893681405E+03  0.00000000000E+00 0.  1.
        -24    2    1    2    0    0 -0.43661903346E+03  0.59827894578E+03  0.27842345750E+04  0.28821852116E+04  0.80346423083E+02 0.  0.
    5000000    2    1    2    0    0  0.43661903346E+03 -0.59827894578E+03  0.57140420094E+03  0.11113271925E+04  0.59997624168E+03 0.  0.
        -24    2    4    4    0    0  0.14775026007E+03 -0.50056078750E+03  0.59418819472E+03  0.79486195609E+03  0.79716228958E+02 0.  0.
         24    2    4    4    0    0  0.28886877339E+03 -0.97718158276E+02 -0.22783993784E+02  0.31646523640E+03  0.81468575415E+02 0.  0.
         11    1    5    5    0    0  0.14540121842E+03 -0.37412304210E+03  0.44453586796E+03  0.59893380506E+03  0.00000000000E+00 0. -1.
        -12    1    5    5    0    0  0.23490416501E+01 -0.12643774540E+03  0.14965232676E+03  0.19592815102E+03  0.00000000000E+00 0.  1.
         15    1    3    3    0    0 -0.20239299891E+03  0.28991557054E+03  0.14820831648E+04  0.15236756969E+04  0.17770000000E+01 0. -1.
        -16    1    3    3    0    0 -0.23422603455E+03  0.30836337524E+03  0.13021514102E+04  0.13585095147E+04  0.00000000000E+00 0.  1.
          4    1    6    6  502    0  0.38693009550E+02  0.13355365724E+02  0.54240754514E+01  0.41290863107E+02  0.00000000000E+00 0. -1.
         -3    1    6    6    0  502  0.25017576384E+03 -0.11107352400E+03 -0.28208069236E+02  0.27517437329E+03  0.00000000000E+00 0.  1.
<mgrwt>
<rscale>  0 0.79165653E+03</rscale>
<asrwt>0</asrwt>
<pdfrwt beam="1">  1        1 0.56531929E+00 0.79165653E+03</pdfrwt>
<pdfrwt beam="2">  1       -2 0.49067205E-01 0.79165653E+03</pdfrwt>
<totfact> 0.67769468E-01</totfact>
</mgrwt>
</event>
<event>
12    3  0.1176505E-007  0.1221506E+04  0.7818608E-02  0.9094238E-01
          1   -1    0    0  501    0  0.00000000000E+00  0.00000000000E+00  0.30579698536E+04  0.30579698536E+04  0.00000000000E+00 0. -1.
         -2   -1    0    0    0  501 -0.00000000000E+00 -0.00000000000E+00 -0.57907718823E+03  0.57907718823E+03  0.00000000000E+00 0.  1.
        -24    2    1    2    0    0  0.91296045795E+03 -0.80260119624E+03  0.16396190477E+04  0.20426599699E+04  0.80272369583E+02 0.  0.
    5000000    2    1    2    0    0 -0.91296045795E+03  0.80260119624E+03  0.83927361771E+03  0.15943870719E+04  0.60002037606E+03 0.  0.
        -24    2    4    4    0    0 -0.42672054081E+03  0.31520824811E+03  0.70931921891E+03  0.88932042596E+03  0.79438064477E+02 0.  0.
         24    2    4    4    0    0 -0.48623991714E+03  0.48739294813E+03  0.12995439880E+03  0.70506664595E+03  0.79054959077E+02 0.  0.
         13    1    5    5    0    0 -0.18836950191E+03  0.18852230341E+03  0.35280318946E+03  0.44214682926E+03  0.00000000000E+00 0. -1.
        -14    1    5    5    0    0 -0.23835103890E+03  0.12668594471E+03  0.35651602944E+03  0.44717359670E+03  0.00000000000E+00 0.  1.
         15    1    3    3    0    0  0.22481216105E+03 -0.15999819564E+03  0.40250424511E+03  0.48800897064E+03  0.17770000000E+01 0. -1.
        -16    1    3    3    0    0  0.68814829690E+03 -0.64260300060E+03  0.12371148026E+04  0.15546509993E+04  0.00000000000E+00 0.  1.
          4    1    6    6  502    0 -0.72495538620E+02  0.58255367748E+02  0.43681548092E+02  0.10274905661E+03  0.00000000000E+00 0. -1.
         -3    1    6    6    0  502 -0.41374437852E+03  0.42913758038E+03  0.86272850709E+02  0.60231758933E+03  0.00000000000E+00 0.  1.
<mgrwt>
<rscale>  0 0.12215064E+04</rscale>
<asrwt>0</asrwt>
<pdfrwt beam="1">  1        1 0.47045689E+00 0.12215064E+04</pdfrwt>
<pdfrwt beam="2">  1       -2 0.89088800E-01 0.12215064E+04</pdfrwt>
<totfact> 0.51059415E-01</totfact>
</mgrwt>
</event>
<event>
12    3  0.1176505E-007  0.3939148E+03  0.7818608E-02  0.1045907E+00
         -2   -1    0    0    0  501 -0.00000000000E+00  0.00000000000E+00  0.40452800176E+03  0.40452800176E+03  0.00000000000E+00 0.  1.
          1   -1    0    0  501    0  0.00000000000E+00 -0.00000000000E+00 -0.60567717245E+03  0.60567717245E+03  0.00000000000E+00 0. -1.
        -24    2    1    2    0    0  0.16107209736E+03 -0.10291686020E+03  0.17965205290E+03  0.27373228234E+03  0.78220212367E+02 0.  0.
    5000000    2    1    2    0    0 -0.16107209736E+03  0.10291686020E+03 -0.38080122359E+03  0.73647289186E+03  0.60070512558E+03 0.  0.
        -24    2    4    4    0    0 -0.29769401460E+03  0.23295670935E+03 -0.11912427848E+03  0.40442740805E+03  0.80500806802E+02 0.  0.
         24    2    4    4    0    0  0.13662191724E+03 -0.13003984916E+03 -0.26167694511E+03  0.33204548381E+03  0.78762104322E+02 0.  0.
         13    1    5    5    0    0 -0.81812165904E+02  0.22184655259E+02 -0.25108700645E+02  0.88407218410E+02  0.00000000000E+00 0. -1.
        -14    1    5    5    0    0 -0.21588184870E+03  0.21077205410E+03 -0.94015577837E+02  0.31602018964E+03  0.00000000000E+00 0.  1.
         15    1    3    3    0    0  0.23204213409E+02 -0.40116838915E+02  0.12276185712E+02  0.47975605772E+02  0.17770000000E+01 0. -1.
        -16    1    3    3    0    0  0.13786788395E+03 -0.62800021282E+02  0.16737586719E+03  0.22575667657E+03  0.00000000000E+00 0.  1.
          2    1    6    6  502    0  0.52398895841E+02 -0.10206257994E+03 -0.16303568529E+03  0.19935658802E+03  0.00000000000E+00 0. -1.
         -1    1    6    6    0  502  0.84223021402E+02 -0.27977269214E+02 -0.98641259824E+02  0.13268889579E+03  0.00000000000E+00 0.  1.
<mgrwt>
<rscale>  0 0.39391476E+03</rscale>
<asrwt>0</asrwt>
<pdfrwt beam="1">  1        1 0.93181103E-01 0.39391476E+03</pdfrwt>
<pdfrwt beam="2">  1       -2 0.62235077E-01 0.39391476E+03</pdfrwt>
<totfact> 0.74377548E+01</totfact>
</mgrwt>
</event>
<event>
12    3  0.1176505E-007  0.2129646E+04  0.7818608E-02  0.8548295E-01
          1   -1    0    0  501    0  0.00000000000E+00  0.00000000000E+00  0.44946818011E+04  0.44946818011E+04  0.00000000000E+00 0. -1.
         -2   -1    0    0    0  501 -0.00000000000E+00 -0.00000000000E+00 -0.11442791928E+04  0.11442791928E+04  0.00000000000E+00 0.  1.
        -24    2    1    2    0    0  0.59597178697E+03 -0.20227141785E+04  0.75344140238E+03  0.22402729077E+04  0.67777102086E+02 0.  0.
    5000000    2    1    2    0    0 -0.59597178697E+03  0.20227141785E+04  0.25969612060E+04  0.33986880862E+04  0.60026509374E+03 0.  0.
        -24    2    4    4    0    0 -0.63169319475E+03  0.15760199341E+04  0.22790064089E+04  0.28432082317E+04  0.84188550195E+02 0.  0.
         24    2    4    4    0    0  0.35721407778E+02  0.44669424444E+03  0.31795479709E+03  0.55547985448E+03  0.81552736012E+02 0.  0.
         13    1    5    5    0    0 -0.22182148065E+03  0.61708006144E+03  0.82427625150E+03  0.10532919397E+04  0.00000000000E+00 0. -1.
        -14    1    5    5    0    0 -0.40987171410E+03  0.95893987261E+03  0.14547301574E+04  0.17899162919E+04  0.00000000000E+00 0.  1.
         15    1    3    3    0    0  0.27214236195E+03 -0.10214151708E+04  0.39834646163E+03  0.11296165179E+04  0.17770000000E+01 0. -1.
        -16    1    3    3    0    0  0.32382942503E+03 -0.10012990077E+04  0.35509494076E+03  0.11106563898E+04  0.00000000000E+00 0.  1.
          4    1    6    6  502    0 -0.12629796174E+02  0.16371264812E+03  0.15271305107E+03  0.22423786226E+03  0.00000000000E+00 0. -1.
         -3    1    6    6    0  502  0.48351203952E+02  0.28298159632E+03  0.16524174602E+03  0.33124199222E+03  0.00000000000E+00 0.  1.
<mgrwt>
<rscale>  0 0.21296464E+04</rscale>
<asrwt>0</asrwt>
<pdfrwt beam="1">  1        1 0.69148950E+00 0.21296464E+04</pdfrwt>
<pdfrwt beam="2">  1       -2 0.17604295E+00 0.21296464E+04</pdfrwt>
<totfact> 0.49096374E-03</totfact>
</mgrwt>
</event>
<event>
12    3  0.1306146E-007  0.1374213E+04  0.7818608E-02  0.8972699E-01
          1   -1    0    0  501    0  0.00000000000E+00  0.00000000000E+00  0.16041482666E+04  0.16041482666E+04  0.00000000000E+00 0. -1.
         -2   -1    0    0    0  501 -0.00000000000E+00 -0.00000000000E+00 -0.12055178698E+04  0.12055178698E+04  0.00000000000E+00 0.  1.
        -24    2    1    2    0    0  0.68676146350E+03 -0.11303907539E+04  0.26277285594E+03  0.13509052723E+04  0.80442009248E+02 0.  0.
    5000000    2    1    2    0    0 -0.68676146350E+03  0.11303907539E+04  0.13585754090E+03  0.14587608640E+04  0.60008451300E+03 0.  0.
        -24    2    4    4    0    0 -0.66518170476E+03  0.11735557105E+04  0.88642718454E+02  0.13541685456E+04  0.78836616784E+02 0.  0.
         24    2    4    4    0    0 -0.21579758740E+02 -0.43164956674E+02  0.47214822450E+02  0.10459231844E+03  0.79883753960E+02 0.  0.
         13    1    5    5    0    0 -0.23594482410E+03  0.39610481599E+03 -0.57919933606E+01  0.46108842152E+03  0.00000000000E+00 0. -1.
        -14    1    5    5    0    0 -0.42923688066E+03  0.77745089455E+03  0.94434711815E+02  0.89308012404E+03  0.00000000000E+00 0.  1.
         15    1    3    3    0    0  0.19429100915E+03 -0.39126882957E+03  0.79421801623E+02  0.44401719959E+03  0.17770000000E+01 0. -1.
        -16    1    3    3    0    0  0.49247045435E+03 -0.73912192430E+03  0.18335105431E+03  0.90688807276E+03  0.00000000000E+00 0.  1.
          2    1    6    6  502    0 -0.41003795626E+02 -0.28228628017E+02 -0.17789582248E+01  0.49812964054E+02  0.00000000000E+00 0. -1.
         -1    1    6    6    0  502  0.19424036886E+02 -0.14936328658E+02  0.48993780675E+02  0.54779354391E+02  0.00000000000E+00 0.  1.
<mgrwt>
<rscale>  0 0.13742129E+04</rscale>
<asrwt>0</asrwt>
<pdfrwt beam="1">  1        1 0.24679204E+00 0.13742129E+04</pdfrwt>
<pdfrwt beam="2">  1       -2 0.18546429E+00 0.13742129E+04</pdfrwt>
<totfact> 0.77316294E-01</totfact>
</mgrwt>
</event>
<event>
12    3  0.1176505E-007  0.1129749E+04  0.7818608E-02  0.9176672E-01
          1   -1    0    0  501    0  0.00000000000E+00  0.00000000000E+00  0.14333716113E+04  0.14333716113E+04  0.00000000000E+00 0. -1.
         -2   -1    0    0    0  501 -0.00000000000E+00 -0.00000000000E+00 -0.12711794387E+04  0.12711794387E+04  0.00000000000E+00 0.  1.
        -24    2    1    2    0    0  0.11348886318E+03 -0.10562169816E+04 -0.64157020305E+03  0.12436919769E+04  0.81751903692E+02 0.  0.
    5000000    2    1    2    0    0 -0.11348886318E+03  0.10562169816E+04  0.80376237567E+03  0.14608590731E+04  0.59966760833E+03 0.  0.
        -24    2    4    4    0    0 -0.33200305100E+03  0.65232134213E+03  0.59430588071E+03  0.94661012296E+03  0.84392450965E+02 0.  0.
         24    2    4    4    0    0  0.21851418781E+03  0.40389563948E+03  0.20945649497E+03  0.51424895010E+03  0.98487671959E+02 0.  0.
         11    1    5    5    0    0 -0.96689965430E+02  0.17592819906E+03  0.11692650238E+03  0.23231764375E+03  0.00000000000E+00 0. -1.
        -12    1    5    5    0    0 -0.23531308557E+03  0.47639314307E+03  0.47737937833E+03  0.71429247921E+03  0.00000000000E+00 0.  1.
         15    1    3    3    0    0  0.31106344293E+02 -0.65925345779E+03 -0.39317411172E+03  0.76822637687E+03  0.17770000000E+01 0. -1.
        -16    1    3    3    0    0  0.82382518891E+02 -0.39696352382E+03 -0.24839609133E+03  0.47546560007E+03  0.00000000000E+00 0.  1.
          4    1    6    6  502    0  0.13723507663E+03  0.20053983907E+03  0.63803246648E+02  0.25123802976E+03  0.00000000000E+00 0. -1.
         -3    1    6    6    0  502  0.81279111184E+02  0.20335580040E+03  0.14565324832E+03  0.26301092034E+03  0.00000000000E+00 0.  1.
<mgrwt>
<rscale>  0 0.11297492E+04</rscale>
<asrwt>0</asrwt>
<pdfrwt beam="1">  1        1 0.22051871E+00 0.11297492E+04</pdfrwt>
<pdfrwt beam="2">  1       -2 0.19556607E+00 0.11297492E+04</pdfrwt>
<totfact> 0.89203301E-01</totfact>
</mgrwt>
</event>
<event>
12    3  0.1181290E-007  0.9788520E+03  0.7818608E-02  0.9332049E-01
         -4   -1    0    0    0  501 -0.00000000000E+00  0.00000000000E+00  0.79708287291E+03  0.79708287291E+03  0.00000000000E+00 0.  1.
          3   -1    0    0  501    0  0.00000000000E+00 -0.00000000000E+00 -0.13868742609E+04  0.13868742609E+04  0.00000000000E+00 0. -1.
        -24    2    1    2    0    0 -0.88111342170E+03 -0.36035972036E+03 -0.43086403995E+03  0.10473121266E+04  0.70702755909E+02 0.  0.
    5000000    2    1    2    0    0  0.88111342170E+03  0.36035972036E+03 -0.15892734803E+03  0.11366450072E+04  0.60040318154E+03 0.  0.
        -24    2    4    4    0    0  0.25636130617E+03 -0.30277476912E+02  0.17659119110E+03  0.32305816887E+03  0.80896766248E+02 0.  0.
         24    2    4    4    0    0  0.62475211553E+03  0.39063719727E+03 -0.33551853913E+03  0.81358683830E+03  0.80238566791E+02 0.  0.
         11    1    5    5    0    0  0.24951588872E+03 -0.15974866225E+02  0.14850254953E+03  0.29080299567E+03  0.00000000000E+00 0. -1.
        -12    1    5    5    0    0  0.68454174457E+01 -0.14302610687E+02  0.28088641572E+02  0.32255173195E+02  0.00000000000E+00 0.  1.
         15    1    3    3    0    0 -0.33615321327E+03 -0.11059781021E+03 -0.18570719423E+03  0.39965132070E+03  0.17770000000E+01 0. -1.
        -16    1    3    3    0    0 -0.54496020843E+03 -0.24976191015E+03 -0.24515684572E+03  0.64766080593E+03  0.00000000000E+00 0.  1.
          4    1    6    6  502    0  0.42837947244E+03  0.29434326265E+03 -0.20386663923E+03  0.55830863800E+03  0.00000000000E+00 0. -1.
         -3    1    6    6    0  502  0.19637264309E+03  0.96293934615E+02 -0.13165189990E+03  0.25527820030E+03  0.00000000000E+00 0.  1.
<mgrwt>
<rscale>  0 0.97885204E+03</rscale>
<asrwt>0</asrwt>
<pdfrwt beam="1">  1        3 0.21336527E+00 0.97885204E+03</pdfrwt>
<pdfrwt beam="2">  1       -4 0.12262814E+00 0.97885204E+03</pdfrwt>
<totfact> 0.13529771E-01</totfact>
</mgrwt>
</event>
<event>
12    3  0.1291386E-007  0.1728152E+04  0.7818608E-02  0.8745469E-01
         -4   -1    0    0    0  501 -0.00000000000E+00  0.00000000000E+00  0.26396032819E+04  0.26396032819E+04  0.00000000000E+00 0.  1.
          1   -1    0    0  501    0  0.00000000000E+00 -0.00000000000E+00 -0.13772052653E+04  0.13772052653E+04  0.00000000000E+00 0. -1.
        -24    2    1    2    0    0 -0.59188397021E+03 -0.16120448284E+04 -0.13279122417E+03  0.17242969848E+04  0.80940839773E+02 0.  0.
    5000000    2    1    2    0    0  0.59188397021E+03  0.16120448284E+04  0.13951892408E+04  0.22925115623E+04  0.60003423465E+03 0.  0.
        -24    2    4    4    0    0  0.31837768478E+03  0.54422691845E+03  0.20594519434E+03  0.66883374450E+03  0.85894503767E+02 0.  0.
         24    2    4    4    0    0  0.27350628543E+03  0.10678179100E+04  0.11892440464E+04  0.16236778178E+04  0.83591130330E+02 0.  0.
         11    1    5    5    0    0  0.14073978270E+03  0.17549335840E+03  0.99154029537E+02  0.24583963645E+03  0.00000000000E+00 0. -1.
        -12    1    5    5    0    0  0.17763790208E+03  0.36873356006E+03  0.10679116480E+03  0.42299410805E+03  0.00000000000E+00 0.  1.
         15    1    3    3    0    0 -0.28712910942E+03 -0.71319240294E+03 -0.92020442737E+02  0.77431095091E+03  0.17770000000E+01 0. -1.
        -16    1    3    3    0    0 -0.30475486079E+03 -0.89885242550E+03 -0.40770781437E+02  0.94998603390E+03  0.00000000000E+00 0.  1.
          2    1    6    6  502    0  0.16179991986E+03  0.50364873432E+03  0.60964617745E+03  0.80716152245E+03  0.00000000000E+00 0. -1.
         -1    1    6    6    0  502  0.11170636556E+03  0.56416917566E+03  0.57959786897E+03  0.81651629536E+03  0.00000000000E+00 0.  1.
<mgrwt>
<rscale>  0 0.17281525E+04</rscale>
<asrwt>0</asrwt>
<pdfrwt beam="1">  1        1 0.21187773E+00 0.17281525E+04</pdfrwt>
<pdfrwt beam="2">  1       -4 0.40609281E+00 0.17281525E+04</pdfrwt>
<totfact> 0.21532723E-02</totfact>
</mgrwt>
</event>
<event>
12    3  0.1176505E-007  0.5607220E+03  0.7818608E-02  0.9990422E-01
          1   -1    0    0  501    0  0.00000000000E+00  0.00000000000E+00  0.27783356906E+04  0.27783356906E+04  0.00000000000E+00 0. -1.
         -2   -1    0    0    0  501 -0.00000000000E+00 -0.00000000000E+00 -0.40827993981E+03  0.40827993981E+03  0.00000000000E+00 0.  1.
        -24    2    1    2    0    0 -0.13268780966E+02 -0.44748537758E+03  0.23947807899E+04  0.24376343411E+04  0.81651245045E+02 0.  0.
    5000000    2    1    2    0    0  0.13268780966E+02  0.44748537758E+03 -0.24725039046E+02  0.74898128933E+03  0.59995201517E+03 0.  0.
        -24    2    4    4    0    0 -0.20857250261E+03  0.60627016137E+02 -0.15916167336E+03  0.27654574765E+03  0.62984032479E+02 0.  0.
         24    2    4    4    0    0  0.22184128358E+03  0.38685836144E+03  0.13443663431E+03  0.47243554167E+03  0.79051789821E+02 0.  0.
         13    1    5    5    0    0 -0.13136745123E+03  0.63700687477E+02 -0.12444798941E+03  0.19183974275E+03  0.00000000000E+00 0. -1.
        -14    1    5    5    0    0 -0.77205051380E+02 -0.30736713400E+01 -0.34713683944E+02  0.84706004906E+02  0.00000000000E+00 0.  1.
         15    1    3    3    0    0  0.60585277564E+01 -0.19907636317E+03  0.12754081680E+04  0.12908668626E+04  0.17770000000E+01 0. -1.
        -16    1    3    3    0    0 -0.19327308722E+02 -0.24840901441E+03  0.11193726219E+04  0.11467674786E+04  0.00000000000E+00 0.  1.
          4    1    6    6  502    0  0.42570208623E+02  0.35642633261E+02  0.35465463123E+02  0.65881856702E+02  0.00000000000E+00 0. -1.
         -3    1    6    6    0  502  0.17927107496E+03  0.35121572818E+03  0.98971171189E+02  0.40655368497E+03  0.00000000000E+00 0.  1.
<mgrwt>
<rscale>  0 0.56072198E+03</rscale>
<asrwt>0</asrwt>
<pdfrwt beam="1">  1        1 0.42743625E+00 0.56072198E+03</pdfrwt>
<pdfrwt beam="2">  1       -2 0.62812300E-01 0.56072198E+03</pdfrwt>
<totfact> 0.19791082E+00</totfact>
</mgrwt>
</event>
<event>
12    3  0.1176505E-007  0.8502329E+03  0.7818608E-02  0.9490024E-01
         -2   -1    0    0    0  501 -0.00000000000E+00  0.00000000000E+00  0.14187939880E+04  0.14187939880E+04  0.00000000000E+00 0.  1.
          1   -1    0    0  501    0  0.00000000000E+00 -0.00000000000E+00 -0.11732229549E+04  0.11732229549E+04  0.00000000000E+00 0. -1.
        -24    2    1    2    0    0  0.62809404828E+03 -0.55065602614E+03  0.10085605939E+04  0.13115238692E+04  0.71945779693E+02 0.  0.
    5000000    2    1    2    0    0 -0.62809404828E+03  0.55065602614E+03 -0.76298956086E+03  0.12804930736E+04  0.59982101414E+03 0.  0.
        -24    2    4    4    0    0 -0.30575177467E+03  0.14440862151E+03  0.85253133578E+01  0.34740604505E+03  0.79248227048E+02 0.  0.
         24    2    4    4    0    0 -0.32234227361E+03  0.40624740463E+03 -0.77151487422E+03  0.93308702857E+03  0.80465561727E+02 0.  0.
         13    1    5    5    0    0 -0.77143309980E+02  0.22846331682E+02  0.33777872458E+02  0.87258179065E+02  0.00000000000E+00 0. -1.
        -14    1    5    5    0    0 -0.22860846469E+03  0.12156228983E+03 -0.25252559100E+02  0.26014786599E+03  0.00000000000E+00 0.  1.
         15    1    3    3    0    0  0.13583261253E+03 -0.14673588159E+03  0.27728934133E+03  0.34186905990E+03  0.17770000000E+01 0. -1.
        -16    1    3    3    0    0  0.49226143575E+03 -0.40392014455E+03  0.73127125261E+03  0.96965480930E+03  0.00000000000E+00 0.  1.
          2    1    6    6  502    0 -0.21374800227E+03  0.32391704273E+03 -0.55393827221E+03  0.67635646553E+03  0.00000000000E+00 0. -1.
         -1    1    6    6    0  502 -0.10859427134E+03  0.82330361906E+02 -0.21757660201E+03  0.25673056305E+03  0.00000000000E+00 0.  1.
<mgrwt>
<rscale>  0 0.85023291E+03</rscale>
<asrwt>0</asrwt>
<pdfrwt beam="1">  1        1 0.18049584E+00 0.85023291E+03</pdfrwt>
<pdfrwt beam="2">  1       -2 0.21827600E+00 0.85023291E+03</pdfrwt>
<totfact> 0.10141719E+00</totfact>
</mgrwt>
</event>
<event>
12    3  0.1176505E-007  0.1250395E+04  0.7818608E-02  0.9069855E-01
         -2   -1    0    0    0  501 -0.00000000000E+00  0.00000000000E+00  0.16479819757E+04  0.16479819757E+04  0.00000000000E+00 0.  1.
          1   -1    0    0  501    0  0.00000000000E+00 -0.00000000000E+00 -0.16363633908E+04  0.16363633908E+04  0.00000000000E+00 0. -1.
        -24    2    1    2    0    0 -0.44251520932E+03  0.10998415612E+04 -0.10483870883E+04  0.15846045277E+04  0.79905270337E+02 0.  0.
    5000000    2    1    2    0    0  0.44251520932E+03 -0.10998415612E+04  0.10600056732E+04  0.16997408387E+04  0.60002976695E+03 0.  0.
        -24    2    4    4    0    0 -0.12333432883E+03 -0.32548489265E+03  0.37732357732E+03  0.51983450856E+03  0.81872231427E+02 0.  0.
         24    2    4    4    0    0  0.56584953815E+03 -0.77435666856E+03  0.68268209589E+03  0.11799063301E+04  0.79436476885E+02 0.  0.
         11    1    5    5    0    0 -0.70735851545E+02 -0.11431876838E+03  0.10121735860E+03  0.16827743514E+03  0.00000000000E+00 0. -1.
        -12    1    5    5    0    0 -0.52598477282E+02 -0.21116612427E+03  0.27610621872E+03  0.35155707342E+03  0.00000000000E+00 0.  1.
         15    1    3    3    0    0 -0.32362376408E+03  0.70642450113E+03 -0.69944817231E+03  0.10454658387E+04  0.17770000000E+01 0. -1.
        -16    1    3    3    0    0 -0.11889144524E+03  0.39341706008E+03 -0.34893891598E+03  0.53913868902E+03  0.00000000000E+00 0.  1.
          4    1    6    6  502    0  0.39549399529E+03 -0.58340229117E+03  0.46992265985E+03  0.84711335717E+03  0.00000000000E+00 0. -1.
         -3    1    6    6    0  502  0.17035554286E+03 -0.19095437739E+03  0.21275943604E+03  0.33279297296E+03  0.00000000000E+00 0.  1.
<mgrwt>
<rscale>  0 0.12503947E+04</rscale>
<asrwt>0</asrwt>
<pdfrwt beam="1">  1        1 0.25174821E+00 0.12503947E+04</pdfrwt>
<pdfrwt beam="2">  1       -2 0.25353569E+00 0.12503947E+04</pdfrwt>
<totfact> 0.27379235E-01</totfact>
</mgrwt>
</event>
<event>
12    3  0.1176505E-007  0.4420260E+03  0.7818608E-02  0.1030127E+00
          1   -1    0    0  501    0  0.00000000000E+00  0.00000000000E+00  0.21833821766E+04  0.21833821766E+04  0.00000000000E+00 0. -1.
         -2   -1    0    0    0  501 -0.00000000000E+00 -0.00000000000E+00 -0.14488215470E+03  0.14488215470E+03  0.00000000000E+00 0.  1.
        -24    2    1    2    0    0 -0.18890450032E+03 -0.33819051855E+03  0.55088082781E+03  0.67815520222E+03  0.79793826648E+02 0.  0.
    5000000    2    1    2    0    0  0.18890450032E+03  0.33819051855E+03  0.14876191941E+04  0.16501091291E+04  0.59982625333E+03 0.  0.
        -24    2    4    4    0    0  0.48562518864E+02 -0.24994068866E+02 -0.13093652308E+02  0.97728043041E+02  0.79976902597E+02 0.  0.
         24    2    4    4    0    0  0.14034198146E+03  0.36318458741E+03  0.15007128464E+04  0.15523810860E+04  0.78416023014E+02 0.  0.
         13    1    5    5    0    0  0.45852042594E+02  0.21081381665E+02 -0.10167936787E+02  0.51480301101E+02  0.00000000000E+00 0. -1.
        -14    1    5    5    0    0  0.27104762707E+01 -0.46075450532E+02 -0.29257155204E+01  0.46247741941E+02  0.00000000000E+00 0.  1.
         15    1    3    3    0    0 -0.13480538891E+03 -0.16485986722E+03  0.32081880402E+03  0.38507029416E+03  0.17770000000E+01 0. -1.
        -16    1    3    3    0    0 -0.54099111417E+02 -0.17333065133E+03  0.23006202379E+03  0.29308490806E+03  0.00000000000E+00 0.  1.
          2    1    6    6  502    0  0.12926265381E+03  0.27334710451E+03  0.10500672914E+04  0.10927345468E+04  0.00000000000E+00 0. -1.
         -1    1    6    6    0  502  0.11079327643E+02  0.89837482907E+02  0.45064555498E+03  0.45964653927E+03  0.00000000000E+00 0.  1.
<mgrwt>
<rscale>  0 0.44202599E+03</rscale>
<asrwt>0</asrwt>
<pdfrwt beam="1">  1        1 0.33590493E+00 0.44202599E+03</pdfrwt>
<pdfrwt beam="2">  1       -2 0.22289564E-01 0.44202599E+03</pdfrwt>
<totfact> 0.37733189E+01</totfact>
</mgrwt>
</event>
<event>
12    3  0.1176505E-007  0.6089500E+03  0.7818608E-02  0.9887010E-01
         -2   -1    0    0    0  501 -0.00000000000E+00  0.00000000000E+00  0.93761217096E+03  0.93761217096E+03  0.00000000000E+00 0.  1.
          1   -1    0    0  501    0  0.00000000000E+00 -0.00000000000E+00 -0.65489374412E+03  0.65489374412E+03  0.00000000000E+00 0. -1.
        -24    2    1    2    0    0 -0.53652565694E+03 -0.22399168726E+03 -0.20468634591E+03  0.62523568080E+03  0.10483844632E+03 0.  0.
    5000000    2    1    2    0    0  0.53652565694E+03  0.22399168726E+03  0.48740477275E+03  0.96727023427E+03  0.60001353076E+03 0.  0.
        -24    2    4    4    0    0  0.37530123922E+02 -0.47526531798E+01  0.39417698479E+03  0.40481147265E+03  0.84057927238E+02 0.  0.
         24    2    4    4    0    0  0.49899553302E+03  0.22874434044E+03  0.93227787959E+02  0.56245876163E+03  0.79673852834E+02 0.  0.
         13    1    5    5    0    0  0.37016261301E+02 -0.36268710186E+02  0.15199148577E+03  0.16058341971E+03  0.00000000000E+00 0. -1.
        -14    1    5    5    0    0  0.51386262173E+00  0.31516057006E+02  0.24218549902E+03  0.24422805293E+03  0.00000000000E+00 0.  1.
         15    1    3    3    0    0 -0.21666946975E+03 -0.62686151245E+02 -0.32905930100E+02  0.22794993012E+03  0.17770000000E+01 0. -1.
        -16    1    3    3    0    0 -0.31985618720E+03 -0.16130553601E+03 -0.17178041581E+03  0.39728575068E+03  0.00000000000E+00 0.  1.
          2    1    6    6  502    0  0.28895146425E+03  0.10789987969E+03  0.19024655744E+02  0.30902632615E+03  0.00000000000E+00 0. -1.
         -1    1    6    6    0  502  0.21004406877E+03  0.12084446075E+03  0.74203132214E+02  0.25343243547E+03  0.00000000000E+00 0.  1.
<mgrwt>
<rscale>  0 0.60894999E+03</rscale>
<asrwt>0</asrwt>
<pdfrwt beam="1">  1        1 0.10075288E+00 0.60894999E+03</pdfrwt>
<pdfrwt beam="2">  1       -2 0.14424803E+00 0.60894999E+03</pdfrwt>
<totfact> 0.90997983E+00</totfact>
</mgrwt>
</event>
<event>
12    3  0.1176505E-007  0.1533040E+04  0.7818608E-02  0.8862774E-01
         -2   -1    0    0    0  501 -0.00000000000E+00  0.00000000000E+00  0.18555958054E+04  0.18555958054E+04  0.00000000000E+00 0.  1.
          1   -1    0    0  501    0  0.00000000000E+00 -0.00000000000E+00 -0.13808365833E+04  0.13808365833E+04  0.00000000000E+00 0. -1.
        -24    2    1    2    0    0 -0.14559574986E+04 -0.47157752742E+03  0.26930620511E+02  0.15327910703E+04  0.80781216229E+02 0.  0.
    5000000    2    1    2    0    0  0.14559574986E+04  0.47157752742E+03  0.44782860163E+03  0.17036413183E+04  0.59970466315E+03 0.  0.
        -24    2    4    4    0    0  0.91246163542E+03  0.27741483569E+03  0.56218595982E+03  0.11098788084E+04  0.78947379189E+02 0.  0.
         24    2    4    4    0    0  0.54349586317E+03  0.19416269174E+03 -0.11435735818E+03  0.59376250996E+03  0.79933777086E+02 0.  0.
         11    1    5    5    0    0  0.59859115570E+02 -0.49758251077E+00  0.42620407226E+02  0.73483742537E+02  0.00000000000E+00 0. -1.
        -12    1    5    5    0    0  0.85260251985E+03  0.27791241820E+03  0.51956555259E+03  0.10363950658E+04  0.00000000000E+00 0.  1.
         15    1    3    3    0    0 -0.41505562835E+03 -0.99243089566E+02  0.21199202118E+02  0.42728553609E+03  0.17770000000E+01 0. -1.
        -16    1    3    3    0    0 -0.10409018702E+04 -0.37233443786E+03  0.57314183932E+01  0.11055055343E+04  0.00000000000E+00 0.  1.
          2    1    6    6  502    0  0.13416158427E+03  0.52284732907E+02 -0.64165835020E+02  0.15763971065E+03  0.00000000000E+00 0. -1.
         -1    1    6    6    0  502  0.40933427890E+03  0.14187795883E+03 -0.50191523161E+02  0.43612279931E+03  0.00000000000E+00 0.  1.
<mgrwt>
<rscale>  0 0.15330395E+04</rscale>
<asrwt>0</asrwt>
<pdfrwt beam="1">  1        1 0.21243640E+00 0.15330395E+04</pdfrwt>
<pdfrwt beam="2">  1       -2 0.28547628E+00 0.15330395E+04</pdfrwt>
<totfact> 0.25478294E-01</totfact>
</mgrwt>
</event>
<event>
12    3  0.1176505E-007  0.1673314E+04  0.7818608E-02  0.8776733E-01
          1   -1    0    0  501    0  0.00000000000E+00  0.00000000000E+00  0.25918850439E+04  0.25918850439E+04  0.00000000000E+00 0. -1.
         -2   -1    0    0    0  501 -0.00000000000E+00 -0.00000000000E+00 -0.11557744957E+04  0.11557744957E+04  0.00000000000E+00 0.  1.
        -24    2    1    2    0    0  0.53489480940E+02  0.16676241917E+04  0.50657740223E+03  0.17455556287E+04  0.80698322046E+02 0.  0.
    5000000    2    1    2    0    0 -0.53489480940E+02 -0.16676241917E+04  0.92953314599E+03  0.20021039109E+04  0.60046368026E+03 0.  0.
        -24    2    4    4    0    0  0.47347146229E+02 -0.10537612091E+04  0.26968974166E+03  0.10917873832E+04  0.81318481317E+02 0.  0.
         24    2    4    4    0    0 -0.10083662717E+03 -0.61386298265E+03  0.65984340433E+03  0.91031652772E+03  0.79291081192E+02 0.  0.
         13    1    5    5    0    0  0.36822544769E+01 -0.20053268113E+03  0.19228532662E+02  0.20148610788E+03  0.00000000000E+00 0. -1.
        -14    1    5    5    0    0  0.43664891752E+02 -0.85322852792E+03  0.25046120900E+03  0.89030127532E+03  0.00000000000E+00 0.  1.
         15    1    3    3    0    0  0.98339649201E+01  0.10748567490E+04  0.29500657484E+03  0.11146505169E+04  0.17770000000E+01 0. -1.
        -16    1    3    3    0    0  0.43655516020E+02  0.59276744268E+03  0.21157082740E+03  0.63090511187E+03  0.00000000000E+00 0.  1.
          2    1    6    6  502    0 -0.58825169044E+02 -0.41821414524E+03  0.39403885102E+03  0.57760720902E+03  0.00000000000E+00 0. -1.
         -1    1    6    6    0  502 -0.42011458125E+02 -0.19564883741E+03  0.26580455330E+03  0.33270931870E+03  0.00000000000E+00 0.  1.
<mgrwt>
<rscale>  0 0.16733136E+04</rscale>
<asrwt>0</asrwt>
<pdfrwt beam="1">  1        1 0.39875154E+00 0.16733136E+04</pdfrwt>
<pdfrwt beam="2">  1       -2 0.17781146E+00 0.16733136E+04</pdfrwt>
<totfact> 0.17837114E-01</totfact>
</mgrwt>
</event>
<event>
12    3  0.1176505E-007  0.4192923E+03  0.7818608E-02  0.1037297E+00
         -2   -1    0    0    0  501 -0.00000000000E+00  0.00000000000E+00  0.25926801476E+03  0.25926801476E+03  0.00000000000E+00 0.  1.
          1   -1    0    0  501    0  0.00000000000E+00 -0.00000000000E+00 -0.32295927715E+04  0.32295927715E+04  0.00000000000E+00 0. -1.
        -24    2    1    2    0    0 -0.22524989692E+03 -0.27795101602E+03  0.66742528346E+02  0.37254972840E+03  0.79652066327E+02 0.  0.
    5000000    2    1    2    0    0  0.22524989692E+03  0.27795101602E+03 -0.30370672851E+04  0.31163110579E+04  0.59968544402E+03 0.  0.
        -24    2    4    4    0    0  0.30134314214E+03  0.19057867733E+03 -0.28867269318E+04  0.29097068209E+04  0.77932554080E+02 0.  0.
         24    2    4    4    0    0 -0.76093245224E+02  0.87372338690E+02 -0.15034035326E+03  0.20660423697E+03  0.81602581933E+02 0.  0.
         11    1    5    5    0    0  0.67945162134E+02  0.76561401856E+01 -0.52168247473E+03  0.52614424447E+03  0.00000000000E+00 0. -1.
        -12    1    5    5    0    0  0.23339798001E+03  0.18292253715E+03 -0.23650444571E+04  0.23835625764E+04  0.00000000000E+00 0.  1.
         15    1    3    3    0    0 -0.11975859546E+03 -0.14402852341E+03 -0.54795101252E+01  0.18740202641E+03  0.17770000000E+01 0. -1.
        -16    1    3    3    0    0 -0.10549130146E+03 -0.13392249261E+03  0.72222038471E+02  0.18514770199E+03  0.00000000000E+00 0.  1.
          2    1    6    6  502    0 -0.16283842555E+02  0.17985774124E+02  0.63691283355E+01  0.25084206086E+02  0.00000000000E+00 0. -1.
         -1    1    6    6    0  502 -0.59809402669E+02  0.69386564566E+02 -0.15670948159E+03  0.18152003088E+03  0.00000000000E+00 0.  1.
<mgrwt>
<rscale>  0 0.41929233E+03</rscale>
<asrwt>0</asrwt>
<pdfrwt beam="1">  1        1 0.49686045E+00 0.41929233E+03</pdfrwt>
<pdfrwt beam="2">  1       -2 0.39887385E-01 0.41929233E+03</pdfrwt>
<totfact> 0.24761744E+00</totfact>
</mgrwt>
</event>
<event>
12    3  0.1176505E-007  0.3330348E+03  0.7818608E-02  0.1069802E+00
         -2   -1    0    0    0  501 -0.00000000000E+00  0.00000000000E+00  0.12772363165E+04  0.12772363165E+04  0.00000000000E+00 0.  1.
          1   -1    0    0  501    0  0.00000000000E+00 -0.00000000000E+00 -0.19526892609E+03  0.19526892609E+03  0.00000000000E+00 0. -1.
        -24    2    1    2    0    0 -0.10454671319E+03  0.20029841400E+03  0.66905085117E+03  0.70997114328E+03  0.73351979785E+02 0.  0.
    5000000    2    1    2    0    0  0.10454671319E+03 -0.20029841400E+03  0.41291653924E+03  0.76253409932E+03  0.59992392381E+03 0.  0.
        -24    2    4    4    0    0  0.18365054679E+03 -0.24122326763E+03  0.51627529270E+03  0.60402980875E+03  0.79972769264E+02 0.  0.
         24    2    4    4    0    0 -0.79103833601E+02  0.40924853625E+02 -0.10335875346E+03  0.15850429057E+03  0.80674147525E+02 0.  0.
         13    1    5    5    0    0  0.92749050645E+02 -0.67324013140E+02  0.15323393761E+03  0.19135189776E+03  0.00000000000E+00 0. -1.
        -14    1    5    5    0    0  0.90901496141E+02 -0.17389925449E+03  0.36304135509E+03  0.41267791099E+03  0.00000000000E+00 0.  1.
         15    1    3    3    0    0 -0.58230201418E+02  0.42810989876E+02  0.23718790014E+03  0.24796127704E+03  0.17770000000E+01 0. -1.
        -16    1    3    3    0    0 -0.46316511767E+02  0.15748742413E+03  0.43186295103E+03  0.46200986623E+03  0.00000000000E+00 0.  1.
          2    1    6    6  502    0 -0.42703413130E+02  0.63077608654E+02 -0.77463793679E+02  0.10864163814E+03  0.00000000000E+00 0. -1.
         -1    1    6    6    0  502 -0.36400420471E+02 -0.22152755028E+02 -0.25894959781E+02  0.49862652435E+02  0.00000000000E+00 0.  1.
<mgrwt>
<rscale>  0 0.33303482E+03</rscale>
<asrwt>0</asrwt>
<pdfrwt beam="1">  1        1 0.30041374E-01 0.33303482E+03</pdfrwt>
<pdfrwt beam="2">  1       -2 0.19649789E+00 0.33303482E+03</pdfrwt>
<totfact> 0.20071519E+01</totfact>
</mgrwt>
</event>
<event>
12    3  0.1176505E-007  0.6569232E+03  0.7818608E-02  0.9793874E-01
         -2   -1    0    0    0  501 -0.00000000000E+00  0.00000000000E+00  0.28382526117E+03  0.28382526117E+03  0.00000000000E+00 0.  1.
          1   -1    0    0  501    0  0.00000000000E+00 -0.00000000000E+00 -0.20195685461E+04  0.20195685461E+04  0.00000000000E+00 0. -1.
        -24    2    1    2    0    0 -0.22655671259E+03  0.59040248274E+03 -0.64841258090E+03  0.90964448592E+03  0.84327812933E+02 0.  0.
    5000000    2    1    2    0    0  0.22655671259E+03 -0.59040248274E+03 -0.10873307040E+04  0.13937493213E+04  0.60028832672E+03 0.  0.
        -24    2    4    4    0    0 -0.36372304618E+02 -0.96887263444E+02  0.35955159677E+02  0.13642402026E+03  0.81293624807E+02 0.  0.
         24    2    4    4    0    0  0.26292901721E+03 -0.49351521930E+03 -0.11232858637E+04  0.12573253011E+04  0.80042747427E+02 0.  0.
         13    1    5    5    0    0 -0.47521873659E+01 -0.79254264327E+02  0.53952410388E+02  0.95993147076E+02  0.00000000000E+00 0. -1.
        -14    1    5    5    0    0 -0.31620117252E+02 -0.17632999117E+02 -0.17997250711E+02  0.40430873180E+02  0.00000000000E+00 0.  1.
         15    1    3    3    0    0 -0.79387900911E+02  0.31675845378E+03 -0.35366969580E+03  0.48137695033E+03  0.17770000000E+01 0. -1.
        -16    1    3    3    0    0 -0.14716881168E+03  0.27364402896E+03 -0.29474288511E+03  0.42826753559E+03  0.00000000000E+00 0.  1.
          2    1    6    6  502    0  0.24091332769E+03 -0.41948734373E+03 -0.91176253734E+03  0.10321432980E+04  0.00000000000E+00 0. -1.
         -1    1    6    6    0  502  0.22015689516E+02 -0.74027875568E+02 -0.21152332632E+03  0.22518200311E+03  0.00000000000E+00 0.  1.
<mgrwt>
<rscale>  0 0.65692317E+03</rscale>
<asrwt>0</asrwt>
<pdfrwt beam="1">  1        1 0.31070286E+00 0.65692317E+03</pdfrwt>
<pdfrwt beam="2">  1       -2 0.43665424E-01 0.65692317E+03</pdfrwt>
<totfact> 0.13320973E+01</totfact>
</mgrwt>
</event>
<event>
12    3  0.1435215E-007  0.1164656E+04  0.7818608E-02  0.9144368E-01
          1   -1    0    0  501    0  0.00000000000E+00  0.00000000000E+00  0.13630471759E+04  0.13630471759E+04  0.00000000000E+00 0. -1.
         -4   -1    0    0    0  501 -0.00000000000E+00 -0.00000000000E+00 -0.12127655700E+04  0.12127655700E+04  0.00000000000E+00 0.  1.
        -24    2    1    2    0    0  0.21483373607E+03 -0.10827459654E+04  0.57794265230E+03  0.12486575545E+04  0.81459311581E+02 0.  0.
    5000000    2    1    2    0    0 -0.21483373607E+03  0.10827459654E+04 -0.42766104643E+03  0.13271551914E+04  0.59996214196E+03 0.  0.
        -24    2    4    4    0    0 -0.17221324878E+03  0.33695904490E+02 -0.29105140354E+01  0.19282429737E+03  0.79874410974E+02 0.  0.
         24    2    4    4    0    0 -0.42620487285E+02  0.10490500609E+04 -0.42475053240E+03  0.11343308940E+04  0.63016079265E+02 0.  0.
         11    1    5    5    0    0 -0.14458117043E+03  0.27812356575E+02 -0.33697862830E+02  0.15103902800E+03  0.00000000000E+00 0. -1.
        -12    1    5    5    0    0 -0.27632078355E+02  0.58835479150E+01  0.30787348795E+02  0.41785269367E+02  0.00000000000E+00 0.  1.
         15    1    3    3    0    0  0.96647942243E+02 -0.48852403219E+03  0.21518298983E+03  0.54249740240E+03  0.17770000000E+01 0. -1.
        -16    1    3    3    0    0  0.11818579383E+03 -0.59422193318E+03  0.36275966248E+03  0.70616015213E+03  0.00000000000E+00 0.  1.
          2    1    6    6  502    0 -0.18805860711E+02  0.33820827477E+03 -0.16859626229E+03  0.37836912821E+03  0.00000000000E+00 0. -1.
         -1    1    6    6    0  502 -0.23814626574E+02  0.71084178611E+03 -0.25615427010E+03  0.75596176584E+03  0.00000000000E+00 0.  1.
<mgrwt>
<rscale>  0 0.11646557E+04</rscale>
<asrwt>0</asrwt>
<pdfrwt beam="1">  1        1 0.20969956E+00 0.11646557E+04</pdfrwt>
<pdfrwt beam="2">  1       -4 0.18657932E+00 0.11646557E+04</pdfrwt>
<totfact> 0.61626240E-01</totfact>
</mgrwt>
</event>
<event>
12    3  0.1176505E-007  0.2060406E+04  0.7818608E-02  0.8578888E-01
          1   -1    0    0  501    0  0.00000000000E+00  0.00000000000E+00  0.17049962593E+04  0.17049962593E+04  0.00000000000E+00 0. -1.
         -2   -1    0    0    0  501 -0.00000000000E+00 -0.00000000000E+00 -0.29475113513E+04  0.29475113513E+04  0.00000000000E+00 0.  1.
        -24    2    1    2    0    0  0.85261731477E+03  0.18395802192E+04 -0.14986452106E+04  0.25225560527E+04  0.79623512294E+02 0.  0.
    5000000    2    1    2    0    0 -0.85261731477E+03 -0.18395802192E+04  0.25613011853E+03  0.21299515579E+04  0.60006610719E+03 0.  0.
        -24    2    4    4    0    0 -0.40857752281E+03 -0.14125266146E+04  0.31507697630E+03  0.15058977124E+04  0.79293066463E+02 0.  0.
         24    2    4    4    0    0 -0.44403979196E+03 -0.42705360461E+03 -0.58946857763E+02  0.62405384541E+03  0.80139577435E+02 0.  0.
         13    1    5    5    0    0 -0.10401967637E+03 -0.37005427918E+03  0.11810395207E+03  0.40213033472E+03  0.00000000000E+00 0. -1.
        -14    1    5    5    0    0 -0.30455784644E+03 -0.10424723354E+04  0.19697302423E+03  0.11037673777E+04  0.00000000000E+00 0.  1.
         15    1    3    3    0    0  0.47332437626E+03  0.11140611545E+04 -0.89499927129E+03  0.15053886789E+04  0.17770000000E+01 0. -1.
        -16    1    3    3    0    0  0.37929293851E+03  0.72551906464E+03 -0.60364593931E+03  0.10171673738E+04  0.00000000000E+00 0.  1.
          4    1    6    6  502    0 -0.37645084507E+03 -0.31725340025E+03 -0.44562386231E+02  0.49431848538E+03  0.00000000000E+00 0. -1.
         -3    1    6    6    0  502 -0.67588946897E+02 -0.10980020437E+03 -0.14384471532E+02  0.12973536003E+03  0.00000000000E+00 0.  1.
<mgrwt>
<rscale>  0 0.20604060E+04</rscale>
<asrwt>0</asrwt>
<pdfrwt beam="1">  1        1 0.26230712E+00 0.20604060E+04</pdfrwt>
<pdfrwt beam="2">  1       -2 0.45346329E+00 0.20604060E+04</pdfrwt>
<totfact> 0.12024039E-02</totfact>
</mgrwt>
</event>
<event>
12    3  0.1176505E-007  0.7889698E+03  0.7818608E-02  0.9576122E-01
          1   -1    0    0  501    0  0.00000000000E+00  0.00000000000E+00  0.15373101297E+04  0.15373101297E+04  0.00000000000E+00 0. -1.
         -2   -1    0    0    0  501 -0.00000000000E+00 -0.00000000000E+00 -0.43723811577E+03  0.43723811577E+03  0.00000000000E+00 0.  1.
        -24    2    1    2    0    0  0.25692213542E+03  0.64312551088E+03  0.30893921724E+03  0.76384812872E+03  0.91657609572E+02 0.  0.
    5000000    2    1    2    0    0 -0.25692213542E+03 -0.64312551088E+03  0.79113279671E+03  0.12107001168E+04  0.60023684017E+03 0.  0.
        -24    2    4    4    0    0 -0.35576849546E+03 -0.17932269002E+03  0.50709461804E+03  0.65244689385E+03  0.99066382469E+02 0.  0.
         24    2    4    4    0    0  0.98846360045E+02 -0.46380282086E+03  0.28403817867E+03  0.55825322292E+03  0.78008425329E+02 0.  0.
         13    1    5    5    0    0 -0.23582357518E+03 -0.84952429383E+02  0.37234240846E+03  0.44885247354E+03  0.00000000000E+00 0. -1.
        -14    1    5    5    0    0 -0.11994492029E+03 -0.94370260639E+02  0.13475220957E+03  0.20359442031E+03  0.00000000000E+00 0.  1.
         15    1    3    3    0    0  0.24779404623E+02  0.14951595384E+03  0.46589752403E+02  0.15856481988E+03  0.17770000000E+01 0. -1.
        -16    1    3    3    0    0  0.23214273079E+03  0.49360955704E+03  0.26234946484E+03  0.60528330885E+03  0.00000000000E+00 0.  1.
          2    1    6    6  502    0  0.26457450518E+02 -0.26007270649E+03  0.18613566991E+03  0.32091166536E+03  0.00000000000E+00 0. -1.
         -1    1    6    6    0  502  0.72388909527E+02 -0.20373011437E+03  0.97902508765E+02  0.23734155756E+03  0.00000000000E+00 0.  1.
<mgrwt>
<rscale>  0 0.78896979E+03</rscale>
<asrwt>0</asrwt>
<pdfrwt beam="1">  1        1 0.23650925E+00 0.78896979E+03</pdfrwt>
<pdfrwt beam="2">  1       -2 0.67267403E-01 0.78896979E+03</pdfrwt>
<totfact> 0.11267346E+01</totfact>
</mgrwt>
</event>
<event>
12    3  0.1176505E-007  0.5801933E+03  0.7818608E-02  0.9947373E-01
         -2   -1    0    0    0  501 -0.00000000000E+00  0.00000000000E+00  0.69911469492E+03  0.69911469492E+03  0.00000000000E+00 0.  1.
          1   -1    0    0  501    0  0.00000000000E+00 -0.00000000000E+00 -0.56081472862E+03  0.56081472862E+03  0.00000000000E+00 0. -1.
        -24    2    1    2    0    0 -0.29072761158E+03 -0.35741493584E+03 -0.75535112812E+02  0.47379828587E+03  0.80692514672E+02 0.  0.
    5000000    2    1    2    0    0  0.29072761158E+03  0.35741493584E+03  0.21383507912E+03  0.78613113767E+03  0.60000728667E+03 0.  0.
        -24    2    4    4    0    0  0.34190550387E+03  0.10191424585E+02 -0.29658493913E+02  0.35152837059E+03  0.75427649797E+02 0.  0.
         24    2    4    4    0    0 -0.51177892288E+02  0.34722351126E+03  0.24349357303E+03  0.43460276708E+03  0.80044372807E+02 0.  0.
         11    1    5    5    0    0  0.22649675948E+03  0.89085432293E+01 -0.55252465910E+02  0.23330876363E+03  0.00000000000E+00 0. -1.
        -12    1    5    5    0    0  0.11540874439E+03  0.12828813553E+01  0.25593971997E+02  0.11821960696E+03  0.00000000000E+00 0.  1.
         15    1    3    3    0    0 -0.25983149272E+03 -0.29028795103E+03 -0.86536421691E+02  0.39908797167E+03  0.17770000000E+01 0. -1.
        -16    1    3    3    0    0 -0.30896118862E+02 -0.67126984810E+02  0.11001308879E+02  0.74710314197E+02  0.00000000000E+00 0.  1.
          2    1    6    6  502    0 -0.62767292513E+00  0.18258123875E+03  0.88494446694E+02  0.20289792954E+03  0.00000000000E+00 0. -1.
         -1    1    6    6    0  502 -0.50550219363E+02  0.16464227251E+03  0.15499912634E+03  0.23170483754E+03  0.00000000000E+00 0.  1.
<mgrwt>
<rscale>  0 0.58019333E+03</rscale>
<asrwt>0</asrwt>
<pdfrwt beam="1">  1        1 0.86279189E-01 0.58019333E+03</pdfrwt>
<pdfrwt beam="2">  1       -2 0.10755611E+00 0.58019333E+03</pdfrwt>
<totfact> 0.23719816E+01</totfact>
</mgrwt>
</event>
<event>
12    3  0.1176505E-007  0.1128606E+04  0.7818608E-02  0.9177751E-01
          1   -1    0    0  501    0  0.00000000000E+00  0.00000000000E+00  0.15800228287E+04  0.15800228287E+04  0.00000000000E+00 0. -1.
         -4   -1    0    0    0  501 -0.00000000000E+00 -0.00000000000E+00 -0.11277568421E+04  0.11277568421E+04  0.00000000000E+00 0.  1.
        -24    2    1    2    0    0  0.10546328516E+04  0.25668653889E+01  0.92551877712E+03  0.14053813722E+04  0.79087003235E+02 0.  0.
    5000000    2    1    2    0    0 -0.10546328516E+04 -0.25668653889E+01 -0.47325279048E+03  0.13023982985E+04  0.60001340306E+03 0.  0.
        -24    2    4    4    0    0 -0.27126333274E+03 -0.24865597939E+03 -0.83426725910E+02  0.38991359856E+03  0.98280231827E+02 0.  0.
         24    2    4    4    0    0 -0.78336951886E+03  0.24608911400E+03 -0.38982606457E+03  0.91248469998E+03  0.80226628811E+02 0.  0.
         11    1    5    5    0    0 -0.18764786443E+03 -0.21909932833E+03 -0.86539837943E+02  0.30117333921E+03  0.00000000000E+00 0. -1.
        -12    1    5    5    0    0 -0.83615468311E+02 -0.29556651062E+02  0.31131120330E+01  0.88740259350E+02  0.00000000000E+00 0.  1.
         15    1    3    3    0    0  0.51910502360E+03 -0.37830593551E+02  0.44783621543E+03  0.68663062334E+03  0.17770000000E+01 0. -1.
        -16    1    3    3    0    0  0.53552782801E+03  0.40397458940E+02  0.47768256170E+03  0.71875074887E+03  0.00000000000E+00 0.  1.
          4    1    6    6  502    0 -0.72379715338E+03  0.21356505024E+03 -0.37635407645E+03  0.84328805327E+03  0.00000000000E+00 0. -1.
         -3    1    6    6    0  502 -0.59572365478E+02  0.32524063757E+02 -0.13471988124E+02  0.69196646710E+02  0.00000000000E+00 0.  1.
<mgrwt>
<rscale>  0 0.11286058E+04</rscale>
<asrwt>0</asrwt>
<pdfrwt beam="1">  1        1 0.24308043E+00 0.11286058E+04</pdfrwt>
<pdfrwt beam="2">  1       -4 0.17350105E+00 0.11286058E+04</pdfrwt>
<totfact> 0.53937578E-01</totfact>
</mgrwt>
</event>
<event>
12    3  0.1176505E-007  0.6701827E+03  0.7818608E-02  0.9769628E-01
         -2   -1    0    0    0  501 -0.00000000000E+00  0.00000000000E+00  0.75855732511E+03  0.75855732511E+03  0.00000000000E+00 0.  1.
          1   -1    0    0  501    0  0.00000000000E+00 -0.00000000000E+00 -0.86899740343E+03  0.86899740343E+03  0.00000000000E+00 0. -1.
        -24    2    1    2    0    0 -0.37405859905E+03 -0.52352824499E+03 -0.31989657617E+03  0.72311668050E+03  0.81007748647E+02 0.  0.
    5000000    2    1    2    0    0  0.37405859905E+03  0.52352824499E+03  0.20945649784E+03  0.90443804804E+03  0.60011207239E+03 0.  0.
        -24    2    4    4    0    0  0.16596079561E+02  0.19229216813E+03 -0.18012084731E+03  0.27553506227E+03  0.78894506299E+02 0.  0.
         24    2    4    4    0    0  0.35746251949E+03  0.33123607686E+03  0.38957734515E+03  0.62890298577E+03  0.79067478760E+02 0.  0.
         11    1    5    5    0    0  0.42371289151E+02  0.61832520318E+02 -0.55285892646E+02  0.93140306198E+02  0.00000000000E+00 0. -1.
        -12    1    5    5    0    0 -0.25775209590E+02  0.13045964781E+03 -0.12483495467E+03  0.18239475608E+03  0.00000000000E+00 0.  1.
         15    1    3    3    0    0 -0.14805330245E+03 -0.18946547229E+03 -0.77925426889E+02  0.25276960941E+03  0.17770000000E+01 0. -1.
        -16    1    3    3    0    0 -0.22600529660E+03 -0.33406277271E+03 -0.24197114928E+03  0.47034707109E+03  0.00000000000E+00 0.  1.
          2    1    6    6  502    0  0.17905020010E+02  0.28846716412E+02  0.69739361564E+01  0.34660619943E+02  0.00000000000E+00 0. -1.
         -1    1    6    6    0  502  0.33955749948E+03  0.30238936045E+03  0.38260340900E+03  0.59424236583E+03  0.00000000000E+00 0.  1.
<mgrwt>
<rscale>  0 0.67018267E+03</rscale>
<asrwt>0</asrwt>
<pdfrwt beam="1">  1        1 0.13369191E+00 0.67018267E+03</pdfrwt>
<pdfrwt beam="2">  1       -2 0.11670113E+00 0.67018267E+03</pdfrwt>
<totfact> 0.99361201E+00</totfact>
</mgrwt>
</event>
<event>
12    3  0.1176505E-007  0.4724557E+03  0.7818608E-02  0.1021229E+00
          1   -1    0    0  501    0  0.00000000000E+00  0.00000000000E+00  0.24578682097E+04  0.24578682097E+04  0.00000000000E+00 0. -1.
         -2   -1    0    0    0  501 -0.00000000000E+00 -0.00000000000E+00 -0.13679637625E+03  0.13679637625E+03  0.00000000000E+00 0.  1.
        -24    2    1    2    0    0  0.97622445322E+02  0.28847456662E+03  0.15016950113E+04  0.15343168996E+04  0.79326690898E+02 0.  0.
    5000000    2    1    2    0    0 -0.97622445322E+02 -0.28847456662E+03  0.81937682208E+03  0.10603476863E+04  0.60017590914E+03 0.  0.
        -24    2    4    4    0    0 -0.10034631251E+03  0.14685414011E+03  0.42635129615E+03  0.46851913416E+03  0.78097570074E+02 0.  0.
         24    2    4    4    0    0  0.27238671845E+01 -0.43532870673E+03  0.39302552593E+03  0.59182855216E+03  0.79205231873E+02 0.  0.
         13    1    5    5    0    0  0.76608020503E+01  0.38639591527E+02  0.62871779312E+02  0.74192766192E+02  0.00000000000E+00 0. -1.
        -14    1    5    5    0    0 -0.10800711456E+03  0.10821454858E+03  0.36347951683E+03  0.39432636797E+03  0.00000000000E+00 0.  1.
         15    1    3    3    0    0  0.61215466982E+02  0.24914496931E+03  0.11287406310E+04  0.11575314765E+04  0.17770000000E+01 0. -1.
        -16    1    3    3    0    0  0.36406978340E+02  0.39329597318E+02  0.37295438030E+03  0.37678542313E+03  0.00000000000E+00 0.  1.
          2    1    6    6  502    0  0.37776267263E+02 -0.13772032218E+03  0.12489899246E+03  0.18972003539E+03  0.00000000000E+00 0. -1.
         -1    1    6    6    0  502 -0.35052400079E+02 -0.29760838455E+03  0.26812653347E+03  0.40210851676E+03  0.00000000000E+00 0.  1.
<mgrwt>
<rscale>  0 0.47245572E+03</rscale>
<asrwt>0</asrwt>
<pdfrwt beam="1">  1        1 0.37813354E+00 0.47245572E+03</pdfrwt>
<pdfrwt beam="2">  1       -2 0.21045598E-01 0.47245572E+03</pdfrwt>
<totfact> 0.27196740E+01</totfact>
</mgrwt>
</event>
<event>
12    3  0.1176505E-007  0.5150680E+03  0.7818608E-02  0.1009919E+00
          1   -1    0    0  501    0  0.00000000000E+00  0.00000000000E+00  0.21395862838E+04  0.21395862838E+04  0.00000000000E+00 0. -1.
         -2   -1    0    0    0  501 -0.00000000000E+00 -0.00000000000E+00 -0.29766063190E+03  0.29766063190E+03  0.00000000000E+00 0.  1.
        -24    2    1    2    0    0 -0.16710603875E+03 -0.34729602215E+03  0.16529582015E+04  0.16991306641E+04  0.78963551826E+02 0.  0.
    5000000    2    1    2    0    0  0.16710603875E+03  0.34729602215E+03  0.18896745042E+03  0.73811625164E+03  0.60047310384E+03 0.  0.
        -24    2    4    4    0    0  0.34306629384E+03  0.28035834588E+03  0.26217659287E+03  0.52096406413E+03  0.79822967863E+02 0.  0.
         24    2    4    4    0    0 -0.17596025509E+03  0.66937676272E+02 -0.73209142448E+02  0.21715218751E+03  0.79704643068E+02 0.  0.
         11    1    5    5    0    0  0.85875602550E+02  0.49351402326E+02  0.93889790857E+02  0.13647517302E+03  0.00000000000E+00 0. -1.
        -12    1    5    5    0    0  0.25719069129E+03  0.23100694355E+03  0.16828680201E+03  0.38448889111E+03  0.00000000000E+00 0.  1.
         15    1    3    3    0    0 -0.70064020564E+02 -0.10347343713E+03  0.40349208146E+03  0.42240352354E+03  0.17770000000E+01 0. -1.
        -16    1    3    3    0    0 -0.97042018185E+02 -0.24382258502E+03  0.12494661200E+04  0.12767271405E+04  0.00000000000E+00 0.  1.
          4    1    6    6  502    0 -0.33615737424E+02 -0.11415746736E+02  0.66253574550E+01  0.36114158407E+02  0.00000000000E+00 0. -1.
         -1    1    6    6    0  502 -0.14234451766E+03  0.78353423008E+02 -0.79834499903E+02  0.18103802910E+03  0.00000000000E+00 0.  1.
<mgrwt>
<rscale>  0 0.51506805E+03</rscale>
<asrwt>0</asrwt>
<pdfrwt beam="1">  1        1 0.32916711E+00 0.51506805E+03</pdfrwt>
<pdfrwt beam="2">  1       -2 0.45793945E-01 0.51506805E+03</pdfrwt>
<totfact> 0.10362405E+01</totfact>
</mgrwt>
</event>
<event>
12    3  0.1176505E-007  0.8804675E+03  0.7818608E-02  0.9450333E-01
         -2   -1    0    0    0  501 -0.00000000000E+00  0.00000000000E+00  0.64693618757E+03  0.64693618757E+03  0.00000000000E+00 0.  1.
          1   -1    0    0  501    0  0.00000000000E+00 -0.00000000000E+00 -0.14622987121E+04  0.14622987121E+04  0.00000000000E+00 0. -1.
        -24    2    1    2    0    0 -0.76888449781E+03 -0.15084173710E+03  0.60295199403E+02  0.78988564958E+03  0.79669490491E+02 0.  0.
    5000000    2    1    2    0    0  0.76888449781E+03  0.15084173710E+03 -0.87565772393E+03  0.13193492501E+04  0.59997449412E+03 0.  0.
        -24    2    4    4    0    0 -0.81593413702E+02  0.22763271611E+02 -0.52201607205E+02  0.12617952328E+03  0.77592606645E+02 0.  0.
         24    2    4    4    0    0  0.85047791151E+03  0.12807846549E+03 -0.82345611673E+03  0.11931697268E+04  0.76532669534E+02 0.  0.
         13    1    5    5    0    0 -0.16042810329E+02  0.40180329980E+02 -0.50135563298E+01  0.43554178074E+02  0.00000000000E+00 0. -1.
        -14    1    5    5    0    0 -0.65550603373E+02 -0.17417058370E+02 -0.47188050875E+02  0.82625345205E+02  0.00000000000E+00 0.  1.
         15    1    3    3    0    0 -0.64320033766E+03 -0.96251576378E+02  0.43237838684E+02  0.65180035957E+03  0.17770000000E+01 0. -1.
        -16    1    3    3    0    0 -0.12568416015E+03 -0.54590160722E+02  0.17057360720E+02  0.13808529001E+03  0.00000000000E+00 0.  1.
          4    1    6    6  502    0  0.19353853017E+03  0.21366179748E+01 -0.20945297467E+03  0.28518814210E+03  0.00000000000E+00 0. -1.
         -3    1    6    6    0  502  0.65693938134E+03  0.12594184751E+03 -0.61400314206E+03  0.90798158471E+03  0.00000000000E+00 0.  1.
<mgrwt>
<rscale>  0 0.88046750E+03</rscale>
<asrwt>0</asrwt>
<pdfrwt beam="1">  1        1 0.22496903E+00 0.88046750E+03</pdfrwt>
<pdfrwt beam="2">  1       -2 0.99528645E-01 0.88046750E+03</pdfrwt>
<totfact> 0.51660595E+00</totfact>
</mgrwt>
</event>
<event>
12    3  0.1176505E-007  0.9083778E+03  0.7818608E-02  0.9415169E-01
         -2   -1    0    0    0  501 -0.00000000000E+00  0.00000000000E+00  0.65095461002E+03  0.65095461002E+03  0.00000000000E+00 0.  1.
          1   -1    0    0  501    0  0.00000000000E+00 -0.00000000000E+00 -0.23948098440E+04  0.23948098440E+04  0.00000000000E+00 0. -1.
        -24    2    1    2    0    0 -0.66701065277E+03 -0.56147623031E+03 -0.17835692101E+04  0.19868885049E+04  0.80299660812E+02 0.  0.
    5000000    2    1    2    0    0  0.66701065277E+03  0.56147623031E+03  0.39713976146E+02  0.10588759491E+04  0.59956843446E+03 0.  0.
        -24    2    4    4    0    0  0.43093357228E+03  0.13493157083E+03 -0.21166037965E+03  0.50513560229E+03  0.80321776978E+02 0.  0.
         24    2    4    4    0    0  0.23607708048E+03  0.42654465948E+03  0.25137435580E+03  0.55374034683E+03  0.75937938423E+02 0.  0.
         11    1    5    5    0    0  0.38982825290E+03  0.12402220805E+03 -0.16260933922E+03  0.44021514291E+03  0.00000000000E+00 0. -1.
        -12    1    5    5    0    0  0.41105319383E+02  0.10909362787E+02 -0.49051040435E+02  0.64920459377E+02  0.00000000000E+00 0.  1.
         15    1    3    3    0    0 -0.35924096558E+03 -0.25003726168E+03 -0.88626497572E+03  0.98845408011E+03  0.17770000000E+01 0. -1.
        -16    1    3    3    0    0 -0.30776968718E+03 -0.31143896863E+03 -0.89730423438E+03  0.99843442477E+03  0.00000000000E+00 0.  1.
          2    1    6    6  502    0  0.16684359516E+03  0.25638060741E+03  0.18979053136E+03  0.35998367588E+03  0.00000000000E+00 0. -1.
         -1    1    6    6    0  502  0.69233485327E+02  0.17016405207E+03  0.61583824434E+02  0.19375667095E+03  0.00000000000E+00 0.  1.
<mgrwt>
<rscale>  0 0.90837782E+03</rscale>
<asrwt>0</asrwt>
<pdfrwt beam="1">  1        1 0.36843228E+00 0.90837782E+03</pdfrwt>
<pdfrwt beam="2">  1       -2 0.10014686E+00 0.90837782E+03</pdfrwt>
<totfact> 0.11872017E+00</totfact>
</mgrwt>
</event>
<event>
12    3  0.1176505E-007  0.8655318E+03  0.7818608E-02  0.9469725E-01
          1   -1    0    0  501    0  0.00000000000E+00  0.00000000000E+00  0.11066720091E+04  0.11066720091E+04  0.00000000000E+00 0. -1.
         -2   -1    0    0    0  501 -0.00000000000E+00 -0.00000000000E+00 -0.70944807698E+03  0.70944807698E+03  0.00000000000E+00 0.  1.
        -24    2    1    2    0    0 -0.70168865856E+02  0.76285116488E+03  0.18039557473E+02  0.77172124367E+03  0.91447705274E+02 0.  0.
    5000000    2    1    2    0    0  0.70168865856E+02 -0.76285116488E+03  0.37918437468E+03  0.10443988424E+04  0.60010214348E+03 0.  0.
        -24    2    4    4    0    0 -0.24880635398E+03 -0.27833294861E+03  0.10013874815E+03  0.39512879347E+03  0.82007088030E+02 0.  0.
         24    2    4    4    0    0  0.31897521983E+03 -0.48451821627E+03  0.27904562653E+03  0.64927004898E+03  0.84746929420E+02 0.  0.
         11    1    5    5    0    0 -0.75588388934E+02 -0.60263353626E+02  0.59947886911E+02  0.11374983726E+03  0.00000000000E+00 0. -1.
        -12    1    5    5    0    0 -0.17321796504E+03 -0.21806959498E+03  0.40190861237E+02  0.28137895621E+03  0.00000000000E+00 0.  1.
         15    1    3    3    0    0  0.15276331953E+02  0.19543569970E+03 -0.17429767165E+02  0.19681319455E+03  0.17770000000E+01 0. -1.
        -16    1    3    3    0    0 -0.85445197809E+02  0.56741546518E+03  0.35469324638E+02  0.57490804912E+03  0.00000000000E+00 0.  1.
          2    1    6    6  502    0  0.20758694098E+03 -0.23979538948E+03  0.14254918771E+03  0.34772753385E+03  0.00000000000E+00 0. -1.
         -1    1    6    6    0  502  0.11138827886E+03 -0.24472282679E+03  0.13649643882E+03  0.30154251513E+03  0.00000000000E+00 0.  1.
<mgrwt>
<rscale>  0 0.86553183E+03</rscale>
<asrwt>0</asrwt>
<pdfrwt beam="1">  1        1 0.17025723E+00 0.86553183E+03</pdfrwt>
<pdfrwt beam="2">  1       -2 0.10914586E+00 0.86553183E+03</pdfrwt>
<totfact> 0.74462177E+00</totfact>
</mgrwt>
</event>
<event>
12    3  0.1176505E-007  0.9425236E+03  0.7818608E-02  0.9373932E-01
          1   -1    0    0  501    0  0.00000000000E+00  0.00000000000E+00  0.20852967404E+04  0.20852967404E+04  0.00000000000E+00 0. -1.
         -2   -1    0    0    0  501 -0.00000000000E+00 -0.00000000000E+00 -0.50284942215E+03  0.50284942215E+03  0.00000000000E+00 0.  1.
        -24    2    1    2    0    0 -0.79319437621E+03 -0.49141650585E+03  0.66461100529E+03  0.11483226124E+04  0.79306576197E+02 0.  0.
    5000000    2    1    2    0    0  0.79319437621E+03  0.49141650585E+03  0.91783631299E+03  0.14398235502E+04  0.60001738111E+03 0.  0.
        -24    2    4    4    0    0  0.18531810823E+03  0.92239430877E+02  0.60424759088E+03  0.64375090045E+03  0.80306642897E+02 0.  0.
         24    2    4    4    0    0  0.60787626798E+03  0.39917707497E+03  0.31358872211E+03  0.79607264977E+03  0.80857174820E+02 0.  0.
         13    1    5    5    0    0  0.19293728677E+03  0.93299582643E+02  0.58123956742E+03  0.61949095512E+03  0.00000000000E+00 0. -1.
        -14    1    5    5    0    0 -0.76191785398E+01 -0.10601517663E+01  0.23008023462E+02  0.24259945322E+02  0.00000000000E+00 0.  1.
         15    1    3    3    0    0 -0.35313724349E+03 -0.17786882098E+03  0.30295432896E+03  0.49812419473E+03  0.17770000000E+01 0. -1.
        -16    1    3    3    0    0 -0.44005713272E+03 -0.31354768487E+03  0.36165667633E+03  0.65019841763E+03  0.00000000000E+00 0.  1.
          2    1    6    6  502    0  0.52060438310E+03  0.33742116286E+03  0.29723332511E+03  0.68791686591E+03  0.00000000000E+00 0. -1.
         -1    1    6    6    0  502  0.87271884880E+02  0.61755912112E+02  0.16355397005E+02  0.10815578386E+03  0.00000000000E+00 0.  1.
<mgrwt>
<rscale>  0 0.94252358E+03</rscale>
<asrwt>0</asrwt>
<pdfrwt beam="1">  1        1 0.32081488E+00 0.94252358E+03</pdfrwt>
<pdfrwt beam="2">  1       -2 0.77361451E-01 0.94252358E+03</pdfrwt>
<totfact> 0.34673280E+00</totfact>
</mgrwt>
</event>
<event>
12    3  0.1176505E-007  0.4530125E+03  0.7818608E-02  0.1026827E+00
         -2   -1    0    0    0  501 -0.00000000000E+00  0.00000000000E+00  0.28571802371E+03  0.28571802371E+03  0.00000000000E+00 0.  1.
          1   -1    0    0  501    0  0.00000000000E+00 -0.00000000000E+00 -0.10279163565E+04  0.10279163565E+04  0.00000000000E+00 0. -1.
        -24    2    1    2    0    0  0.24982600098E+03  0.11704448189E+03 -0.55930214580E+03  0.62841792663E+03  0.77315966648E+02 0.  0.
    5000000    2    1    2    0    0 -0.24982600098E+03 -0.11704448189E+03 -0.18289618699E+03  0.68521645358E+03  0.59996510861E+03 0.  0.
        -24    2    4    4    0    0 -0.25147870489E+03 -0.32616451310E+03 -0.19174297659E+03  0.46140882252E+03  0.80671579930E+02 0.  0.
         24    2    4    4    0    0  0.16527039097E+01  0.20912003122E+03  0.88467896071E+01  0.22380763106E+03  0.79231755944E+02 0.  0.
         11    1    5    5    0    0 -0.14908527725E+03 -0.18416862306E+03 -0.66325264035E+02  0.24605597384E+03  0.00000000000E+00 0. -1.
        -12    1    5    5    0    0 -0.10239342764E+03 -0.14199589004E+03 -0.12541771256E+03  0.21535284868E+03  0.00000000000E+00 0.  1.
         15    1    3    3    0    0  0.17447846164E+03  0.11558457176E+03 -0.37798456611E+03  0.43206251487E+03  0.17770000000E+01 0. -1.
        -16    1    3    3    0    0  0.75347539334E+02  0.14599101295E+01 -0.18131757969E+03  0.19635541176E+03  0.00000000000E+00 0.  1.
          4    1    6    6  502    0  0.53343089375E+01  0.16278646744E+03  0.40175305914E+02  0.16775560807E+03  0.00000000000E+00 0. -1.
         -3    1    6    6    0  502 -0.36816050278E+01  0.46333563776E+02 -0.31328516307E+02  0.56052022994E+02  0.00000000000E+00 0.  1.
<mgrwt>
<rscale>  0 0.45301253E+03</rscale>
<asrwt>0</asrwt>
<pdfrwt beam="1">  1        1 0.15814098E+00 0.45301253E+03</pdfrwt>
<pdfrwt beam="2">  1       -2 0.43956620E-01 0.45301253E+03</pdfrwt>
<totfact> 0.65232655E+01</totfact>
</mgrwt>
</event>
<event>
12    3  0.1176505E-007  0.2350465E+03  0.7818608E-02  0.1123137E+00
          1   -1    0    0  501    0  0.00000000000E+00  0.00000000000E+00  0.18369899962E+04  0.18369899962E+04  0.00000000000E+00 0. -1.
         -2   -1    0    0    0  501 -0.00000000000E+00 -0.00000000000E+00 -0.10268156543E+03  0.10268156543E+03  0.00000000000E+00 0.  1.
        -24    2    1    2    0    0 -0.18534174538E+03  0.42740887515E+02  0.69238675466E+03  0.72242562048E+03  0.79504798893E+02 0.  0.
    5000000    2    1    2    0    0  0.18534174538E+03 -0.42740887515E+02  0.10419216761E+04  0.12172459412E+04  0.59992379188E+03 0.  0.
        -24    2    4    4    0    0 -0.30415694738E+01 -0.45209616404E+02 -0.53103171464E+02  0.10316561269E+03  0.75960754748E+02 0.  0.
         24    2    4    4    0    0  0.18838331485E+03  0.24687288888E+01  0.10950248476E+04  0.11140803285E+04  0.81247729421E+02 0.  0.
         11    1    5    5    0    0 -0.28042360088E+02 -0.52667708577E+02 -0.48007407290E+02  0.76583109370E+02  0.00000000000E+00 0. -1.
        -12    1    5    5    0    0  0.25000790614E+02  0.74580921733E+01 -0.50957641737E+01  0.26582503319E+02  0.00000000000E+00 0.  1.
         15    1    3    3    0    0 -0.73327712541E+02  0.21210550309E+02  0.42377424285E+03  0.43059796505E+03  0.17770000000E+01 0. -1.
        -16    1    3    3    0    0 -0.11201403283E+03  0.21530337206E+02  0.26861251181E+03  0.29182765543E+03  0.00000000000E+00 0.  1.
          4    1    6    6  502    0  0.17083124620E+03  0.16247722696E+02  0.79921724252E+03  0.81743226258E+03  0.00000000000E+00 0. -1.
         -3    1    6    6    0  502  0.17552068646E+02 -0.13778993807E+02  0.29580760506E+03  0.29664806588E+03  0.00000000000E+00 0.  1.
<mgrwt>
<rscale>  0 0.23504648E+03</rscale>
<asrwt>0</asrwt>
<pdfrwt beam="1">  1        1 0.28261382E+00 0.23504648E+03</pdfrwt>
<pdfrwt beam="2">  1       -2 0.15797165E-01 0.23504648E+03</pdfrwt>
<totfact> 0.12055799E+02</totfact>
</mgrwt>
</event>
<event>
12    3  0.1176505E-007  0.1190189E+04  0.7818608E-02  0.9121488E-01
          1   -1    0    0  501    0  0.00000000000E+00  0.00000000000E+00  0.96666166657E+03  0.96666166657E+03  0.00000000000E+00 0. -1.
         -2   -1    0    0    0  501 -0.00000000000E+00 -0.00000000000E+00 -0.16891501598E+04  0.16891501598E+04  0.00000000000E+00 0.  1.
        -24    2    1    2    0    0  0.44529833803E+03  0.10495368689E+04  0.66869480117E+02  0.11448732812E+04  0.80281091410E+02 0.  0.
    5000000    2    1    2    0    0 -0.44529833803E+03 -0.10495368689E+04 -0.78935797336E+03  0.15109385452E+04  0.60002585635E+03 0.  0.
        -24    2    4    4    0    0  0.25774784888E+02  0.29991993625E+02  0.46132926607E+01  0.88224767007E+02  0.78730348828E+02 0.  0.
         24    2    4    4    0    0 -0.47107312292E+03 -0.10795288625E+04 -0.79397126602E+03  0.14227137782E+04  0.80197701313E+02 0.  0.
         13    1    5    5    0    0  0.32413843899E+02  0.42356326072E+01  0.34966176647E+02  0.47866808638E+02  0.00000000000E+00 0. -1.
        -14    1    5    5    0    0 -0.66390590110E+01  0.25756361018E+02 -0.30352883986E+02  0.40357958369E+02  0.00000000000E+00 0.  1.
         15    1    3    3    0    0  0.16401373109E+03  0.43440575563E+03 -0.75258434197E+01  0.46440140025E+03  0.17770000000E+01 0. -1.
        -16    1    3    3    0    0  0.28128460693E+03  0.61513111324E+03  0.74395323537E+02  0.68047188093E+03  0.00000000000E+00 0.  1.
          4    1    6    6  502    0 -0.97740050214E+02 -0.31009339146E+03 -0.23058920127E+03  0.39860056270E+03  0.00000000000E+00 0. -1.
         -3    1    6    6    0  502 -0.37333307270E+03 -0.76943547103E+03 -0.56338206475E+03  0.10241132155E+04  0.00000000000E+00 0.  1.
<mgrwt>
<rscale>  0 0.11901888E+04</rscale>
<asrwt>0</asrwt>
<pdfrwt beam="1">  1        1 0.14871718E+00 0.11901888E+04</pdfrwt>
<pdfrwt beam="2">  1       -2 0.25986926E+00 0.11901888E+04</pdfrwt>
<totfact> 0.77127891E-01</totfact>
</mgrwt>
</event>
<event>
12    3  0.1176505E-007  0.7735949E+03  0.7818608E-02  0.9599044E-01
         -2   -1    0    0    0  501 -0.00000000000E+00  0.00000000000E+00  0.62892201348E+03  0.62892201348E+03  0.00000000000E+00 0.  1.
          1   -1    0    0  501    0  0.00000000000E+00 -0.00000000000E+00 -0.18336771556E+04  0.18336771556E+04  0.00000000000E+00 0. -1.
        -24    2    1    2    0    0  0.13146404126E+02 -0.66296098738E+03  0.28435639643E+03  0.72561486442E+03  0.77254595625E+02 0.  0.
    5000000    2    1    2    0    0 -0.13146404126E+02  0.66296098738E+03 -0.14891115386E+04  0.17369843047E+04  0.59997600090E+03 0.  0.
        -24    2    4    4    0    0 -0.21007209619E+03  0.32087870785E+02 -0.42285396204E+03  0.48007101388E+03  0.80639866694E+02 0.  0.
         24    2    4    4    0    0  0.19692569206E+03  0.63087311660E+03 -0.10662575765E+04  0.12569132908E+04  0.78391221761E+02 0.  0.
         13    1    5    5    0    0 -0.17754788990E+03  0.46085220957E+02 -0.39321410186E+03  0.43389449259E+03  0.00000000000E+00 0. -1.
        -14    1    5    5    0    0 -0.32524206286E+02 -0.13997350172E+02 -0.29639860184E+02  0.46176521286E+02  0.00000000000E+00 0.  1.
         15    1    3    3    0    0  0.43454297985E+02 -0.30049649097E+03  0.12011213373E+03  0.32652182086E+03  0.17770000000E+01 0. -1.
        -16    1    3    3    0    0 -0.30307893859E+02 -0.36246449641E+03  0.16424426271E+03  0.39909304356E+03  0.00000000000E+00 0.  1.
          4    1    6    6  502    0  0.51349791374E+02  0.18189273251E+03 -0.37425960040E+03  0.41927558444E+03  0.00000000000E+00 0. -1.
         -3    1    6    6    0  502  0.14557590069E+03  0.44898038408E+03 -0.69199797612E+03  0.83763770636E+03  0.00000000000E+00 0.  1.
<mgrwt>
<rscale>  0 0.77359491E+03</rscale>
<asrwt>0</asrwt>
<pdfrwt beam="1">  1        1 0.28210418E+00 0.77359491E+03</pdfrwt>
<pdfrwt beam="2">  1       -2 0.96757232E-01 0.77359491E+03</pdfrwt>
<totfact> 0.31388517E+00</totfact>
</mgrwt>
</event>
<event>
12    3  0.1176505E-007  0.7334982E+03  0.7818608E-02  0.9661601E-01
          1   -1    0    0  501    0  0.00000000000E+00  0.00000000000E+00  0.19919048563E+04  0.19919048563E+04  0.00000000000E+00 0. -1.
         -2   -1    0    0    0  501 -0.00000000000E+00 -0.00000000000E+00 -0.27493677431E+03  0.27493677431E+03  0.00000000000E+00 0.  1.
        -24    2    1    2    0    0 -0.56417065808E+03 -0.23414737408E+03  0.60523948063E+03  0.86359135385E+03  0.79760098434E+02 0.  0.
    5000000    2    1    2    0    0  0.56417065808E+03  0.23414737408E+03  0.11117286014E+04  0.14032502768E+04  0.60004777471E+03 0.  0.
        -24    2    4    4    0    0  0.67300227923E+03  0.18599003293E+03  0.96295028084E+03  0.11920399381E+04  0.78495926670E+02 0.  0.
         24    2    4    4    0    0 -0.10883162115E+03  0.48157341143E+02  0.14877832055E+03  0.21121033867E+03  0.91166700210E+02 0.  0.
         11    1    5    5    0    0  0.30315312798E+03  0.12380484192E+03  0.43751306057E+03  0.54648617188E+03  0.00000000000E+00 0. -1.
        -12    1    5    5    0    0  0.36984915125E+03  0.62185191017E+02  0.52543722027E+03  0.64555376625E+03  0.00000000000E+00 0.  1.
         15    1    3    3    0    0 -0.38764905051E+03 -0.19711329693E+03  0.40795203889E+03  0.59628303846E+03  0.17770000000E+01 0. -1.
        -16    1    3    3    0    0 -0.17652160757E+03 -0.37034077149E+02  0.19728744174E+03  0.26730831539E+03  0.00000000000E+00 0.  1.
          2    1    6    6  502    0 -0.68178894355E+02  0.74354171202E+02  0.90969906139E+02  0.13583971523E+03  0.00000000000E+00 0. -1.
         -1    1    6    6    0  502 -0.40652726796E+02 -0.26196830060E+02  0.57808414411E+02  0.75370623441E+02  0.00000000000E+00 0.  1.
<mgrwt>
<rscale>  0 0.73349822E+03</rscale>
<asrwt>0</asrwt>
<pdfrwt beam="1">  1        1 0.30644689E+00 0.73349822E+03</pdfrwt>
<pdfrwt beam="2">  1       -2 0.42297967E-01 0.73349822E+03</pdfrwt>
<totfact> 0.14627875E+01</totfact>
</mgrwt>
</event>
<event>
12    3  0.1176505E-007  0.3451943E+03  0.7818608E-02  0.1064605E+00
          1   -1    0    0  501    0  0.00000000000E+00  0.00000000000E+00  0.22959356580E+04  0.22959356580E+04  0.00000000000E+00 0. -1.
         -2   -1    0    0    0  501 -0.00000000000E+00 -0.00000000000E+00 -0.63061834020E+02  0.63061834020E+02  0.00000000000E+00 0.  1.
        -24    2    1    2    0    0 -0.17180130795E+02  0.11978715942E+03  0.35042281597E+03  0.37954107313E+03  0.81309014175E+02 0.  0.
    5000000    2    1    2    0    0  0.17180130795E+02 -0.11978715942E+03  0.18824510080E+04  0.19794564189E+04  0.59998483003E+03 0.  0.
        -24    2    4    4    0    0 -0.24156192821E+03  0.21154299511E+02  0.12646937267E+04  0.12904829429E+04  0.84239741425E+02 0.  0.
         24    2    4    4    0    0  0.25874205901E+03 -0.14094145893E+03  0.61775728136E+03  0.68897347603E+03  0.79047100218E+02 0.  0.
         13    1    5    5    0    0 -0.11768270329E+03 -0.47638866022E+01  0.80945727105E+03  0.81798104313E+03  0.00000000000E+00 0. -1.
        -14    1    5    5    0    0 -0.12387922492E+03  0.25918186113E+02  0.45523645562E+03  0.47250189975E+03  0.00000000000E+00 0.  1.
         15    1    3    3    0    0 -0.37872808067E+02  0.11328483085E+03  0.32420576459E+03  0.34551459884E+03  0.17770000000E+01 0. -1.
        -16    1    3    3    0    0  0.20692677272E+02  0.65023285691E+01  0.26217051383E+02  0.34026474291E+02  0.00000000000E+00 0.  1.
          2    1    6    6  502    0  0.94676133113E+02 -0.95899884370E+02  0.26195282175E+03  0.29458384007E+03  0.00000000000E+00 0. -1.
         -1    1    6    6    0  502  0.16406592590E+03 -0.45041574556E+02  0.35580445961E+03  0.39438963596E+03  0.00000000000E+00 0.  1.
<mgrwt>
<rscale>  0 0.34519434E+03</rscale>
<asrwt>0</asrwt>
<pdfrwt beam="1">  1        1 0.35322081E+00 0.34519434E+03</pdfrwt>
<pdfrwt beam="2">  1       -2 0.97018224E-02 0.34519434E+03</pdfrwt>
<totfact> 0.13035812E+02</totfact>
</mgrwt>
</event>
<event>
12    3  0.1176505E-007  0.1147982E+04  0.7818608E-02  0.9159647E-01
          1   -1    0    0  501    0  0.00000000000E+00  0.00000000000E+00  0.17115962850E+04  0.17115962850E+04  0.00000000000E+00 0. -1.
         -2   -1    0    0    0  501 -0.00000000000E+00 -0.00000000000E+00 -0.15521003015E+04  0.15521003015E+04  0.00000000000E+00 0.  1.
        -24    2    1    2    0    0 -0.85145555982E+03  0.72862470381E+03  0.11830831473E+04  0.16315614329E+04  0.80227466384E+02 0.  0.
    5000000    2    1    2    0    0  0.85145555982E+03 -0.72862470381E+03 -0.10235871638E+04  0.16321351536E+04  0.60021991650E+03 0.  0.
        -24    2    4    4    0    0  0.30309209567E+03 -0.48111286967E+03 -0.80111802368E+03  0.98575579752E+03  0.81178769718E+02 0.  0.
         24    2    4    4    0    0  0.54836346415E+03 -0.24751183414E+03 -0.22246914014E+03  0.64637935604E+03  0.79681595993E+02 0.  0.
         13    1    5    5    0    0  0.15447552852E+03 -0.29404698934E+03 -0.51742759143E+03  0.61486391439E+03  0.00000000000E+00 0. -1.
        -14    1    5    5    0    0  0.14861656716E+03 -0.18706588033E+03 -0.28369043225E+03  0.37089188312E+03  0.00000000000E+00 0.  1.
         15    1    3    3    0    0 -0.46534742823E+03  0.44695553692E+03  0.70016601818E+03  0.95213081648E+03  0.17770000000E+01 0. -1.
        -16    1    3    3    0    0 -0.38610813159E+03  0.28166916689E+03  0.48291712916E+03  0.67943061640E+03  0.00000000000E+00 0.  1.
          2    1    6    6  502    0  0.31820441933E+03 -0.13763096383E+03 -0.86349507535E+02  0.35728500128E+03  0.00000000000E+00 0. -1.
         -3    1    6    6    0  502  0.23015904482E+03 -0.10988087031E+03 -0.13611963261E+03  0.28909435476E+03  0.00000000000E+00 0.  1.
<mgrwt>
<rscale>  0 0.11479825E+04</rscale>
<asrwt>0</asrwt>
<pdfrwt beam="1">  1        1 0.26332251E+00 0.11479825E+04</pdfrwt>
<pdfrwt beam="2">  1       -2 0.23878466E+00 0.11479825E+04</pdfrwt>
<totfact> 0.30392700E-01</totfact>
</mgrwt>
</event>
<event>
12    3  0.1176505E-007  0.5372637E+03  0.7818608E-02  0.1004486E+00
          1   -1    0    0  501    0  0.00000000000E+00  0.00000000000E+00  0.12124446152E+04  0.12124446152E+04  0.00000000000E+00 0. -1.
         -2   -1    0    0    0  501 -0.00000000000E+00 -0.00000000000E+00 -0.53796544876E+03  0.53796544876E+03  0.00000000000E+00 0.  1.
        -24    2    1    2    0    0  0.17100824344E+03  0.37092771255E+03 -0.31588959607E+03  0.52248436370E+03  0.79827853256E+02 0.  0.
    5000000    2    1    2    0    0 -0.17100824344E+03 -0.37092771255E+03  0.99036876249E+03  0.12279257002E+04  0.60011669892E+03 0.  0.
        -24    2    4    4    0    0  0.15084452348E+03 -0.27469984772E+03  0.72028623234E+03  0.78950571315E+03  0.79328040387E+02 0.  0.
         24    2    4    4    0    0 -0.32185276692E+03 -0.96227864829E+02  0.27008253015E+03  0.43841998708E+03  0.80115581755E+02 0.  0.
         11    1    5    5    0    0  0.84728666972E+02 -0.18721595820E+03  0.54820581751E+03  0.58545570316E+03  0.00000000000E+00 0. -1.
        -12    1    5    5    0    0  0.66115856512E+02 -0.87483889516E+02  0.17208041483E+03  0.20405000999E+03  0.00000000000E+00 0.  1.
         15    1    3    3    0    0  0.33232667701E+02  0.20892667989E+02 -0.21362010408E+02  0.44725909671E+02  0.17770000000E+01 0. -1.
        -16    1    3    3    0    0  0.13777557573E+03  0.35003504456E+03 -0.29452758566E+03  0.47775845403E+03  0.00000000000E+00 0.  1.
          4    1    6    6  502    0 -0.13596891990E+03 -0.78931092090E+02  0.14353179248E+03  0.21288269054E+03  0.00000000000E+00 0. -1.
         -3    1    6    6    0  502 -0.18588384702E+03 -0.17296772739E+02  0.12655073766E+03  0.22553729654E+03  0.00000000000E+00 0.  1.
<mgrwt>
<rscale>  0 0.53726374E+03</rscale>
<asrwt>0</asrwt>
<pdfrwt beam="1">  1        1 0.18652994E+00 0.53726374E+03</pdfrwt>
<pdfrwt beam="2">  1       -2 0.82763915E-01 0.53726374E+03</pdfrwt>
<totfact> 0.12444651E+01</totfact>
</mgrwt>
</event>
<event>
12    3  0.1176505E-007  0.5254354E+03  0.7818608E-02  0.1007345E+00
          1   -1    0    0  501    0  0.00000000000E+00  0.00000000000E+00  0.83982740880E+03  0.83982740880E+03  0.00000000000E+00 0. -1.
         -2   -1    0    0    0  501 -0.00000000000E+00 -0.00000000000E+00 -0.34002183561E+03  0.34002183561E+03  0.00000000000E+00 0.  1.
        -24    2    1    2    0    0  0.17737885638E+03  0.30634134458E+03  0.24536780878E+03  0.43819633162E+03  0.80637369600E+02 0.  0.
    5000000    2    1    2    0    0 -0.17737885638E+03 -0.30634134458E+03  0.25443776442E+03  0.74165291279E+03  0.60000182417E+03 0.  0.
        -24    2    4    4    0    0 -0.51865698321E+02  0.17173349002E+03  0.65845036009E+02  0.20664510268E+03  0.78639604767E+02 0.  0.
         24    2    4    4    0    0 -0.12551315806E+03 -0.47807483460E+03  0.18859272841E+03  0.53500781011E+03  0.79731043851E+02 0.  0.
         11    1    5    5    0    0  0.14349597642E+02  0.39761941447E+02  0.37053174944E+02  0.56212638379E+02  0.00000000000E+00 0. -1.
        -12    1    5    5    0    0 -0.66215295962E+02  0.13197154857E+03  0.28791861066E+02  0.15043246430E+03  0.00000000000E+00 0.  1.
         15    1    3    3    0    0  0.15889189627E+03  0.30566402815E+03  0.23455113704E+03  0.41676675302E+03  0.17770000000E+01 0. -1.
        -16    1    3    3    0    0  0.18486960112E+02  0.67731642564E+00  0.10816671734E+02  0.21429578604E+02  0.00000000000E+00 0.  1.
          2    1    6    6  502    0 -0.31489510075E+02 -0.23872111980E+03  0.11905030907E+03  0.26861187310E+03  0.00000000000E+00 0. -1.
         -1    1    6    6    0  502 -0.94023647985E+02 -0.23935371480E+03  0.69542419338E+02  0.26639593701E+03  0.00000000000E+00 0.  1.
<mgrwt>
<rscale>  0 0.52543537E+03</rscale>
<asrwt>0</asrwt>
<pdfrwt beam="1">  1        1 0.12920422E+00 0.52543537E+03</pdfrwt>
<pdfrwt beam="2">  1       -2 0.52311052E-01 0.52543537E+03</pdfrwt>
<totfact> 0.64241400E+01</totfact>
</mgrwt>
</event>
<event>
12    3  0.1176505E-007  0.7754183E+03  0.7818608E-02  0.9596296E-01
         -2   -1    0    0    0  501 -0.00000000000E+00  0.00000000000E+00  0.94429499670E+03  0.94429499670E+03  0.00000000000E+00 0.  1.
          1   -1    0    0  501    0  0.00000000000E+00 -0.00000000000E+00 -0.70148071483E+03  0.70148071483E+03  0.00000000000E+00 0. -1.
        -24    2    1    2    0    0 -0.61198725066E+02  0.69660675328E+03  0.56561255325E+02  0.70575716581E+03  0.76731667666E+02 0.  0.
    5000000    2    1    2    0    0  0.61198725066E+02 -0.69660675328E+03  0.18625302655E+03  0.94001854572E+03  0.59994868424E+03 0.  0.
        -24    2    4    4    0    0  0.25702407170E+03 -0.33525308592E+03  0.27735862101E+03  0.51169509445E+03  0.80299813119E+02 0.  0.
         24    2    4    4    0    0 -0.19582534663E+03 -0.36135366736E+03 -0.91105594463E+02  0.42832345126E+03  0.78972845082E+02 0.  0.
         11    1    5    5    0    0  0.11525309027E+03 -0.21290721714E+03  0.17018636850E+03  0.29593269159E+03  0.00000000000E+00 0. -1.
        -12    1    5    5    0    0  0.14177098142E+03 -0.12234586878E+03  0.10717225251E+03  0.21576240286E+03  0.00000000000E+00 0.  1.
         15    1    3    3    0    0  0.15004294763E+02  0.22181665659E+03  0.84702000663E+01  0.22249193248E+03  0.17770000000E+01 0. -1.
        -16    1    3    3    0    0 -0.76203019829E+02  0.47479009670E+03  0.48091055258E+02  0.48326523333E+03  0.00000000000E+00 0.  1.
          2    1    6    6  502    0 -0.73224269473E+02 -0.21625661082E+03 -0.57045174483E+02  0.23533564816E+03  0.00000000000E+00 0. -1.
         -1    1    6    6    0  502 -0.12260107716E+03 -0.14509705655E+03 -0.34060419980E+02  0.19298780311E+03  0.00000000000E+00 0.  1.
<mgrwt>
<rscale>  0 0.77541828E+03</rscale>
<asrwt>0</asrwt>
<pdfrwt beam="1">  1        1 0.10792011E+00 0.77541828E+03</pdfrwt>
<pdfrwt beam="2">  1       -2 0.14527615E+00 0.77541828E+03</pdfrwt>
<totfact> 0.78999716E+00</totfact>
</mgrwt>
</event>
<event>
12    3  0.1176505E-007  0.1188004E+04  0.7818608E-02  0.9123422E-01
          1   -1    0    0  501    0  0.00000000000E+00  0.00000000000E+00  0.23177220240E+04  0.23177220240E+04  0.00000000000E+00 0. -1.
         -2   -1    0    0    0  501 -0.00000000000E+00 -0.00000000000E+00 -0.63287356804E+03  0.63287356804E+03  0.00000000000E+00 0.  1.
        -24    2    1    2    0    0 -0.11056993764E+04  0.17566704797E+03  0.56222101624E+03  0.12554101380E+04  0.80821535913E+02 0.  0.
    5000000    2    1    2    0    0  0.11056993764E+04 -0.17566704797E+03  0.11226274397E+04  0.16951854541E+04  0.59994277429E+03 0.  0.
        -24    2    4    4    0    0  0.97992615916E+03  0.66145316707E+02  0.87844009494E+03  0.13200338743E+04  0.78752451496E+02 0.  0.
         24    2    4    4    0    0  0.12577321728E+03 -0.24181236468E+03  0.24418734480E+03  0.37515157976E+03  0.82578002727E+02 0.  0.
         13    1    5    5    0    0  0.30048644894E+03  0.63129762967E+01  0.31452164846E+03  0.43503543191E+03  0.00000000000E+00 0. -1.
        -14    1    5    5    0    0  0.67943971022E+03  0.59832340410E+02  0.56391844648E+03  0.88499844241E+03  0.00000000000E+00 0.  1.
         15    1    3    3    0    0 -0.29963004642E+03  0.45686540588E+02  0.19297287154E+03  0.35931478064E+03  0.17770000000E+01 0. -1.
        -16    1    3    3    0    0 -0.80606933002E+03  0.12998050738E+03  0.36924814470E+03  0.89609535735E+03  0.00000000000E+00 0.  1.
          2    1    6    6  502    0  0.22021657905E+02 -0.24159602466E+02  0.71364643418E+02  0.78495554895E+02  0.00000000000E+00 0. -1.
         -1    1    6    6    0  502  0.10375155938E+03 -0.21765276221E+03  0.17282270139E+03  0.29665602486E+03  0.00000000000E+00 0.  1.
<mgrwt>
<rscale>  0 0.11880042E+04</rscale>
<asrwt>0</asrwt>
<pdfrwt beam="1">  1        1 0.35657261E+00 0.11880042E+04</pdfrwt>
<pdfrwt beam="2">  1       -2 0.97365166E-01 0.11880042E+04</pdfrwt>
<totfact> 0.13787996E+00</totfact>
</mgrwt>
</event>
<event>
12    3  0.1176505E-007  0.6038749E+03  0.7818608E-02  0.9897399E-01
          1   -1    0    0  501    0  0.00000000000E+00  0.00000000000E+00  0.14942392440E+04  0.14942392440E+04  0.00000000000E+00 0. -1.
         -2   -1    0    0    0  501 -0.00000000000E+00 -0.00000000000E+00 -0.33804952518E+03  0.33804952518E+03  0.00000000000E+00 0.  1.
        -24    2    1    2    0    0 -0.31865443700E+03 -0.44921824761E+03  0.23877732450E+03  0.60545429133E+03  0.78883483629E+02 0.  0.
    5000000    2    1    2    0    0  0.31865443700E+03  0.44921824761E+03  0.91741239429E+03  0.12268344778E+04  0.60011636417E+03 0.  0.
        -24    2    4    4    0    0  0.26983110220E+03  0.48398454529E+03  0.37239775652E+03  0.67272255321E+03  0.82617678169E+02 0.  0.
         24    2    4    4    0    0  0.48823334800E+02 -0.34766297674E+02  0.54501463777E+03  0.55411192460E+03  0.80041589973E+02 0.  0.
         11    1    5    5    0    0  0.27345377092E+02  0.31457209970E+02  0.62853307174E+01  0.42152474300E+02  0.00000000000E+00 0. -1.
        -12    1    5    5    0    0  0.24248572511E+03  0.45252733532E+03  0.36611242580E+03  0.63057007891E+03  0.00000000000E+00 0.  1.
         15    1    3    3    0    0 -0.27157399279E+03 -0.32589479477E+03  0.18817967949E+03  0.46408469089E+03  0.17770000000E+01 0. -1.
        -16    1    3    3    0    0 -0.47080444211E+02 -0.12332345285E+03  0.50597645002E+02  0.14136960044E+03  0.00000000000E+00 0.  1.
          2    1    6    6  502    0 -0.19137057512E+02  0.18840304077E+01  0.60472077960E+02  0.63455880371E+02  0.00000000000E+00 0. -1.
         -3    1    6    6    0  502  0.67960392312E+02 -0.36650328081E+02  0.48454255981E+03  0.49065604423E+03  0.00000000000E+00 0.  1.
<mgrwt>
<rscale>  0 0.60387491E+03</rscale>
<asrwt>0</asrwt>
<pdfrwt beam="1">  1        1 0.22988296E+00 0.60387491E+03</pdfrwt>
<pdfrwt beam="2">  1       -2 0.52007620E-01 0.60387491E+03</pdfrwt>
<totfact> 0.21248638E+01</totfact>
</mgrwt>
</event>
<event>
12    3  0.1176505E-007  0.8645815E+03  0.7818608E-02  0.9470973E-01
          1   -1    0    0  501    0  0.00000000000E+00  0.00000000000E+00  0.18950620459E+04  0.18950620459E+04  0.00000000000E+00 0. -1.
         -2   -1    0    0    0  501 -0.00000000000E+00 -0.00000000000E+00 -0.49881119365E+03  0.49881119365E+03  0.00000000000E+00 0.  1.
        -24    2    1    2    0    0 -0.11946198099E+03  0.78120184236E+03  0.16221594927E+03  0.81043050228E+03  0.77046099291E+02 0.  0.
    5000000    2    1    2    0    0  0.11946198099E+03 -0.78120184236E+03  0.12340349030E+04  0.15834427373E+04  0.59991772520E+03 0.  0.
        -24    2    4    4    0    0  0.30819230801E+03 -0.46421321068E+03  0.47995421019E+03  0.73979163481E+03  0.80369243901E+02 0.  0.
         24    2    4    4    0    0 -0.18873032702E+03 -0.31698863168E+03  0.75408069280E+03  0.84365110246E+03  0.83717157641E+02 0.  0.
         11    1    5    5    0    0  0.25010877654E+02 -0.61288296267E+02  0.89423402826E+02  0.11125800750E+03  0.00000000000E+00 0. -1.
        -12    1    5    5    0    0  0.28318143035E+03 -0.40292491442E+03  0.39053080737E+03  0.62853362731E+03  0.00000000000E+00 0.  1.
         15    1    3    3    0    0 -0.90024864909E+02  0.33730439307E+03  0.75447641850E+02  0.35717535508E+03  0.17770000000E+01 0. -1.
        -16    1    3    3    0    0 -0.29437116080E+02  0.44389744930E+03  0.86768307421E+02  0.45325514720E+03  0.00000000000E+00 0.  1.
          4    1    6    6  502    0 -0.39250065868E+02 -0.13709252682E+03  0.24657061347E+03  0.28483678837E+03  0.00000000000E+00 0. -1.
         -3    1    6    6    0  502 -0.14948026115E+03 -0.17989610486E+03  0.50751007933E+03  0.55881431409E+03  0.00000000000E+00 0.  1.
<mgrwt>
<rscale>  0 0.86458148E+03</rscale>
<asrwt>0</asrwt>
<pdfrwt beam="1">  1        1 0.29154800E+00 0.86458148E+03</pdfrwt>
<pdfrwt beam="2">  1       -2 0.76740184E-01 0.86458148E+03</pdfrwt>
<totfact> 0.47877423E+00</totfact>
</mgrwt>
</event>
<event>
12    3  0.1176505E-007  0.1514118E+04  0.7818608E-02  0.8875118E-01
         -2   -1    0    0    0  501 -0.00000000000E+00  0.00000000000E+00  0.17158368081E+04  0.17158368081E+04  0.00000000000E+00 0.  1.
          1   -1    0    0  501    0  0.00000000000E+00 -0.00000000000E+00 -0.15274560387E+04  0.15274560387E+04  0.00000000000E+00 0. -1.
        -24    2    1    2    0    0 -0.36066354984E+03 -0.14603594164E+04 -0.33170882777E+03  0.15423544782E+04  0.78094614048E+02 0.  0.
    5000000    2    1    2    0    0  0.36066354984E+03  0.14603594164E+04  0.52008959719E+03  0.17009383685E+04  0.59997526868E+03 0.  0.
        -24    2    4    4    0    0  0.45552486368E+02  0.60878119439E+03  0.49307615975E+03  0.78895313232E+03  0.81445527952E+02 0.  0.
         24    2    4    4    0    0  0.31511106347E+03  0.85157822203E+03  0.27013437438E+02  0.91198523618E+03  0.80665324992E+02 0.  0.
         13    1    5    5    0    0 -0.45475893567E+01  0.38340921667E+03  0.28007280673E+03  0.47483058565E+03  0.00000000000E+00 0. -1.
        -14    1    5    5    0    0  0.50100075725E+02  0.22537197772E+03  0.21300335302E+03  0.31412254667E+03  0.00000000000E+00 0.  1.
         15    1    3    3    0    0 -0.14957483764E+03 -0.69490335260E+03 -0.19004405251E+03  0.73578747008E+03  0.17770000000E+01 0. -1.
        -16    1    3    3    0    0 -0.21108871220E+03 -0.76545606383E+03 -0.14166477526E+03  0.80656700814E+03  0.00000000000E+00 0.  1.
          2    1    6    6  502    0  0.47885897461E+02  0.18067735300E+03 -0.21764433514E+02  0.18817825493E+03  0.00000000000E+00 0. -1.
         -1    1    6    6    0  502  0.26722516601E+03  0.67090086903E+03  0.48777870952E+02  0.72380698125E+03  0.00000000000E+00 0.  1.
<mgrwt>
<rscale>  0 0.15141181E+04</rscale>
<asrwt>0</asrwt>
<pdfrwt beam="1">  1        1 0.23499324E+00 0.15141181E+04</pdfrwt>
<pdfrwt beam="2">  1       -2 0.26397489E+00 0.15141181E+04</pdfrwt>
<totfact> 0.27245932E-01</totfact>
</mgrwt>
</event>
<event>
12    3  0.1176505E-007  0.4650065E+03  0.7818608E-02  0.1023339E+00
         -2   -1    0    0    0  501 -0.00000000000E+00  0.00000000000E+00  0.16014009892E+03  0.16014009892E+03  0.00000000000E+00 0.  1.
          1   -1    0    0  501    0  0.00000000000E+00 -0.00000000000E+00 -0.15460534764E+04  0.15460534764E+04  0.00000000000E+00 0. -1.
        -24    2    1    2    0    0 -0.44429608120E+02 -0.30635787528E+03 -0.48077219964E+03  0.57707887911E+03  0.77775233471E+02 0.  0.
    5000000    2    1    2    0    0  0.44429608120E+02  0.30635787528E+03 -0.90514117782E+03  0.11291146962E+04  0.59982523085E+03 0.  0.
        -24    2    4    4    0    0 -0.22480944889E+03  0.21457860502E+03 -0.23950887551E+03  0.40086248208E+03  0.82115540869E+02 0.  0.
         24    2    4    4    0    0  0.26923905701E+03  0.91779270266E+02 -0.66563230231E+03  0.72825221412E+03  0.79823688349E+02 0.  0.
         13    1    5    5    0    0 -0.62585043816E+02  0.10976034239E+03 -0.73443538165E+02  0.14614435935E+03  0.00000000000E+00 0. -1.
        -14    1    5    5    0    0 -0.16222440507E+03  0.10481826262E+03 -0.16606533735E+03  0.25471812273E+03  0.00000000000E+00 0.  1.
         15    1    3    3    0    0 -0.59902620240E+02 -0.15876330594E+03 -0.23267786454E+03  0.28798655802E+03  0.17770000000E+01 0. -1.
        -16    1    3    3    0    0  0.15473012120E+02 -0.14759456934E+03 -0.24809433510E+03  0.28909232109E+03  0.00000000000E+00 0.  1.
          4    1    6    6  502    0  0.24751034730E+03  0.61298219814E+02 -0.54025859424E+03  0.59740956841E+03  0.00000000000E+00 0. -1.
         -3    1    6    6    0  502  0.21728709712E+02  0.30481050452E+02 -0.12537370807E+03  0.13084264571E+03  0.00000000000E+00 0.  1.
<mgrwt>
<rscale>  0 0.46500650E+03</rscale>
<asrwt>0</asrwt>
<pdfrwt beam="1">  1        1 0.23785438E+00 0.46500650E+03</pdfrwt>
<pdfrwt beam="2">  1       -2 0.24636938E-01 0.46500650E+03</pdfrwt>
<totfact> 0.83150171E+01</totfact>
</mgrwt>
</event>
<event>
12    3  0.1176505E-007  0.1112967E+04  0.7818608E-02  0.9192644E-01
         -2   -1    0    0    0  501 -0.00000000000E+00  0.00000000000E+00  0.21245777471E+04  0.21245777471E+04  0.00000000000E+00 0.  1.
          1   -1    0    0  501    0  0.00000000000E+00 -0.00000000000E+00 -0.72866248518E+03  0.72866248518E+03  0.00000000000E+00 0. -1.
        -24    2    1    2    0    0 -0.10321271327E+04 -0.66540461429E+02  0.12865229241E+04  0.16526540350E+04  0.80062938397E+02 0.  0.
    5000000    2    1    2    0    0  0.10321271327E+04  0.66540461429E+02  0.10939233782E+03  0.12005861973E+04  0.59977202541E+03 0.  0.
        -24    2    4    4    0    0  0.29709907625E+03 -0.24611284815E+03  0.29871628668E+02  0.39389373781E+03  0.73624502390E+02 0.  0.
         24    2    4    4    0    0  0.73502805644E+03  0.31265330958E+03  0.79520709151E+02  0.80669245946E+03  0.80067753994E+02 0.  0.
         13    1    5    5    0    0  0.17599143802E+03 -0.11567175654E+03 -0.12340401151E+02  0.21096261995E+03  0.00000000000E+00 0. -1.
        -14    1    5    5    0    0  0.12110763824E+03 -0.13044109161E+03  0.42212029819E+02  0.18293111786E+03  0.00000000000E+00 0.  1.
         15    1    3    3    0    0 -0.63078240129E+03 -0.26034296746E+02  0.72656618055E+03  0.96253093189E+03  0.17770000000E+01 0. -1.
        -16    1    3    3    0    0 -0.40134473140E+03 -0.40506164684E+02  0.55995674354E+03  0.69012310310E+03  0.00000000000E+00 0.  1.
          2    1    6    6  502    0  0.62397797558E+03  0.23339018202E+03  0.60546586156E+02  0.66894348055E+03  0.00000000000E+00 0. -1.
         -1    1    6    6    0  502  0.11105008086E+03  0.79263127557E+02  0.18974122995E+02  0.13774897891E+03  0.00000000000E+00 0.  1.
<mgrwt>
<rscale>  0 0.11129674E+04</rscale>
<asrwt>0</asrwt>
<pdfrwt beam="1">  1        1 0.11210192E+00 0.11129674E+04</pdfrwt>
<pdfrwt beam="2">  1       -2 0.32685811E+00 0.11129674E+04</pdfrwt>
<totfact> 0.48608250E-01</totfact>
</mgrwt>
</event>
<event>
12    3  0.1176505E-007  0.3299303E+03  0.7818608E-02  0.1071168E+00
          1   -1    0    0  501    0  0.00000000000E+00  0.00000000000E+00  0.19665937614E+04  0.19665937614E+04  0.00000000000E+00 0. -1.
         -2   -1    0    0    0  501 -0.00000000000E+00 -0.00000000000E+00 -0.15861999058E+03  0.15861999058E+03  0.00000000000E+00 0.  1.
        -24    2    1    2    0    0  0.40126531769E+02  0.24678054961E+03  0.12227928443E+04  0.12506391508E+04  0.79781998802E+02 0.  0.
    5000000    2    1    2    0    0 -0.40126531769E+02 -0.24678054961E+03  0.58518092651E+03  0.87457460114E+03  0.59994436241E+03 0.  0.
        -24    2    4    4    0    0  0.96911867595E+02 -0.20428554542E+03  0.65338082901E+03  0.69609000246E+03  0.80686366051E+02 0.  0.
         24    2    4    4    0    0 -0.13703839936E+03 -0.42495004185E+02 -0.68199902496E+02  0.17848459867E+03  0.81364470019E+02 0.  0.
         13    1    5    5    0    0  0.28959531553E+02 -0.15040081114E+03  0.40391228740E+03  0.43197707621E+03  0.00000000000E+00 0. -1.
        -14    1    5    5    0    0  0.67952336042E+02 -0.53884734286E+02  0.24946854160E+03  0.26411292625E+03  0.00000000000E+00 0.  1.
         15    1    3    3    0    0 -0.18082244245E+02  0.36285428295E+02  0.27713129710E+03  0.28008661772E+03  0.17770000000E+01 0. -1.
        -16    1    3    3    0    0  0.58208776015E+02  0.21049512131E+03  0.94566154718E+03  0.97055253311E+03  0.00000000000E+00 0.  1.
          2    1    6    6  502    0 -0.95086450577E+02  0.79139106127E+01 -0.21042224646E+02  0.97707923336E+02  0.00000000000E+00 0. -1.
         -1    1    6    6    0  502 -0.41951948787E+02 -0.50408914797E+02 -0.47157677850E+02  0.80776675336E+02  0.00000000000E+00 0.  1.
<mgrwt>
<rscale>  0 0.32993027E+03</rscale>
<asrwt>0</asrwt>
<pdfrwt beam="1">  1        1 0.30255287E+00 0.32993027E+03</pdfrwt>
<pdfrwt beam="2">  1       -2 0.24403077E-01 0.32993027E+03</pdfrwt>
<totfact> 0.45855370E+01</totfact>
</mgrwt>
</event>
<event>
12    3  0.1176505E-007  0.4387339E+03  0.7818608E-02  0.1031136E+00
         -2   -1    0    0    0  501 -0.00000000000E+00  0.00000000000E+00  0.12578141015E+03  0.12578141015E+03  0.00000000000E+00 0.  1.
          1   -1    0    0  501    0  0.00000000000E+00 -0.00000000000E+00 -0.18064780732E+04  0.18064780732E+04  0.00000000000E+00 0. -1.
        -24    2    1    2    0    0  0.26828845139E+03  0.55833798091E+02 -0.61904692766E+03  0.68238058433E+03  0.85604071520E+02 0.  0.
    5000000    2    1    2    0    0 -0.26828845139E+03 -0.55833798091E+02 -0.10616497354E+04  0.12498788990E+04  0.60000082949E+03 0.  0.
        -24    2    4    4    0    0 -0.31782607219E+03  0.16146100238E+03 -0.37559923102E+03  0.52420463513E+03  0.81441081149E+02 0.  0.
         24    2    4    4    0    0  0.49537620797E+02 -0.21729480047E+03 -0.68605050435E+03  0.72567426387E+03  0.79163353487E+02 0.  0.
         13    1    5    5    0    0 -0.28182213361E+03  0.16503267891E+03 -0.35579209191E+03  0.48295705064E+03  0.00000000000E+00 0. -1.
        -14    1    5    5    0    0 -0.36003938582E+02 -0.35716765314E+01 -0.19807139116E+02  0.41247584495E+02  0.00000000000E+00 0.  1.
         15    1    3    3    0    0  0.11490791868E+03  0.48710984751E+02 -0.36258023669E+03  0.38346339536E+03  0.17770000000E+01 0. -1.
        -16    1    3    3    0    0  0.15338053271E+03  0.71228133401E+01 -0.25646669097E+03  0.29891718897E+03  0.00000000000E+00 0.  1.
          2    1    6    6  502    0  0.59883452404E+02 -0.86927345094E+02 -0.29252148069E+03  0.31098425662E+03  0.00000000000E+00 0. -1.
         -1    1    6    6    0  502 -0.10345831607E+02 -0.13036745537E+03 -0.39352902366E+03  0.41469000725E+03  0.00000000000E+00 0.  1.
<mgrwt>
<rscale>  0 0.43873393E+03</rscale>
<asrwt>0</asrwt>
<pdfrwt beam="1">  1        1 0.27791969E+00 0.43873393E+03</pdfrwt>
<pdfrwt beam="2">  1       -2 0.19350987E-01 0.43873393E+03</pdfrwt>
<totfact> 0.85624758E+01</totfact>
</mgrwt>
</event>
<event>
12    3  0.1176505E-007  0.3060314E+03  0.7818608E-02  0.1082264E+00
          1   -1    0    0  501    0  0.00000000000E+00  0.00000000000E+00  0.65624573928E+03  0.65624573928E+03  0.00000000000E+00 0. -1.
         -2   -1    0    0    0  501 -0.00000000000E+00 -0.00000000000E+00 -0.93075951440E+03  0.93075951440E+03  0.00000000000E+00 0.  1.
        -24    2    1    2    0    0 -0.28948326696E+03  0.22847721631E+02 -0.72342773036E+03  0.78343977106E+03  0.78151222516E+02 0.  0.
    5000000    2    1    2    0    0  0.28948326696E+03 -0.22847721631E+02  0.44891395524E+03  0.80356548263E+03  0.59989262825E+03 0.  0.
        -24    2    4    4    0    0  0.12960240156E+03 -0.37181051691E+02 -0.12620024131E+03  0.20126261607E+03  0.80005791203E+02 0.  0.
         24    2    4    4    0    0  0.15988086541E+03  0.14333330060E+02  0.57511419655E+03  0.60230286656E+03  0.79025745967E+02 0.  0.
         11    1    5    5    0    0  0.93560443630E+01  0.16185826596E+02  0.37856007159E+00  0.18699194005E+02  0.00000000000E+00 0. -1.
        -12    1    5    5    0    0  0.12024635719E+03 -0.53366878286E+02 -0.12657880138E+03  0.18256342206E+03  0.00000000000E+00 0.  1.
         15    1    3    3    0    0 -0.91128262298E+02  0.43985463114E+02 -0.24909321634E+03  0.26886738239E+03  0.17770000000E+01 0. -1.
        -16    1    3    3    0    0 -0.19835500467E+03 -0.21137741483E+02 -0.47433451402E+03  0.51457238867E+03  0.00000000000E+00 0.  1.
          4    1    6    6  502    0  0.32642541809E+01  0.24121855875E+01 -0.17627294310E+01  0.44250660688E+01  0.00000000000E+00 0. -1.
         -3    1    6    6    0  502  0.15661661123E+03  0.11921144472E+02  0.57687692598E+03  0.59787780049E+03  0.00000000000E+00 0.  1.
<mgrwt>
<rscale>  0 0.30603138E+03</rscale>
<asrwt>0</asrwt>
<pdfrwt beam="1">  1        1 0.10096088E+00 0.30603138E+03</pdfrwt>
<pdfrwt beam="2">  1       -2 0.14319377E+00 0.30603138E+03</pdfrwt>
<totfact> 0.97883721E+00</totfact>
</mgrwt>
</event>
<event>
12    3  0.1357279E-007  0.1162783E+04  0.7818608E-02  0.9146071E-01
         -2   -1    0    0    0  501 -0.00000000000E+00  0.00000000000E+00  0.66189193162E+03  0.66189193162E+03  0.00000000000E+00 0.  1.
          1   -1    0    0  501    0  0.00000000000E+00 -0.00000000000E+00 -0.22379922485E+04  0.22379922485E+04  0.00000000000E+00 0. -1.
        -24    2    1    2    0    0 -0.42997138869E+03 -0.99778639473E+03 -0.11586054580E+04  0.15903674064E+04  0.80304392457E+02 0.  0.
    5000000    2    1    2    0    0  0.42997138869E+03  0.99778639473E+03 -0.41749485887E+03  0.13095167737E+04  0.60006594540E+03 0.  0.
        -24    2    4    4    0    0 -0.56183967720E+02  0.58836480666E+03 -0.14657229942E+03  0.61396359563E+03  0.78345860483E+02 0.  0.
         24    2    4    4    0    0  0.48615535641E+03  0.40942158808E+03 -0.27092255946E+03  0.69555317809E+03  0.80138149278E+02 0.  0.
         11    1    5    5    0    0 -0.31596947583E+01  0.40764523862E+03 -0.10791735242E+03  0.42169986862E+03  0.00000000000E+00 0. -1.
        -12    1    5    5    0    0 -0.53024272962E+02  0.18071956804E+03 -0.38654946996E+02  0.19226372701E+03  0.00000000000E+00 0.  1.
         15    1    3    3    0    0 -0.17086272461E+03 -0.30404099842E+03 -0.35954531498E+03  0.50091016224E+03  0.17770000000E+01 0. -1.
        -16    1    3    3    0    0 -0.25910866408E+03 -0.69374539631E+03 -0.79906014303E+03  0.10894572442E+04  0.00000000000E+00 0.  1.
          2    1    6    6  502    0  0.40729516739E+03  0.37697186179E+03 -0.24276554267E+03  0.60574932659E+03  0.00000000000E+00 0. -1.
         -1    1    6    6    0  502  0.78860189017E+02  0.32449726290E+02 -0.28157016791E+02  0.89803851491E+02  0.00000000000E+00 0.  1.
<mgrwt>
<rscale>  0 0.11627831E+04</rscale>
<asrwt>0</asrwt>
<pdfrwt beam="1">  1        1 0.34430650E+00 0.11627831E+04</pdfrwt>
<pdfrwt beam="2">  1       -2 0.10182953E+00 0.11627831E+04</pdfrwt>
<totfact> 0.14082487E+00</totfact>
</mgrwt>
</event>
<event>
12    3  0.1176505E-007  0.9760185E+03  0.7818608E-02  0.9335246E-01
          1   -1    0    0  501    0  0.00000000000E+00  0.00000000000E+00  0.16887982432E+04  0.16887982432E+04  0.00000000000E+00 0. -1.
         -2   -1    0    0    0  501 -0.00000000000E+00 -0.00000000000E+00 -0.76774049519E+03  0.76774049519E+03  0.00000000000E+00 0.  1.
        -24    2    1    2    0    0  0.60205148255E+03  0.68457774441E+03  0.10082656423E+04  0.13616739562E+04  0.80272547802E+02 0.  0.
    5000000    2    1    2    0    0 -0.60205148255E+03 -0.68457774441E+03 -0.87207894318E+02  0.10948647821E+04  0.60000916533E+03 0.  0.
        -24    2    4    4    0    0 -0.41318186370E+03 -0.72653219328E+03  0.57125470399E+02  0.84175262150E+03  0.81950448885E+02 0.  0.
         24    2    4    4    0    0 -0.18886961885E+03  0.41954448871E+02 -0.14433336472E+03  0.25311216060E+03  0.76169133976E+02 0.  0.
         11    1    5    5    0    0 -0.10887860482E+03 -0.26975930271E+03  0.24320424128E+02  0.29191799365E+03  0.00000000000E+00 0. -1.
        -12    1    5    5    0    0 -0.30430325888E+03 -0.45677289057E+03  0.32805046270E+02  0.54983462785E+03  0.00000000000E+00 0.  1.
         15    1    3    3    0    0  0.16163542471E+03  0.18098987903E+03  0.21746113537E+03  0.32584635944E+03  0.17770000000E+01 0. -1.
        -16    1    3    3    0    0  0.44041605784E+03  0.50358786538E+03  0.79080450692E+03  0.10358275968E+04  0.00000000000E+00 0.  1.
          4    1    6    6  502    0 -0.29084548063E+02  0.27740685666E+02 -0.59062053251E+02  0.71440763654E+02  0.00000000000E+00 0. -1.
         -3    1    6    6    0  502 -0.15978507078E+03  0.14213763204E+02 -0.85271311465E+02  0.18167139695E+03  0.00000000000E+00 0.  1.
<mgrwt>
<rscale>  0 0.97601848E+03</rscale>
<asrwt>0</asrwt>
<pdfrwt beam="1">  1        1 0.25981511E+00 0.97601848E+03</pdfrwt>
<pdfrwt beam="2">  1       -2 0.11811392E+00 0.97601848E+03</pdfrwt>
<totfact> 0.23606309E+00</totfact>
</mgrwt>
</event>
<event>
12    3  0.1176505E-007  0.3278771E+03  0.7818608E-02  0.1072080E+00
         -2   -1    0    0    0  501 -0.00000000000E+00  0.00000000000E+00  0.16496764661E+03  0.16496764661E+03  0.00000000000E+00 0.  1.
          1   -1    0    0  501    0  0.00000000000E+00 -0.00000000000E+00 -0.10474506365E+04  0.10474506365E+04  0.00000000000E+00 0. -1.
        -24    2    1    2    0    0  0.35021569334E+02 -0.90988045633E+01  0.52086823842E+02  0.10134580368E+03  0.79048315245E+02 0.  0.
    5000000    2    1    2    0    0 -0.35021569334E+02  0.90988045633E+01 -0.93456981369E+03  0.11110724794E+04  0.59979331377E+03 0.  0.
        -24    2    4    4    0    0  0.20271170042E+03  0.18876043360E+03 -0.39408137470E+03  0.48827401287E+03  0.79930263274E+02 0.  0.
         24    2    4    4    0    0 -0.23773326976E+03 -0.17966162903E+03 -0.54048843899E+03  0.62279846651E+03  0.83395255940E+02 0.  0.
         11    1    5    5    0    0  0.13028864426E+03  0.90863657598E+02 -0.16621708821E+03  0.22991184291E+03  0.00000000000E+00 0. -1.
        -12    1    5    5    0    0  0.72423056159E+02  0.97896775998E+02 -0.22786428649E+03  0.25836216997E+03  0.00000000000E+00 0.  1.
         15    1    3    3    0    0  0.42238731267E+02  0.18859417449E+02  0.56112174231E+01  0.46630800289E+02  0.17770000000E+01 0. -1.
        -16    1    3    3    0    0 -0.72171619334E+01 -0.27958222012E+02  0.46475606419E+02  0.54715003395E+02  0.00000000000E+00 0.  1.
          4    1    6    6  502    0 -0.75034784082E+02 -0.77411274997E+02 -0.12529264836E+03  0.16529056855E+03  0.00000000000E+00 0. -1.
         -3    1    6    6    0  502 -0.16269848567E+03 -0.10225035404E+03 -0.41519579063E+03  0.45750789796E+03  0.00000000000E+00 0.  1.
<mgrwt>
<rscale>  0 0.32787713E+03</rscale>
<asrwt>0</asrwt>
<pdfrwt beam="1">  1        1 0.16114625E+00 0.32787713E+03</pdfrwt>
<pdfrwt beam="2">  1       -2 0.25379638E-01 0.32787713E+03</pdfrwt>
<totfact> 0.17933458E+02</totfact>
</mgrwt>
</event>
<event>
12    3  0.1176505E-007  0.4208309E+03  0.7818608E-02  0.1036796E+00
          1   -1    0    0  501    0  0.00000000000E+00  0.00000000000E+00  0.18637958347E+03  0.18637958347E+03  0.00000000000E+00 0. -1.
         -2   -1    0    0    0  501 -0.00000000000E+00 -0.00000000000E+00 -0.17170716770E+04  0.17170716770E+04  0.00000000000E+00 0.  1.
        -24    2    1    2    0    0  0.14158170424E+03 -0.26804251088E+03 -0.11178093034E+03  0.33337083449E+03  0.82152116766E+02 0.  0.
    5000000    2    1    2    0    0 -0.14158170424E+03  0.26804251088E+03 -0.14189111632E+04  0.15700804260E+04  0.59995957233E+03 0.  0.
        -24    2    4    4    0    0  0.76210561559E+02  0.29186130671E+03 -0.12291989342E+04  0.12681720852E+04  0.79620009867E+02 0.  0.
         24    2    4    4    0    0 -0.21779226580E+03 -0.23818795832E+02 -0.18971222906E+03  0.30190834078E+03  0.84599706284E+02 0.  0.
         13    1    5    5    0    0  0.13574100632E+02  0.15280382646E+03 -0.74068681821E+03  0.75640612654E+03  0.00000000000E+00 0. -1.
        -14    1    5    5    0    0  0.62636460927E+02  0.13905748025E+03 -0.48851211596E+03  0.51176595870E+03  0.00000000000E+00 0.  1.
         15    1    3    3    0    0  0.48928740567E+02 -0.69907309376E+02 -0.70679331055E+02  0.11081416482E+03  0.17770000000E+01 0. -1.
        -16    1    3    3    0    0  0.92652963669E+02 -0.19813520150E+03 -0.41101599290E+02  0.22255666967E+03  0.00000000000E+00 0.  1.
          2    1    6    6  502    0 -0.12416996078E+03 -0.50913735495E+02 -0.85001660451E+02  0.15885738857E+03  0.00000000000E+00 0. -1.
         -3    1    6    6    0  502 -0.93622305014E+02  0.27094939663E+02 -0.10471056861E+03  0.14305095221E+03  0.00000000000E+00 0.  1.
<mgrwt>
<rscale>  0 0.42083094E+03</rscale>
<asrwt>0</asrwt>
<pdfrwt beam="1">  1        1 0.28673783E-01 0.42083094E+03</pdfrwt>
<pdfrwt beam="2">  1       -2 0.26416487E+00 0.42083094E+03</pdfrwt>
<totfact> 0.81051855E+00</totfact>
</mgrwt>
</event>
<event>
12    3  0.1176505E-007  0.1843851E+04  0.7818608E-02  0.8683322E-01
          1   -1    0    0  501    0  0.00000000000E+00  0.00000000000E+00  0.15319468191E+04  0.15319468191E+04  0.00000000000E+00 0. -1.
         -2   -1    0    0    0  501 -0.00000000000E+00 -0.00000000000E+00 -0.23325332304E+04  0.23325332304E+04  0.00000000000E+00 0.  1.
        -24    2    1    2    0    0  0.14959298222E+04  0.10697871559E+04 -0.28825708927E+03  0.18633050702E+04  0.81012611927E+02 0.  0.
    5000000    2    1    2    0    0 -0.14959298222E+04 -0.10697871559E+04 -0.51232932198E+03  0.20011749793E+04  0.59997447611E+03 0.  0.
        -24    2    4    4    0    0 -0.59727010537E+03 -0.34856753364E+03 -0.48015950804E+03  0.84564377678E+03  0.79557147797E+02 0.  0.
         24    2    4    4    0    0 -0.89865971678E+03 -0.72121962226E+03 -0.32169813944E+02  0.11555312025E+04  0.80439001933E+02 0.  0.
         11    1    5    5    0    0 -0.44160225499E+03 -0.27486384654E+03 -0.32166130716E+03  0.61157884387E+03  0.00000000000E+00 0. -1.
        -12    1    5    5    0    0 -0.15566785038E+03 -0.73703687095E+02 -0.15849820088E+03  0.23406493290E+03  0.00000000000E+00 0.  1.
         15    1    3    3    0    0  0.86160910103E+03  0.57065794409E+03 -0.17766838705E+03  0.10486133442E+04  0.17770000000E+01 0. -1.
        -16    1    3    3    0    0  0.63432072112E+03  0.49912921181E+03 -0.11058870223E+03  0.81469172598E+03  0.00000000000E+00 0.  1.
          4    1    6    6  502    0 -0.82649617931E+03 -0.63496207137E+03 -0.20280127642E+02  0.10424413893E+04  0.00000000000E+00 0. -1.
         -3    1    6    6    0  502 -0.72163537470E+02 -0.86257550890E+02 -0.11889686302E+02  0.11308981327E+03  0.00000000000E+00 0.  1.
<mgrwt>
<rscale>  0 0.18438507E+04</rscale>
<asrwt>0</asrwt>
<pdfrwt beam="1">  1        1 0.23568413E+00 0.18438507E+04</pdfrwt>
<pdfrwt beam="2">  1       -2 0.35885126E+00 0.18438507E+04</pdfrwt>
<totfact> 0.67707948E-02</totfact>
</mgrwt>
</event>
<event>
12    3  0.1176505E-007  0.6862286E+03  0.7818608E-02  0.9741077E-01
         -2   -1    0    0    0  501 -0.00000000000E+00  0.00000000000E+00  0.72026545360E+03  0.72026545360E+03  0.00000000000E+00 0.  1.
          1   -1    0    0  501    0  0.00000000000E+00 -0.00000000000E+00 -0.67708561347E+03  0.67708561347E+03  0.00000000000E+00 0. -1.
        -24    2    1    2    0    0 -0.13487706710E+03  0.54036246357E+03 -0.83214239164E+02  0.56885804634E+03  0.80569547736E+02 0.  0.
    5000000    2    1    2    0    0  0.13487706710E+03 -0.54036246357E+03  0.12639407930E+03  0.82849302073E+03  0.60020147189E+03 0.  0.
        -24    2    4    4    0    0  0.21297398564E+03  0.30749063266E+02 -0.14388783422E+02  0.22979462092E+03  0.79341712020E+02 0.  0.
         24    2    4    4    0    0 -0.78096918533E+02 -0.57111152684E+03  0.14078286272E+03  0.59869839981E+03  0.79702288113E+02 0.  0.
         11    1    5    5    0    0  0.11768001858E+03 -0.22606017586E+02 -0.16776556423E+01  0.11984337000E+03  0.00000000000E+00 0. -1.
        -12    1    5    5    0    0  0.95293967057E+02  0.53355080852E+02 -0.12711127780E+02  0.10995125092E+03  0.00000000000E+00 0.  1.
         15    1    3    3    0    0 -0.10554829552E+03  0.27557408815E+03 -0.24953902173E+02  0.29615431064E+03  0.17770000000E+01 0. -1.
        -16    1    3    3    0    0 -0.29328771581E+02  0.26478837542E+03 -0.58260336991E+02  0.27270373570E+03  0.00000000000E+00 0.  1.
          4    1    6    6  502    0  0.93408804694E+01 -0.21539160789E+03  0.50653489802E+02  0.22146460852E+03  0.00000000000E+00 0. -1.
         -3    1    6    6    0  502 -0.87437799003E+02 -0.35571991895E+03  0.90129372919E+02  0.37723379129E+03  0.00000000000E+00 0.  1.
<mgrwt>
<rscale>  0 0.68622860E+03</rscale>
<asrwt>0</asrwt>
<pdfrwt beam="1">  1        1 0.10416702E+00 0.68622860E+03</pdfrwt>
<pdfrwt beam="2">  1       -2 0.11081007E+00 0.68622860E+03</pdfrwt>
<totfact> 0.16625147E+01</totfact>
</mgrwt>
</event>
<event>
12    3  0.1176505E-007  0.9112053E+03  0.7818608E-02  0.9411682E-01
         -2   -1    0    0    0  501 -0.00000000000E+00  0.00000000000E+00  0.41256266956E+03  0.41256266956E+03  0.00000000000E+00 0.  1.
          1   -1    0    0  501    0  0.00000000000E+00 -0.00000000000E+00 -0.24354338469E+04  0.24354338469E+04  0.00000000000E+00 0. -1.
        -24    2    1    2    0    0  0.24431181345E+03 -0.86936818806E+03 -0.75523012694E+03  0.11799741288E+04  0.80480378618E+02 0.  0.
    5000000    2    1    2    0    0 -0.24431181345E+03  0.86936818806E+03 -0.12676410504E+04  0.16680223877E+04  0.59991294748E+03 0.  0.
        -24    2    4    4    0    0 -0.16078380714E+03  0.66234830503E+03 -0.12546862841E+04  0.14302669262E+04  0.82880027758E+02 0.  0.
         24    2    4    4    0    0 -0.83528006308E+02  0.20701988304E+03 -0.12954766296E+02  0.23775546143E+03  0.80781641860E+02 0.  0.
         13    1    5    5    0    0  0.53253535311E+01  0.65349423520E+02 -0.95483214335E+02  0.11582724535E+03  0.00000000000E+00 0. -1.
        -14    1    5    5    0    0 -0.16610916067E+03  0.59699888151E+03 -0.11592030698E+04  0.13144396809E+04  0.00000000000E+00 0.  1.
         15    1    3    3    0    0  0.12174944226E+03 -0.48329804630E+03 -0.46535423582E+03  0.68187803219E+03  0.17770000000E+01 0. -1.
        -16    1    3    3    0    0  0.12256237118E+03 -0.38607014176E+03 -0.28987589112E+03  0.49809609659E+03  0.00000000000E+00 0.  1.
          2    1    6    6  502    0 -0.18892031667E+02  0.13746925312E+03  0.12873752062E+02  0.13935723127E+03  0.00000000000E+00 0. -1.
         -1    1    6    6    0  502 -0.64635974641E+02  0.69550629915E+02 -0.25828518358E+02  0.98398230166E+02  0.00000000000E+00 0.  1.
<mgrwt>
<rscale>  0 0.91120534E+03</rscale>
<asrwt>0</asrwt>
<pdfrwt beam="1">  1        1 0.37468213E+00 0.91120534E+03</pdfrwt>
<pdfrwt beam="2">  1       -2 0.63471181E-01 0.91120534E+03</pdfrwt>
<totfact> 0.31125662E+00</totfact>
</mgrwt>
</event>
<event>
12    3  0.1176505E-007  0.1022458E+04  0.7818608E-02  0.9284251E-01
         -2   -1    0    0    0  501 -0.00000000000E+00  0.00000000000E+00  0.56321491044E+03  0.56321491044E+03  0.00000000000E+00 0.  1.
          1   -1    0    0  501    0  0.00000000000E+00 -0.00000000000E+00 -0.28393750197E+04  0.28393750197E+04  0.00000000000E+00 0. -1.
        -24    2    1    2    0    0  0.73047324099E+03 -0.70407902577E+03 -0.19169502716E+04  0.21704050715E+04  0.81494786959E+02 0.  0.
    5000000    2    1    2    0    0 -0.73047324099E+03  0.70407902577E+03 -0.35920983770E+03  0.12321848587E+04  0.59994115388E+03 0.  0.
        -24    2    4    4    0    0 -0.33061601605E+03  0.40321989404E+03  0.11266589811E+03  0.53988605814E+03  0.83006735643E+02 0.  0.
         24    2    4    4    0    0 -0.39985722494E+03  0.30085913173E+03 -0.47187573581E+03  0.69229880054E+03  0.78796584253E+02 0.  0.
         13    1    5    5    0    0 -0.19227717384E+03  0.29596376034E+03  0.73431110206E+02  0.36049575165E+03  0.00000000000E+00 0. -1.
        -14    1    5    5    0    0 -0.13833884221E+03  0.10725613370E+03  0.39234787907E+02  0.17939030649E+03  0.00000000000E+00 0.  1.
         15    1    3    3    0    0  0.57929007480E+03 -0.52526098356E+03 -0.14208520558E+04  0.16218199080E+04  0.17770000000E+01 0. -1.
        -16    1    3    3    0    0  0.15118316619E+03 -0.17881804221E+03 -0.49609821574E+03  0.54858516351E+03  0.00000000000E+00 0.  1.
          2    1    6    6  502    0 -0.23722850622E+03  0.19063816001E+03 -0.33651671762E+03  0.45372213243E+03  0.00000000000E+00 0. -1.
         -1    1    6    6    0  502 -0.16262871872E+03  0.11022097172E+03 -0.13535901819E+03  0.23857666811E+03  0.00000000000E+00 0.  1.
<mgrwt>
<rscale>  0 0.10224578E+04</rscale>
<asrwt>0</asrwt>
<pdfrwt beam="1">  1        1 0.43682692E+00 0.10224578E+04</pdfrwt>
<pdfrwt beam="2">  1       -2 0.86648448E-01 0.10224578E+04</pdfrwt>
<totfact> 0.80406143E-01</totfact>
</mgrwt>
</event>
<event>
12    3  0.1176505E-007  0.6061200E+03  0.7818608E-02  0.9892790E-01
          1   -1    0    0  501    0  0.00000000000E+00  0.00000000000E+00  0.51420780983E+03  0.51420780983E+03  0.00000000000E+00 0. -1.
         -2   -1    0    0    0  501 -0.00000000000E+00 -0.00000000000E+00 -0.83684497257E+03  0.83684497257E+03  0.00000000000E+00 0.  1.
        -24    2    1    2    0    0 -0.45379694212E+03  0.10987998402E+03  0.99210704325E+02  0.48187642111E+03  0.66006407243E+02 0.  0.
    5000000    2    1    2    0    0  0.45379694212E+03 -0.10987998402E+03 -0.42184786706E+03  0.86917636130E+03  0.59958873283E+03 0.  0.
        -24    2    4    4    0    0  0.23260635144E+03 -0.34512775182E+03 -0.22330825620E+03  0.48030672256E+03  0.87230101674E+02 0.  0.
         24    2    4    4    0    0  0.22119059068E+03  0.23524776781E+03 -0.19853961086E+03  0.38886963874E+03  0.86803393886E+02 0.  0.
         11    1    5    5    0    0  0.87005639641E+02 -0.13408204092E+03 -0.13470981937E+03  0.20903279757E+03  0.00000000000E+00 0. -1.
        -12    1    5    5    0    0  0.14560071180E+03 -0.21104571090E+03 -0.88598436827E+02  0.27127392498E+03  0.00000000000E+00 0.  1.
         15    1    3    3    0    0 -0.13286108317E+03  0.44955928206E+01  0.40796398726E+02  0.13906754349E+03  0.17770000000E+01 0. -1.
        -16    1    3    3    0    0 -0.32093585896E+03  0.10538439119E+03  0.58414305599E+02  0.34280887761E+03  0.00000000000E+00 0.  1.
          4    1    6    6  502    0  0.47990495645E+02  0.76550443368E+02 -0.16880234563E+02  0.91913004363E+02  0.00000000000E+00 0. -1.
         -3    1    6    6    0  502  0.17320009504E+03  0.15869732444E+03 -0.18165937630E+03  0.29695663438E+03  0.00000000000E+00 0.  1.
<mgrwt>
<rscale>  0 0.60612002E+03</rscale>
<asrwt>0</asrwt>
<pdfrwt beam="1">  1        1 0.79108895E-01 0.60612002E+03</pdfrwt>
<pdfrwt beam="2">  1       -2 0.12874538E+00 0.60612002E+03</pdfrwt>
<totfact> 0.17156915E+01</totfact>
</mgrwt>
</event>
<event>
12    3  0.1176505E-007  0.6951668E+03  0.7818608E-02  0.9725533E-01
         -2   -1    0    0    0  501 -0.00000000000E+00  0.00000000000E+00  0.16063697563E+04  0.16063697563E+04  0.00000000000E+00 0.  1.
          1   -1    0    0  501    0  0.00000000000E+00 -0.00000000000E+00 -0.42407659187E+03  0.42407659187E+03  0.00000000000E+00 0. -1.
        -24    2    1    2    0    0  0.29677464924E+03 -0.50668363506E+03  0.15283698600E+02  0.59282913113E+03  0.80058033957E+02 0.  0.
    5000000    2    1    2    0    0 -0.29677464924E+03  0.50668363506E+03  0.11670094659E+04  0.14376172171E+04  0.60002389196E+03 0.  0.
        -24    2    4    4    0    0 -0.22839719895E+03  0.61077229144E+03  0.10848400423E+04  0.12683272845E+04  0.81043881853E+02 0.  0.
         24    2    4    4    0    0 -0.68377450285E+02 -0.10408865637E+03  0.82169423541E+02  0.16928993253E+03  0.79983392022E+02 0.  0.
         11    1    5    5    0    0 -0.15364072503E+03  0.31984719158E+03  0.53940112058E+03  0.64564794372E+03  0.00000000000E+00 0. -1.
        -12    1    5    5    0    0 -0.74756473919E+02  0.29092509986E+03  0.54543892173E+03  0.62267934080E+03  0.00000000000E+00 0.  1.
         15    1    3    3    0    0  0.21182273727E+03 -0.38819129607E+03  0.43375119511E+02  0.44434886417E+03  0.17770000000E+01 0. -1.
        -16    1    3    3    0    0  0.84951911965E+02 -0.11849233900E+03 -0.28091420910E+02  0.14848026696E+03  0.00000000000E+00 0.  1.
          4    1    6    6  502    0 -0.32699869760E+02  0.43057070489E+01  0.10847812840E+02  0.34720248256E+02  0.00000000000E+00 0. -1.
         -3    1    6    6    0  502 -0.35677580525E+02 -0.10839436342E+03  0.71321610700E+02  0.13456968428E+03  0.00000000000E+00 0.  1.
<mgrwt>
<rscale>  0 0.69516683E+03</rscale>
<asrwt>0</asrwt>
<pdfrwt beam="1">  1        1 0.65242553E-01 0.69516683E+03</pdfrwt>
<pdfrwt beam="2">  1       -2 0.24713381E+00 0.69516683E+03</pdfrwt>
<totfact> 0.33815781E+00</totfact>
</mgrwt>
</event>
<event>
12    3  0.1176505E-007  0.5385804E+03  0.7818608E-02  0.1004172E+00
          1   -1    0    0  501    0  0.00000000000E+00  0.00000000000E+00  0.15667537649E+04  0.15667537649E+04  0.00000000000E+00 0. -1.
         -2   -1    0    0    0  501 -0.00000000000E+00 -0.00000000000E+00 -0.36477061323E+03  0.36477061323E+03  0.00000000000E+00 0.  1.
        -24    2    1    2    0    0  0.24424446252E+03  0.29500959392E+03  0.11536590593E+04  0.12181095953E+04  0.78585895742E+02 0.  0.
    5000000    2    1    2    0    0 -0.24424446252E+03 -0.29500959392E+03  0.48324092341E+02  0.71341478283E+03  0.59994951162E+03 0.  0.
        -24    2    4    4    0    0 -0.24995775558E+03 -0.45357567269E+03 -0.20933158722E+02  0.52439725394E+03  0.79652447371E+02 0.  0.
         24    2    4    4    0    0  0.57132930603E+01  0.15856607877E+03  0.69257251063E+02  0.18901752890E+03  0.75863142241E+02 0.  0.
         11    1    5    5    0    0 -0.12049362338E+03 -0.28887161590E+03 -0.31893446392E+02  0.31461518665E+03  0.00000000000E+00 0. -1.
        -12    1    5    5    0    0 -0.12946413220E+03 -0.16470405679E+03  0.10960287670E+02  0.20978206729E+03  0.00000000000E+00 0.  1.
         15    1    3    3    0    0  0.12636570086E+03  0.18131697030E+03  0.76671915981E+03  0.79793831956E+03  0.17770000000E+01 0. -1.
        -16    1    3    3    0    0  0.11787876166E+03  0.11369262361E+03  0.38693989949E+03  0.42017127571E+03  0.00000000000E+00 0.  1.
          2    1    6    6  502    0 -0.27368085765E+02  0.60883065944E+02  0.37865826635E+01  0.66858791834E+02  0.00000000000E+00 0. -1.
         -1    1    6    6    0  502  0.33081378826E+02  0.97683012827E+02  0.65470668399E+02  0.12215873706E+03  0.00000000000E+00 0.  1.
<mgrwt>
<rscale>  0 0.53858042E+03</rscale>
<asrwt>0</asrwt>
<pdfrwt beam="1">  1        1 0.24103904E+00 0.53858042E+03</pdfrwt>
<pdfrwt beam="2">  1       -2 0.56118557E-01 0.53858042E+03</pdfrwt>
<totfact> 0.16400751E+01</totfact>
</mgrwt>
</event>
<event>
12    3  0.1176505E-007  0.6532076E+03  0.7818608E-02  0.9800779E-01
         -2   -1    0    0    0  501 -0.00000000000E+00  0.00000000000E+00  0.24122422881E+03  0.24122422881E+03  0.00000000000E+00 0.  1.
          1   -1    0    0  501    0  0.00000000000E+00 -0.00000000000E+00 -0.20461436806E+04  0.20461436806E+04  0.00000000000E+00 0. -1.
        -24    2    1    2    0    0 -0.55372010497E+03  0.11184055473E+03 -0.87343500377E+03  0.10435487217E+04  0.83611987034E+02 0.  0.
    5000000    2    1    2    0    0  0.55372010497E+03 -0.11184055473E+03 -0.93148444805E+03  0.12438191878E+04  0.60025713704E+03 0.  0.
        -24    2    4    4    0    0  0.22104892180E+02  0.14197941580E+03 -0.44956958320E+03  0.47856672841E+03  0.79161370844E+02 0.  0.
         24    2    4    4    0    0  0.53161521279E+03 -0.25381997053E+03 -0.48191486485E+03  0.76525245935E+03  0.79561785287E+02 0.  0.
         13    1    5    5    0    0  0.66945990294E+01  0.34572568008E+01 -0.12638189433E+03  0.12660629326E+03  0.00000000000E+00 0. -1.
        -14    1    5    5    0    0  0.15410293151E+02  0.13852215900E+03 -0.32318768887E+03  0.35196043515E+03  0.00000000000E+00 0.  1.
         15    1    3    3    0    0 -0.18787012835E+03  0.57232433313E+02 -0.36912528531E+03  0.41812363069E+03  0.17770000000E+01 0. -1.
        -16    1    3    3    0    0 -0.36584997661E+03  0.54608121420E+02 -0.50430971846E+03  0.62542509099E+03  0.00000000000E+00 0.  1.
          4    1    6    6  502    0  0.15015230914E+03 -0.10735963623E+03 -0.17331455271E+03  0.25319901582E+03  0.00000000000E+00 0. -1.
         -3    1    6    6    0  502  0.38146290365E+03 -0.14646033430E+03 -0.30860031214E+03  0.51205344354E+03  0.00000000000E+00 0.  1.
<mgrwt>
<rscale>  0 0.65320761E+03</rscale>
<asrwt>0</asrwt>
<pdfrwt beam="1">  1        1 0.31479133E+00 0.65320761E+03</pdfrwt>
<pdfrwt beam="2">  1       -2 0.37111420E-01 0.65320761E+03</pdfrwt>
<totfact> 0.17568039E+01</totfact>
</mgrwt>
</event>
<event>
12    3  0.1176505E-007  0.1080739E+04  0.7818608E-02  0.9224171E-01
          1   -1    0    0  501    0  0.00000000000E+00  0.00000000000E+00  0.83674216303E+03  0.83674216303E+03  0.00000000000E+00 0. -1.
         -2   -1    0    0    0  501 -0.00000000000E+00 -0.00000000000E+00 -0.14916228245E+04  0.14916228245E+04  0.00000000000E+00 0.  1.
        -24    2    1    2    0    0 -0.16800344563E+03  0.10198688876E+04 -0.35968407111E+03  0.10972734821E+04  0.79238612740E+02 0.  0.
    5000000    2    1    2    0    0  0.16800344563E+03 -0.10198688876E+04 -0.29519659034E+03  0.12310915055E+04  0.60007296404E+03 0.  0.
        -24    2    4    4    0    0  0.32019083757E+03 -0.61930777983E+03 -0.36999658631E+03  0.79160271772E+03  0.60606024575E+02 0.  0.
         24    2    4    4    0    0 -0.15218739194E+03 -0.40056110780E+03  0.74799995964E+02  0.43948878773E+03  0.62810443396E+02 0.  0.
         11    1    5    5    0    0  0.30199038183E+03 -0.55102699980E+03 -0.34364080469E+03  0.71618290113E+03  0.00000000000E+00 0. -1.
        -12    1    5    5    0    0  0.18200455736E+02 -0.68280780027E+02 -0.26355781614E+02  0.75419816591E+02  0.00000000000E+00 0.  1.
         15    1    3    3    0    0 -0.57683605942E+02  0.37958541483E+03 -0.17405739299E+03  0.42155855979E+03  0.17770000000E+01 0. -1.
        -16    1    3    3    0    0 -0.11031983969E+03  0.64028347279E+03 -0.18562667812E+03  0.67571492228E+03  0.00000000000E+00 0.  1.
          2    1    6    6  502    0 -0.53513453569E+02 -0.16278137287E+03  0.60255380794E+02  0.18163748507E+03  0.00000000000E+00 0. -1.
         -1    1    6    6    0  502 -0.98673938370E+02 -0.23777973493E+03  0.14544615170E+02  0.25785130266E+03  0.00000000000E+00 0.  1.
<mgrwt>
<rscale>  0 0.10807385E+04</rscale>
<asrwt>0</asrwt>
<pdfrwt beam="1">  1        1 0.12872956E+00 0.10807385E+04</pdfrwt>
<pdfrwt beam="2">  1       -2 0.22948043E+00 0.10807385E+04</pdfrwt>
<totfact> 0.15361360E+00</totfact>
</mgrwt>
</event>
<event>
12    3  0.1176505E-007  0.8519258E+03  0.7818608E-02  0.9487756E-01
         -2   -1    0    0    0  501 -0.00000000000E+00  0.00000000000E+00  0.18552317096E+04  0.18552317096E+04  0.00000000000E+00 0.  1.
          1   -1    0    0  501    0  0.00000000000E+00 -0.00000000000E+00 -0.95736334933E+03  0.95736334933E+03  0.00000000000E+00 0. -1.
        -24    2    1    2    0    0 -0.69615988424E+03 -0.48521318244E+03  0.14150552773E+04  0.16519552234E+04  0.80648654325E+02 0.  0.
    5000000    2    1    2    0    0  0.69615988424E+03  0.48521318244E+03 -0.51718691708E+03  0.11606398355E+04  0.59960995960E+03 0.  0.
        -24    2    4    4    0    0  0.22778213374E+03  0.20352037559E+03  0.10118996753E+03  0.33141656768E+03  0.79323943903E+02 0.  0.
         24    2    4    4    0    0  0.46837775050E+03  0.28169280685E+03 -0.61837688461E+03  0.82922326779E+03  0.80577303457E+02 0.  0.
         11    1    5    5    0    0  0.56996920301E+01  0.42538834883E+01  0.21408978823E+02  0.22559396894E+02  0.00000000000E+00 0. -1.
        -12    1    5    5    0    0  0.22208244171E+03  0.19926649210E+03  0.79780988706E+02  0.30885717079E+03  0.00000000000E+00 0.  1.
         15    1    3    3    0    0 -0.30699202535E+03 -0.21133780544E+03  0.69969323917E+03  0.79276828791E+03  0.17770000000E+01 0. -1.
        -16    1    3    3    0    0 -0.38916785889E+03 -0.27387537700E+03  0.71536203816E+03  0.85918693551E+03  0.00000000000E+00 0.  1.
          4    1    6    6  502    0  0.23394611881E+03  0.17528939438E+03 -0.36939059120E+03  0.47106959906E+03  0.00000000000E+00 0. -1.
         -3    1    6    6    0  502  0.23443163169E+03  0.10640341248E+03 -0.24898629341E+03  0.35815366874E+03  0.00000000000E+00 0.  1.
<mgrwt>
<rscale>  0 0.85192582E+03</rscale>
<asrwt>0</asrwt>
<pdfrwt beam="1">  1        1 0.14728667E+00 0.85192582E+03</pdfrwt>
<pdfrwt beam="2">  1       -2 0.28542026E+00 0.85192582E+03</pdfrwt>
<totfact> 0.57625013E-01</totfact>
</mgrwt>
</event>
<event>
12    3  0.1176505E-007  0.4660723E+03  0.7818608E-02  0.1023035E+00
         -4   -1    0    0    0  501 -0.00000000000E+00  0.00000000000E+00  0.11274108027E+03  0.11274108027E+03  0.00000000000E+00 0.  1.
          1   -1    0    0  501    0  0.00000000000E+00 -0.00000000000E+00 -0.26098167862E+04  0.26098167862E+04  0.00000000000E+00 0. -1.
        -24    2    1    2    0    0  0.31303289416E+02 -0.33982162550E+03 -0.12429735219E+04  0.12910461443E+04  0.73200666846E+02 0.  0.
    5000000    2    1    2    0    0 -0.31303289416E+02  0.33982162550E+03 -0.12541021840E+04  0.14315117221E+04  0.59999574120E+03 0.  0.
        -24    2    4    4    0    0  0.21736164319E+03  0.18054367335E+03 -0.97277258807E+03  0.10161796673E+04  0.80576089109E+02 0.  0.
         24    2    4    4    0    0 -0.24866493260E+03  0.15927795215E+03 -0.28132959598E+03  0.41533205486E+03  0.78426140258E+02 0.  0.
         11    1    5    5    0    0  0.22028880629E+03  0.16942053478E+03 -0.88369071176E+03  0.92635832691E+03  0.00000000000E+00 0. -1.
        -12    1    5    5    0    0 -0.29271631039E+01  0.11123138564E+02 -0.89081876310E+02  0.89821340350E+02  0.00000000000E+00 0.  1.
         15    1    3    3    0    0 -0.15962783002E+02 -0.62574689853E+02 -0.30731280741E+03  0.31402981001E+03  0.17770000000E+01 0. -1.
        -16    1    3    3    0    0  0.47266072418E+02 -0.27724693565E+03 -0.93566071447E+03  0.97701633432E+03  0.00000000000E+00 0.  1.
          4    1    6    6  502    0 -0.65266042077E+02  0.58384178298E+02 -0.41198445149E+02  0.96776445516E+02  0.00000000000E+00 0. -1.
         -3    1    6    6    0  502 -0.18339889053E+03  0.10089377386E+03 -0.24013115083E+03  0.31855560935E+03  0.00000000000E+00 0.  1.
<mgrwt>
<rscale>  0 0.46607232E+03</rscale>
<asrwt>0</asrwt>
<pdfrwt beam="1">  1        1 0.40151027E+00 0.46607232E+03</pdfrwt>
<pdfrwt beam="2">  1       -4 0.17344782E-01 0.46607232E+03</pdfrwt>
<totfact> 0.18104382E+01</totfact>
</mgrwt>
</event>
<event>
12    3  0.1176505E-007  0.2734406E+04  0.7818608E-02  0.8323927E-01
         -2   -1    0    0    0  501 -0.00000000000E+00  0.00000000000E+00  0.27389812659E+04  0.27389812659E+04  0.00000000000E+00 0.  1.
          1   -1    0    0  501    0  0.00000000000E+00 -0.00000000000E+00 -0.34479141251E+04  0.34479141251E+04  0.00000000000E+00 0. -1.
        -24    2    1    2    0    0  0.26541971309E+04 -0.63226695555E+03  0.10049203311E+04  0.29094139173E+04  0.10149166275E+03 0.  0.
    5000000    2    1    2    0    0 -0.26541971309E+04  0.63226695555E+03 -0.17138531903E+04  0.32774814737E+04  0.60005678063E+03 0.  0.
        -24    2    4    4    0    0 -0.82766981226E+03  0.10236550126E+03 -0.82688703241E+03  0.11774326586E+04  0.84199092154E+02 0.  0.
         24    2    4    4    0    0 -0.18265273186E+04  0.52990145429E+03 -0.88696615785E+03  0.21000488151E+04  0.80613049872E+02 0.  0.
         13    1    5    5    0    0 -0.69323177289E+03  0.58990896732E+02 -0.71031544423E+03  0.99428278028E+03  0.00000000000E+00 0. -1.
        -14    1    5    5    0    0 -0.13443803937E+03  0.43374604525E+02 -0.11657158817E+03  0.18314987828E+03  0.00000000000E+00 0.  1.
         15    1    3    3    0    0  0.18376789396E+04 -0.39611536899E+03  0.66660285768E+03  0.19945760948E+04  0.17770000000E+01 0. -1.
        -16    1    3    3    0    0  0.81651819131E+03 -0.23615158656E+03  0.33831747338E+03  0.91483782244E+03  0.00000000000E+00 0.  1.
          2    1    6    6  502    0 -0.12259308823E+04  0.36534812097E+03 -0.55584245434E+03  0.13947568289E+04  0.00000000000E+00 0. -1.
         -1    1    6    6    0  502 -0.60059643629E+03  0.16455333332E+03 -0.33112370350E+03  0.70529198621E+03  0.00000000000E+00 0.  1.
<mgrwt>
<rscale>  0 0.27344060E+04</rscale>
<asrwt>0</asrwt>
<pdfrwt beam="1">  1        1 0.53044832E+00 0.27344060E+04</pdfrwt>
<pdfrwt beam="2">  1       -2 0.42138174E+00 0.27344060E+04</pdfrwt>
<totfact> 0.10466384E-03</totfact>
</mgrwt>
</event>
<event>
12    3  0.1176505E-007  0.4365735E+03  0.7818608E-02  0.1031803E+00
          1   -1    0    0  501    0  0.00000000000E+00  0.00000000000E+00  0.10547835336E+04  0.10547835336E+04  0.00000000000E+00 0. -1.
         -2   -1    0    0    0  501 -0.00000000000E+00 -0.00000000000E+00 -0.21265527995E+03  0.21265527995E+03  0.00000000000E+00 0.  1.
        -24    2    1    2    0    0 -0.58138749784E+02 -0.26353674735E+03  0.33339096183E+03  0.43592918818E+03  0.77800978434E+02 0.  0.
    5000000    2    1    2    0    0  0.58138749784E+02  0.26353674735E+03  0.50873729187E+03  0.83150962542E+03  0.59980237878E+03 0.  0.
        -24    2    4    4    0    0 -0.13762478042E+03  0.34855191198E+03  0.15983377810E+03  0.41535780192E+03  0.80908908440E+02 0.  0.
         24    2    4    4    0    0  0.19576353020E+03 -0.85015164630E+02  0.34890351377E+03  0.41615182349E+03  0.76796746693E+02 0.  0.
         13    1    5    5    0    0 -0.11165087443E+03  0.32098323018E+03  0.16382158538E+03  0.37727133956E+03  0.00000000000E+00 0. -1.
        -14    1    5    5    0    0 -0.25973905982E+02  0.27568681802E+02 -0.39878072774E+01  0.38086462361E+02  0.00000000000E+00 0.  1.
         15    1    3    3    0    0 -0.37205627854E+02 -0.16693296709E+03  0.26618917570E+03  0.31640276426E+03  0.17770000000E+01 0. -1.
        -16    1    3    3    0    0 -0.20933121929E+02 -0.96603780267E+02  0.67201786133E+02  0.11952642392E+03  0.00000000000E+00 0.  1.
          2    1    6    6  502    0  0.13700218720E+03 -0.20929978290E+02  0.23547631391E+03  0.27323388827E+03  0.00000000000E+00 0. -1.
         -1    1    6    6    0  502  0.58761343003E+02 -0.64085186340E+02  0.11342719986E+03  0.14291793522E+03  0.00000000000E+00 0.  1.
<mgrwt>
<rscale>  0 0.43657355E+03</rscale>
<asrwt>0</asrwt>
<pdfrwt beam="1">  1        1 0.16227439E+00 0.43657355E+03</pdfrwt>
<pdfrwt beam="2">  1       -2 0.32716198E-01 0.43657355E+03</pdfrwt>
<totfact> 0.10989753E+02</totfact>
</mgrwt>
</event>
<event>
12    3  0.1176505E-007  0.4656333E+03  0.7818608E-02  0.1023160E+00
         -2   -1    0    0    0  501 -0.00000000000E+00  0.00000000000E+00  0.81234888122E+03  0.81234888122E+03  0.00000000000E+00 0.  1.
          1   -1    0    0  501    0  0.00000000000E+00 -0.00000000000E+00 -0.41245153254E+03  0.41245153254E+03  0.00000000000E+00 0. -1.
        -24    2    1    2    0    0 -0.22133064394E+03  0.32008865266E+03  0.31072568690E+03  0.50441702690E+03  0.80262600374E+02 0.  0.
    5000000    2    1    2    0    0  0.22133064394E+03 -0.32008865266E+03  0.89171661770E+02  0.72038338686E+03  0.59963041892E+03 0.  0.
        -24    2    4    4    0    0  0.28953016581E+03 -0.33912869504E+03  0.25759601023E+03  0.52079348594E+03  0.77679867334E+02 0.  0.
         24    2    4    4    0    0 -0.68199521873E+02  0.19040042386E+02 -0.16842434846E+03  0.19958990093E+03  0.80347180400E+02 0.  0.
         11    1    5    5    0    0  0.37311927863E+02 -0.63332956570E+02  0.14413211204E+02  0.74906501760E+02  0.00000000000E+00 0. -1.
        -12    1    5    5    0    0  0.25221823795E+03 -0.27579573847E+03  0.24318279903E+03  0.44588698418E+03  0.00000000000E+00 0.  1.
         15    1    3    3    0    0 -0.25216305049E+02  0.61361679845E+02  0.21908200127E+02  0.69887371931E+02  0.17770000000E+01 0. -1.
        -16    1    3    3    0    0 -0.19611433889E+03  0.25872697281E+03  0.28881748678E+03  0.43452965497E+03  0.00000000000E+00 0.  1.
          4    1    6    6  502    0  0.82118434508E+01 -0.84666895506E+01 -0.74484332231E+02  0.75412432348E+02  0.00000000000E+00 0. -1.
         -3    1    6    6    0  502 -0.76411365323E+02  0.27506731937E+02 -0.93940016234E+02  0.12417746858E+03  0.00000000000E+00 0.  1.
<mgrwt>
<rscale>  0 0.46563331E+03</rscale>
<asrwt>0</asrwt>
<pdfrwt beam="1">  1        1 0.63454082E-01 0.46563331E+03</pdfrwt>
<pdfrwt beam="2">  1       -2 0.12497675E+00 0.46563331E+03</pdfrwt>
<totfact> 0.25259743E+01</totfact>
</mgrwt>
</event>
<event>
12    3  0.1176505E-007  0.5164593E+03  0.7818608E-02  0.1009570E+00
         -2   -1    0    0    0  501 -0.00000000000E+00  0.00000000000E+00  0.94568631308E+03  0.94568631308E+03  0.00000000000E+00 0.  1.
          1   -1    0    0  501    0  0.00000000000E+00 -0.00000000000E+00 -0.48430191883E+03  0.48430191883E+03  0.00000000000E+00 0. -1.
        -24    2    1    2    0    0 -0.74727093313E+02 -0.42220991502E+03 -0.16105072448E+03  0.46493524343E+03  0.79888008540E+02 0.  0.
    5000000    2    1    2    0    0  0.74727093313E+02  0.42220991502E+03  0.62243511873E+03  0.96505298848E+03  0.60004703376E+03 0.  0.
        -24    2    4    4    0    0  0.15185505168E+03  0.14784120456E+00 -0.35446077969E+02  0.17553567072E+03  0.80600053801E+02 0.  0.
         24    2    4    4    0    0 -0.77127958369E+02  0.42206207382E+03  0.65788119670E+03  0.78951731776E+03  0.80279573702E+02 0.  0.
         11    1    5    5    0    0  0.11751788383E+02 -0.26118164794E+02 -0.12104413889E+02  0.31093084408E+02  0.00000000000E+00 0. -1.
        -12    1    5    5    0    0  0.14010326330E+03  0.26266005998E+02 -0.23341664080E+02  0.14444258631E+03  0.00000000000E+00 0.  1.
         15    1    3    3    0    0 -0.21477353433E+02 -0.20477024217E+03 -0.37660493896E+02  0.20931698287E+03  0.17770000000E+01 0. -1.
        -16    1    3    3    0    0 -0.53249739880E+02 -0.21743967286E+03 -0.12339023058E+03  0.25561826056E+03  0.00000000000E+00 0.  1.
          2    1    6    6  502    0 -0.55236490557E+02  0.16551636270E+03  0.21136382265E+03  0.27408283736E+03  0.00000000000E+00 0. -1.
         -1    1    6    6    0  502 -0.21891467812E+02  0.25654571112E+03  0.44651737405E+03  0.51543448040E+03  0.00000000000E+00 0.  1.
<mgrwt>
<rscale>  0 0.51645925E+03</rscale>
<asrwt>0</asrwt>
<pdfrwt beam="1">  1        1 0.74507988E-01 0.51645925E+03</pdfrwt>
<pdfrwt beam="2">  1       -2 0.14549020E+00 0.51645925E+03</pdfrwt>
<totfact> 0.13770606E+01</totfact>
</mgrwt>
</event>
<event>
12    3  0.1176505E-007  0.4205565E+03  0.7818608E-02  0.1036885E+00
         -2   -1    0    0    0  501 -0.00000000000E+00  0.00000000000E+00  0.88308157093E+02  0.88308157093E+02  0.00000000000E+00 0.  1.
          1   -1    0    0  501    0  0.00000000000E+00 -0.00000000000E+00 -0.28858903498E+04  0.28858903498E+04  0.00000000000E+00 0. -1.
        -24    2    1    2    0    0 -0.24726156001E+03  0.13059578740E+03 -0.13714149724E+04  0.14018928901E+04  0.79568273339E+02 0.  0.
    5000000    2    1    2    0    0  0.24726156001E+03 -0.13059578740E+03 -0.14261672204E+04  0.15723056168E+04  0.59999872792E+03 0.  0.
        -24    2    4    4    0    0  0.14648563334E+03  0.17715071200E+03 -0.10115832265E+04  0.10403747880E+04  0.78985187466E+02 0.  0.
         24    2    4    4    0    0  0.10077592666E+03 -0.30774649940E+03 -0.41458399382E+03  0.53193082878E+03  0.78783395344E+02 0.  0.
         11    1    5    5    0    0  0.72786184706E+02  0.62329484990E+02 -0.57619239335E+03  0.58410655496E+03  0.00000000000E+00 0. -1.
        -12    1    5    5    0    0  0.73699448637E+02  0.11482122701E+03 -0.43539083319E+03  0.45626823309E+03  0.00000000000E+00 0.  1.
         15    1    3    3    0    0 -0.80547577062E+02  0.56228506128E+02 -0.66753724853E+03  0.67472860690E+03  0.17770000000E+01 0. -1.
        -16    1    3    3    0    0 -0.16671398294E+03  0.74367281272E+02 -0.70387772384E+03  0.72716428319E+03  0.00000000000E+00 0.  1.
          2    1    6    6  502    0  0.64936698386E+02 -0.26205166918E+03 -0.37322615484E+03  0.46063609799E+03  0.00000000000E+00 0. -1.
         -1    1    6    6    0  502  0.35839228277E+02 -0.45694830219E+02 -0.41357838982E+02  0.71294730784E+02  0.00000000000E+00 0.  1.
<mgrwt>
<rscale>  0 0.42055652E+03</rscale>
<asrwt>0</asrwt>
<pdfrwt beam="1">  1        1 0.44398306E+00 0.42055652E+03</pdfrwt>
<pdfrwt beam="2">  1       -2 0.13585872E-01 0.42055652E+03</pdfrwt>
<totfact> 0.29503759E+01</totfact>
</mgrwt>
</event>
<event>
12    3  0.1176505E-007  0.1338213E+04  0.7818608E-02  0.8999799E-01
         -2   -1    0    0    0  501 -0.00000000000E+00  0.00000000000E+00  0.26278238081E+04  0.26278238081E+04  0.00000000000E+00 0.  1.
          1   -1    0    0  501    0  0.00000000000E+00 -0.00000000000E+00 -0.81206407109E+03  0.81206407109E+03  0.00000000000E+00 0. -1.
        -24    2    1    2    0    0 -0.96914824671E+03  0.83986588068E+03  0.21572299265E+03  0.13033924042E+04  0.87591826923E+02 0.  0.
    5000000    2    1    2    0    0  0.96914824671E+03 -0.83986588068E+03  0.16000367443E+04  0.21364954749E+04  0.59989358190E+03 0.  0.
        -24    2    4    4    0    0  0.48921687058E+03 -0.95350881835E+02  0.76587356814E+03  0.91724059485E+03  0.79643262941E+02 0.  0.
         24    2    4    4    0    0  0.47993137613E+03 -0.74451499885E+03  0.83416317618E+03  0.12192548801E+04  0.78214760862E+02 0.  0.
         13    1    5    5    0    0  0.47226211410E+03 -0.10588333393E+03  0.72427201932E+03  0.87109858386E+03  0.00000000000E+00 0. -1.
        -14    1    5    5    0    0  0.16954756480E+02  0.10532452095E+02  0.41601548819E+02  0.46142010994E+02  0.00000000000E+00 0.  1.
         15    1    3    3    0    0 -0.48760077758E+03  0.48015554059E+03  0.11108698121E+03  0.69328734056E+03  0.17770000000E+01 0. -1.
        -16    1    3    3    0    0 -0.48154746913E+03  0.35971034009E+03  0.10463601144E+03  0.61010506365E+03  0.00000000000E+00 0.  1.
          4    1    6    6  502    0  0.13958691701E+03 -0.17810403048E+03  0.17674446818E+03  0.28713091110E+03  0.00000000000E+00 0. -1.
         -3    1    6    6    0  502  0.34034445912E+03 -0.56641096837E+03  0.65741870800E+03  0.93212396899E+03  0.00000000000E+00 0.  1.
<mgrwt>
<rscale>  0 0.13382134E+04</rscale>
<asrwt>0</asrwt>
<pdfrwt beam="1">  1        1 0.12493294E+00 0.13382134E+04</pdfrwt>
<pdfrwt beam="2">  1       -2 0.40428058E+00 0.13382134E+04</pdfrwt>
<totfact> 0.12804072E-01</totfact>
</mgrwt>
</event>
<event>
12    3  0.1176505E-007  0.6654373E+03  0.7818608E-02  0.9778236E-01
          1   -1    0    0  501    0  0.00000000000E+00  0.00000000000E+00  0.16721213815E+04  0.16721213815E+04  0.00000000000E+00 0. -1.
         -2   -1    0    0    0  501 -0.00000000000E+00 -0.00000000000E+00 -0.32662519206E+03  0.32662519206E+03  0.00000000000E+00 0.  1.
        -24    2    1    2    0    0  0.51251403858E+03 -0.33757675847E+03  0.59732998174E+03  0.86008712341E+03  0.79486131996E+02 0.  0.
    5000000    2    1    2    0    0 -0.51251403858E+03  0.33757675847E+03  0.74816620775E+03  0.11386594502E+04  0.60013661903E+03 0.  0.
        -24    2    4    4    0    0 -0.15021727177E+03 -0.58060359648E+02  0.52025517044E+03  0.54971281901E+03  0.74716175654E+02 0.  0.
         24    2    4    4    0    0 -0.36229676680E+03  0.39563711812E+03  0.22791103731E+03  0.58894663119E+03  0.84421661871E+02 0.  0.
         13    1    5    5    0    0 -0.12239807284E+03 -0.14133204845E+02  0.40375061338E+03  0.42213219910E+03  0.00000000000E+00 0. -1.
        -14    1    5    5    0    0 -0.27819198933E+02 -0.43927154803E+02  0.11650455707E+03  0.12758061991E+03  0.00000000000E+00 0.  1.
         15    1    3    3    0    0  0.25704433409E+03 -0.21628949427E+03  0.33149900133E+03  0.47196152453E+03  0.17770000000E+01 0. -1.
        -16    1    3    3    0    0  0.25546970448E+03 -0.12128726420E+03  0.26583098041E+03  0.38812559888E+03  0.00000000000E+00 0.  1.
          2    1    6    6  502    0 -0.14475690356E+03  0.14195800204E+03  0.12950320738E+03  0.24057787968E+03  0.00000000000E+00 0. -1.
         -1    1    6    6    0  502 -0.21753986324E+03  0.25367911608E+03  0.98407829929E+02  0.34836875150E+03  0.00000000000E+00 0.  1.
<mgrwt>
<rscale>  0 0.66543734E+03</rscale>
<asrwt>0</asrwt>
<pdfrwt beam="1">  1        1 0.25724944E+00 0.66543734E+03</pdfrwt>
<pdfrwt beam="2">  1       -2 0.50250031E-01 0.66543734E+03</pdfrwt>
<totfact> 0.17123519E+01</totfact>
</mgrwt>
</event>
<event>
12    3  0.1176505E-007  0.6156251E+03  0.7818608E-02  0.9873509E-01
         -4   -1    0    0    0  501 -0.00000000000E+00  0.00000000000E+00  0.31544015282E+03  0.31544015282E+03  0.00000000000E+00 0.  1.
          1   -1    0    0  501    0  0.00000000000E+00 -0.00000000000E+00 -0.14984839519E+04  0.14984839519E+04  0.00000000000E+00 0. -1.
        -24    2    1    2    0    0 -0.41063460049E+03  0.30143665973E+03 -0.76670890092E+03  0.92394410526E+03  0.79657617035E+02 0.  0.
    5000000    2    1    2    0    0  0.41063460049E+03 -0.30143665973E+03 -0.41633489812E+03  0.88997999942E+03  0.59937035048E+03 0.  0.
        -24    2    4    4    0    0  0.36353497757E+03 -0.42553262930E+03 -0.15705469665E+03  0.58681592972E+03  0.80318485548E+02 0.  0.
         24    2    4    4    0    0  0.47099622917E+02  0.12409596957E+03 -0.25928020147E+03  0.30316406970E+03  0.84047880048E+02 0.  0.
         11    1    5    5    0    0  0.21039283904E+03 -0.26174232135E+03 -0.54372676906E+02  0.34019197154E+03  0.00000000000E+00 0. -1.
        -12    1    5    5    0    0  0.15314213854E+03 -0.16379030794E+03 -0.10268201974E+03  0.24662395818E+03  0.00000000000E+00 0.  1.
         15    1    3    3    0    0 -0.12956931025E+03  0.13705530688E+03 -0.31417763886E+03  0.36644659882E+03  0.17770000000E+01 0. -1.
        -16    1    3    3    0    0 -0.28106529024E+03  0.16438135285E+03 -0.45253126207E+03  0.55749750644E+03  0.00000000000E+00 0.  1.
          4    1    6    6  502    0 -0.20183879941E+02  0.59915225220E+01 -0.39066906374E+02  0.44379167695E+02  0.00000000000E+00 0. -1.
         -3    1    6    6    0  502  0.67283502857E+02  0.11810444705E+03 -0.22021329510E+03  0.25878490201E+03  0.00000000000E+00 0.  1.
<mgrwt>
<rscale>  0 0.61562514E+03</rscale>
<asrwt>0</asrwt>
<pdfrwt beam="1">  1        1 0.23053600E+00 0.61562514E+03</pdfrwt>
<pdfrwt beam="2">  1       -4 0.48529254E-01 0.61562514E+03</pdfrwt>
<totfact> 0.13472255E+01</totfact>
</mgrwt>
</event>
<event>
12    3  0.1176505E-007  0.4168869E+03  0.7818608E-02  0.1038084E+00
          1   -1    0    0  501    0  0.00000000000E+00  0.00000000000E+00  0.19865028821E+04  0.19865028821E+04  0.00000000000E+00 0. -1.
         -2   -1    0    0    0  501 -0.00000000000E+00 -0.00000000000E+00 -0.10662976908E+03  0.10662976908E+03  0.00000000000E+00 0.  1.
        -24    2    1    2    0    0 -0.66432547205E+02  0.22704805859E+03  0.77048486405E+03  0.80989317326E+03  0.79472775994E+02 0.  0.
    5000000    2    1    2    0    0  0.66432547205E+02 -0.22704805859E+03  0.11093882490E+04  0.12832394779E+04  0.59999763876E+03 0.  0.
        -24    2    4    4    0    0  0.28919512365E+03 -0.21338327465E+03  0.88929548717E+03  0.96055959181E+03  0.51594810392E+02 0.  0.
         24    2    4    4    0    0 -0.22276257645E+03 -0.13664783937E+02  0.22009276180E+03  0.32267988613E+03  0.76626322669E+02 0.  0.
         13    1    5    5    0    0  0.31748211804E+02 -0.37197343491E+02  0.16097402371E+03  0.16823860326E+03  0.00000000000E+00 0. -1.
        -14    1    5    5    0    0  0.25744691185E+03 -0.17618593116E+03  0.72832146346E+03  0.79232098855E+03  0.00000000000E+00 0.  1.
         15    1    3    3    0    0 -0.56905189669E+02  0.86928250658E+02  0.24865105411E+03  0.26949067852E+03  0.17770000000E+01 0. -1.
        -16    1    3    3    0    0 -0.95273575351E+01  0.14011980793E+03  0.52183380995E+03  0.54040249474E+03  0.00000000000E+00 0.  1.
          2    1    6    6  502    0 -0.13127526193E+03 -0.32288654860E+02  0.16843795206E+03  0.21597938633E+03  0.00000000000E+00 0. -1.
         -3    1    6    6    0  502 -0.91487314520E+02  0.18623870922E+02  0.51654809745E+02  0.10670049979E+03  0.00000000000E+00 0.  1.
<mgrwt>
<rscale>  0 0.41688689E+03</rscale>
<asrwt>0</asrwt>
<pdfrwt beam="1">  1        1 0.30561580E+00 0.41688689E+03</pdfrwt>
<pdfrwt beam="2">  1       -2 0.16404581E-01 0.41688689E+03</pdfrwt>
<totfact> 0.86731837E+01</totfact>
</mgrwt>
</event>
<event>
12    3  0.1176505E-007  0.9762909E+03  0.7818608E-02  0.9334938E-01
          1   -1    0    0  501    0  0.00000000000E+00  0.00000000000E+00  0.11858102844E+04  0.11858102844E+04  0.00000000000E+00 0. -1.
         -2   -1    0    0    0  501 -0.00000000000E+00 -0.00000000000E+00 -0.91581850949E+03  0.91581850949E+03  0.00000000000E+00 0.  1.
        -24    2    1    2    0    0  0.88224560339E+03  0.16722561035E+03 -0.20107257013E+03  0.92345403436E+03  0.77559433121E+02 0.  0.
    5000000    2    1    2    0    0 -0.88224560339E+03 -0.16722561035E+03  0.47106434501E+03  0.11781747595E+04  0.59989368836E+03 0.  0.
        -24    2    4    4    0    0 -0.89988000399E+03 -0.26983894648E+03  0.43191420707E+03  0.10372093609E+04  0.81586135425E+02 0.  0.
         24    2    4    4    0    0  0.17634400601E+02  0.10261333613E+03  0.39150137943E+02  0.14096539858E+03  0.86591232001E+02 0.  0.
         11    1    5    5    0    0 -0.23244259434E+03 -0.78344431313E+02  0.15186559774E+03  0.28849708726E+03  0.00000000000E+00 0. -1.
        -12    1    5    5    0    0 -0.66743740965E+03 -0.19149451517E+03  0.28004860933E+03  0.74871227366E+03  0.00000000000E+00 0.  1.
         15    1    3    3    0    0  0.25065290898E+03  0.73854725047E+02 -0.34135753131E+02  0.26353331585E+03  0.17770000000E+01 0. -1.
        -16    1    3    3    0    0  0.63159269441E+03  0.93370885302E+02 -0.16693681700E+03  0.65992071851E+03  0.00000000000E+00 0.  1.
          4    1    6    6  502    0  0.24098641336E+02  0.23104887548E+02  0.50349420256E+02  0.60412287351E+02  0.00000000000E+00 0. -1.
         -3    1    6    6    0  502 -0.64642407349E+01  0.79508448585E+02 -0.11199282313E+02  0.80553111231E+02  0.00000000000E+00 0.  1.
<mgrwt>
<rscale>  0 0.97629094E+03</rscale>
<asrwt>0</asrwt>
<pdfrwt beam="1">  1        1 0.18243235E+00 0.97629094E+03</pdfrwt>
<pdfrwt beam="2">  1       -2 0.14089516E+00 0.97629094E+03</pdfrwt>
<totfact> 0.33879984E+00</totfact>
</mgrwt>
</event>
<event>
12    3  0.1176505E-007  0.5463213E+03  0.7818608E-02  0.1002349E+00
         -2   -1    0    0    0  501 -0.00000000000E+00  0.00000000000E+00  0.39542603783E+03  0.39542603783E+03  0.00000000000E+00 0.  1.
          1   -1    0    0  501    0  0.00000000000E+00 -0.00000000000E+00 -0.26354163645E+04  0.26354163645E+04  0.00000000000E+00 0. -1.
        -24    2    1    2    0    0 -0.51051146835E+03 -0.16532677878E+03  0.10420367140E+03  0.55227833408E+03  0.78727695648E+02 0.  0.
    5000000    2    1    2    0    0  0.51051146835E+03  0.16532677878E+03 -0.23441939981E+04  0.24785640683E+04  0.60006619363E+03 0.  0.
        -24    2    4    4    0    0  0.40709453721E+03  0.16534176473E+03 -0.22966193923E+04  0.23393379687E+04  0.70552372257E+02 0.  0.
         24    2    4    4    0    0  0.10341693114E+03 -0.14985946277E-01 -0.47574605739E+02  0.13922609954E+03  0.80159227858E+02 0.  0.
         13    1    5    5    0    0  0.28510556245E+03  0.11829006362E+03 -0.14321032835E+04  0.14649906264E+04  0.00000000000E+00 0. -1.
        -14    1    5    5    0    0  0.12198897477E+03  0.47051701109E+02 -0.86451610885E+03  0.87434734231E+03  0.00000000000E+00 0.  1.
         15    1    3    3    0    0 -0.14838484408E+03 -0.12240810100E+02  0.36904479533E+02  0.15340468612E+03  0.17770000000E+01 0. -1.
        -16    1    3    3    0    0 -0.36212662427E+03 -0.15308596868E+03  0.67299191872E+02  0.39887364796E+03  0.00000000000E+00 0.  1.
          4    1    6    6  502    0  0.10523976620E+03  0.54766816593E+01 -0.62981572340E+02  0.12276840345E+03  0.00000000000E+00 0. -1.
         -3    1    6    6    0  502 -0.18228350576E+01 -0.54916676056E+01  0.15406966601E+02  0.16457696090E+02  0.00000000000E+00 0.  1.
<mgrwt>
<rscale>  0 0.54632127E+03</rscale>
<asrwt>0</asrwt>
<pdfrwt beam="1">  1        1 0.40544866E+00 0.54632127E+03</pdfrwt>
<pdfrwt beam="2">  1       -2 0.60834777E-01 0.54632127E+03</pdfrwt>
<totfact> 0.26674520E+00</totfact>
</mgrwt>
</event>
<event>
12    3  0.1176505E-007  0.5030786E+03  0.7818608E-02  0.1012978E+00
         -2   -1    0    0    0  501 -0.00000000000E+00  0.00000000000E+00  0.62411191838E+03  0.62411191838E+03  0.00000000000E+00 0.  1.
          1   -1    0    0  501    0  0.00000000000E+00 -0.00000000000E+00 -0.29646866776E+04  0.29646866776E+04  0.00000000000E+00 0. -1.
        -24    2    1    2    0    0 -0.25080019230E+02  0.46748169186E+03 -0.27039667297E+04  0.27454092687E+04  0.81656827999E+02 0.  0.
    5000000    2    1    2    0    0  0.25080019230E+02 -0.46748169186E+03  0.36339197050E+03  0.84338932728E+03  0.60006974058E+03 0.  0.
        -24    2    4    4    0    0 -0.28517878194E+02 -0.43146223615E+03 -0.26100122856E+02  0.44043405486E+03  0.79548787980E+02 0.  0.
         24    2    4    4    0    0  0.53597897424E+02 -0.36019455717E+02  0.38949209336E+03  0.40295527242E+03  0.80614669796E+02 0.  0.
         13    1    5    5    0    0 -0.44569805897E+02 -0.38352929841E+03 -0.63473940814E+01  0.38616250433E+03  0.00000000000E+00 0. -1.
        -14    1    5    5    0    0  0.16051927703E+02 -0.47932937734E+02 -0.19752728775E+02  0.54271550529E+02  0.00000000000E+00 0.  1.
         15    1    3    3    0    0 -0.95771233830E+01  0.30784433222E+03 -0.19863939333E+04  0.20101303117E+04  0.17770000000E+01 0. -1.
        -16    1    3    3    0    0 -0.15502895847E+02  0.15963735965E+03 -0.71757279644E+03  0.73527895697E+03  0.00000000000E+00 0.  1.
          4    1    6    6  502    0 -0.13056525795E+02 -0.31738401803E+02  0.17389467367E+03  0.17724885485E+03  0.00000000000E+00 0. -1.
         -3    1    6    6    0  502  0.66654423219E+02 -0.42810539135E+01  0.21559741969E+03  0.22570641757E+03  0.00000000000E+00 0.  1.
<mgrwt>
<rscale>  0 0.50307861E+03</rscale>
<asrwt>0</asrwt>
<pdfrwt beam="1">  1        1 0.45610565E+00 0.50307861E+03</pdfrwt>
<pdfrwt beam="2">  1       -2 0.96017217E-01 0.50307861E+03</pdfrwt>
<totfact> 0.58021773E-01</totfact>
</mgrwt>
</event>
<event>
12    3  0.1176505E-007  0.6270187E+03  0.7818608E-02  0.9850884E-01
          1   -1    0    0  501    0  0.00000000000E+00  0.00000000000E+00  0.26337231990E+04  0.26337231990E+04  0.00000000000E+00 0. -1.
         -2   -1    0    0    0  501 -0.00000000000E+00 -0.00000000000E+00 -0.17918098814E+03  0.17918098814E+03  0.00000000000E+00 0.  1.
        -24    2    1    2    0    0  0.23649592408E+03 -0.47173150324E+03  0.13326139894E+04  0.14355363072E+04  0.80271485417E+02 0.  0.
    5000000    2    1    2    0    0 -0.23649592408E+03  0.47173150324E+03  0.11219282214E+04  0.13773678799E+04  0.59996534004E+03 0.  0.
        -24    2    4    4    0    0  0.13812829933E+03  0.23407881910E+03  0.18612367808E+03  0.33881945672E+03  0.79273451339E+02 0.  0.
         24    2    4    4    0    0 -0.37462422341E+03  0.23765268415E+03  0.93580454336E+03  0.10385484232E+04  0.77656788808E+02 0.  0.
         13    1    5    5    0    0  0.45669834907E+02  0.50039547737E+02  0.11333519594E+02  0.68688709585E+02  0.00000000000E+00 0. -1.
        -14    1    5    5    0    0  0.92458464424E+02  0.18403927136E+03  0.17479015849E+03  0.27013074714E+03  0.00000000000E+00 0.  1.
         15    1    3    3    0    0  0.15437641729E+03 -0.24031576949E+03  0.78633188597E+03  0.83660309580E+03  0.17770000000E+01 0. -1.
        -16    1    3    3    0    0  0.82119506787E+02 -0.23141573376E+03  0.54628210342E+03  0.59893321142E+03  0.00000000000E+00 0.  1.
          4    1    6    6  502    0 -0.12676699460E+03  0.42576822312E+02  0.31502916015E+03  0.34223680173E+03  0.00000000000E+00 0. -1.
         -3    1    6    6    0  502 -0.24785722882E+03  0.19507586183E+03  0.62077538321E+03  0.69631162144E+03  0.00000000000E+00 0.  1.
<mgrwt>
<rscale>  0 0.62701867E+03</rscale>
<asrwt>0</asrwt>
<pdfrwt beam="1">  1        1 0.40518816E+00 0.62701867E+03</pdfrwt>
<pdfrwt beam="2">  1       -2 0.27566308E-01 0.62701867E+03</pdfrwt>
<totfact> 0.12363254E+01</totfact>
</mgrwt>
</event>
<event>
12    3  0.1176505E-007  0.6985533E+03  0.7818608E-02  0.9719710E-01
         -2   -1    0    0    0  501 -0.00000000000E+00  0.00000000000E+00  0.16929732724E+03  0.16929732724E+03  0.00000000000E+00 0.  1.
          1   -1    0    0  501    0  0.00000000000E+00 -0.00000000000E+00 -0.33055752914E+04  0.33055752914E+04  0.00000000000E+00 0. -1.
        -24    2    1    2    0    0 -0.59688518438E+02 -0.62184737305E+03 -0.13575858424E+04  0.14965366396E+04  0.79534392816E+02 0.  0.
    5000000    2    1    2    0    0  0.59688518438E+02  0.62184737305E+03 -0.17786921218E+04  0.19783359791E+04  0.59984223531E+03 0.  0.
        -24    2    4    4    0    0 -0.96434825843E+02  0.58956892268E+03 -0.16537818489E+04  0.17599642162E+04  0.74755924461E+02 0.  0.
         24    2    4    4    0    0  0.15612334428E+03  0.32278450378E+02 -0.12491027292E+03  0.21837176290E+03  0.81653252001E+02 0.  0.
         11    1    5    5    0    0  0.11437359280E+02  0.77593036946E+02 -0.23843820809E+03  0.25100651714E+03  0.00000000000E+00 0. -1.
        -12    1    5    5    0    0 -0.10787218512E+03  0.51197588573E+03 -0.14153436408E+04  0.15089576991E+04  0.00000000000E+00 0.  1.
         15    1    3    3    0    0 -0.63023606588E+02 -0.29195746071E+03 -0.69042020497E+03  0.75225949712E+03  0.17770000000E+01 0. -1.
        -16    1    3    3    0    0  0.33350881501E+01 -0.32988991235E+03 -0.66716563738E+03  0.74427714246E+03  0.00000000000E+00 0.  1.
          2    1    6    6  502    0  0.42917572107E+02 -0.13144445891E+02 -0.73241568086E+02  0.85901232523E+02  0.00000000000E+00 0. -1.
         -1    1    6    6    0  502  0.11320577217E+03  0.45422896269E+02 -0.51668704838E+02  0.13247053038E+03  0.00000000000E+00 0.  1.
<mgrwt>
<rscale>  0 0.69855326E+03</rscale>
<asrwt>0</asrwt>
<pdfrwt beam="1">  1        1 0.50855001E+00 0.69855326E+03</pdfrwt>
<pdfrwt beam="2">  1       -2 0.26045744E-01 0.69855326E+03</pdfrwt>
<totfact> 0.44790702E+00</totfact>
</mgrwt>
</event>
<event>
12    3  0.1176505E-007  0.8625130E+03  0.7818608E-02  0.9473695E-01
         -2   -1    0    0    0  501 -0.00000000000E+00  0.00000000000E+00  0.13283927711E+04  0.13283927711E+04  0.00000000000E+00 0.  1.
          1   -1    0    0  501    0  0.00000000000E+00 -0.00000000000E+00 -0.82430032241E+03  0.82430032241E+03  0.00000000000E+00 0. -1.
        -24    2    1    2    0    0 -0.80517254206E+03  0.19702201768E+02 -0.30294658903E+03  0.86430732269E+03  0.80990820577E+02 0.  0.
    5000000    2    1    2    0    0  0.80517254206E+03 -0.19702201768E+02  0.80703903770E+03  0.12883857708E+04  0.59994573655E+03 0.  0.
        -24    2    4    4    0    0  0.33040743427E+03 -0.21367101403E+03  0.61108489304E+03  0.73113819469E+03  0.79460294325E+02 0.  0.
         24    2    4    4    0    0  0.47476510779E+03  0.19396881226E+03  0.19595414466E+03  0.55724757612E+03  0.95399300706E+02 0.  0.
         11    1    5    5    0    0  0.13757102084E+03 -0.10701540813E+03  0.33743463965E+03  0.37978970416E+03  0.00000000000E+00 0. -1.
        -12    1    5    5    0    0  0.19283641343E+03 -0.10665560591E+03  0.27365025338E+03  0.35134849052E+03  0.00000000000E+00 0.  1.
         15    1    3    3    0    0 -0.62089246217E+03  0.46498795298E+02 -0.24735832333E+03  0.66996931676E+03  0.17770000000E+01 0. -1.
        -16    1    3    3    0    0 -0.18428007988E+03 -0.26796593530E+02 -0.55588265693E+02  0.19433800593E+03  0.00000000000E+00 0.  1.
          2    1    6    6  502    0  0.23937131591E+03  0.14872744222E+03  0.99382081504E+02  0.29882315351E+03  0.00000000000E+00 0. -1.
         -1    1    6    6    0  502  0.23539379187E+03  0.45241370046E+02  0.96572063157E+02  0.25842442260E+03  0.00000000000E+00 0.  1.
<mgrwt>
<rscale>  0 0.86251302E+03</rscale>
<asrwt>0</asrwt>
<pdfrwt beam="1">  1        1 0.12681543E+00 0.86251302E+03</pdfrwt>
<pdfrwt beam="2">  1       -2 0.20436812E+00 0.86251302E+03</pdfrwt>
<totfact> 0.23304470E+00</totfact>
</mgrwt>
</event>
<event>
12    3  0.1176505E-007  0.4315545E+03  0.7818608E-02  0.1033370E+00
          1   -1    0    0  501    0  0.00000000000E+00  0.00000000000E+00  0.21632949528E+04  0.21632949528E+04  0.00000000000E+00 0. -1.
         -2   -1    0    0    0  501 -0.00000000000E+00 -0.00000000000E+00 -0.12308076029E+03  0.12308076029E+03  0.00000000000E+00 0.  1.
        -24    2    1    2    0    0 -0.10773131362E+03 -0.19574789699E+03  0.12769057158E+03  0.26964676421E+03  0.80506026300E+02 0.  0.
    5000000    2    1    2    0    0  0.10773131362E+03  0.19574789699E+03  0.19125236210E+04  0.20167289489E+04  0.59960468438E+03 0.  0.
        -24    2    4    4    0    0  0.32263732243E+03  0.65433241938E+01  0.11763510101E+04  0.12224008234E+04  0.79526203889E+02 0.  0.
         24    2    4    4    0    0 -0.21490600881E+03  0.18920457280E+03  0.73617261085E+03  0.79432812552E+03  0.83809874376E+02 0.  0.
         13    1    5    5    0    0  0.19563637404E+03  0.36297751083E+02  0.62897168776E+03  0.65969424856E+03  0.00000000000E+00 0. -1.
        -14    1    5    5    0    0  0.12700094839E+03 -0.29754426889E+02  0.54737932235E+03  0.56270657482E+03  0.00000000000E+00 0.  1.
         15    1    3    3    0    0 -0.74986652137E+02 -0.18734974434E+03  0.12063246308E+03  0.23511332073E+03  0.17770000000E+01 0. -1.
        -16    1    3    3    0    0 -0.32744661484E+02 -0.83981526451E+01  0.70581084962E+01  0.34533443488E+02  0.00000000000E+00 0.  1.
          2    1    6    6  502    0 -0.10779931563E+03  0.41235672559E+02  0.26909411492E+03  0.29280149561E+03  0.00000000000E+00 0. -1.
         -1    1    6    6    0  502 -0.10710669318E+03  0.14796890024E+03  0.46707849592E+03  0.50152662991E+03  0.00000000000E+00 0.  1.
<mgrwt>
<rscale>  0 0.43155445E+03</rscale>
<asrwt>0</asrwt>
<pdfrwt beam="1">  1        1 0.33281458E+00 0.43155445E+03</pdfrwt>
<pdfrwt beam="2">  1       -2 0.18935503E-01 0.43155445E+03</pdfrwt>
<totfact> 0.51781540E+01</totfact>
</mgrwt>
</event>
<event>
12    3  0.1176505E-007  0.9129736E+03  0.7818608E-02  0.9409508E-01
          1   -1    0    0  501    0  0.00000000000E+00  0.00000000000E+00  0.50860323995E+03  0.50860323995E+03  0.00000000000E+00 0. -1.
         -2   -1    0    0    0  501 -0.00000000000E+00 -0.00000000000E+00 -0.28793925169E+04  0.28793925169E+04  0.00000000000E+00 0.  1.
        -24    2    1    2    0    0  0.60159933951E+03  0.66788719912E+03 -0.20825648901E+04  0.22694321801E+04  0.72462560317E+02 0.  0.
    5000000    2    1    2    0    0 -0.60159933951E+03 -0.66788719912E+03 -0.28822438685E+03  0.11185635767E+04  0.60009674385E+03 0.  0.
        -24    2    4    4    0    0 -0.15451230780E+03 -0.74492775032E+02  0.15944926490E+03  0.24743123894E+03  0.79843115746E+02 0.  0.
         24    2    4    4    0    0 -0.44708703171E+03 -0.59339442408E+03 -0.44767365175E+03  0.87113233780E+03  0.80349829050E+02 0.  0.
         11    1    5    5    0    0 -0.15717549152E+03 -0.66521858445E+02  0.16497508107E+03  0.23737327179E+03  0.00000000000E+00 0. -1.
        -12    1    5    5    0    0  0.26631837197E+01 -0.79709165868E+01 -0.55258161739E+01  0.10057967148E+02  0.00000000000E+00 0.  1.
         15    1    3    3    0    0  0.23704364108E+03  0.31639306222E+03 -0.90132485028E+03  0.98421740538E+03  0.17770000000E+01 0. -1.
        -16    1    3    3    0    0  0.36455569843E+03  0.35149413690E+03 -0.11812400398E+04  0.12852147748E+04  0.00000000000E+00 0.  1.
          2    1    6    6  502    0 -0.39671295995E+03 -0.55282275922E+03 -0.42658890666E+03  0.80310165669E+03  0.00000000000E+00 0. -1.
         -1    1    6    6    0  502 -0.50374071759E+02 -0.40571664868E+02 -0.21084745088E+02  0.68030681102E+02  0.00000000000E+00 0.  1.
<mgrwt>
<rscale>  0 0.91297364E+03</rscale>
<asrwt>0</asrwt>
<pdfrwt beam="1">  1        1 0.78246652E-01 0.91297364E+03</pdfrwt>
<pdfrwt beam="2">  1       -2 0.44298346E+00 0.91297364E+03</pdfrwt>
<totfact> 0.15211850E-01</totfact>
</mgrwt>
</event>
<event>
12    3  0.1176505E-007  0.1052766E+04  0.7818608E-02  0.9252493E-01
         -2   -1    0    0    0  501 -0.00000000000E+00  0.00000000000E+00  0.10137536221E+04  0.10137536221E+04  0.00000000000E+00 0.  1.
          1   -1    0    0  501    0  0.00000000000E+00 -0.00000000000E+00 -0.11884376598E+04  0.11884376598E+04  0.00000000000E+00 0. -1.
        -24    2    1    2    0    0  0.78643999230E+03 -0.58171804885E+03 -0.34888836574E+03  0.10414585721E+04  0.77647381581E+02 0.  0.
    5000000    2    1    2    0    0 -0.78643999230E+03  0.58171804885E+03  0.17420432794E+03  0.11607327098E+04  0.60005793535E+03 0.  0.
        -24    2    4    4    0    0 -0.84886536142E+02 -0.93865798132E+02  0.10252526066E+03  0.18099793257E+03  0.78944983640E+02 0.  0.
         24    2    4    4    0    0 -0.70155345616E+03  0.67558384699E+03  0.71679067282E+02  0.97973477720E+03  0.78431873633E+02 0.  0.
         11    1    5    5    0    0 -0.90635385083E+02 -0.49590186743E+02  0.60737797154E+02  0.11984589961E+03  0.00000000000E+00 0. -1.
        -12    1    5    5    0    0  0.57488489409E+01 -0.44275611390E+02  0.41787463509E+02  0.61152032955E+02  0.00000000000E+00 0.  1.
         15    1    3    3    0    0  0.41088399829E+03 -0.34580869002E+03 -0.21114713685E+03  0.57705769319E+03  0.17770000000E+01 0. -1.
        -16    1    3    3    0    0  0.37555599402E+03 -0.23590935883E+03 -0.13774122889E+03  0.46440087894E+03  0.00000000000E+00 0.  1.
          2    1    6    6  502    0 -0.53608918625E+03  0.46852385239E+03  0.57952006510E+02  0.71432811153E+03  0.00000000000E+00 0. -1.
         -1    1    6    6    0  502 -0.16546426991E+03  0.20705999460E+03  0.13727060771E+02  0.26540666566E+03  0.00000000000E+00 0.  1.
<mgrwt>
<rscale>  0 0.10527656E+04</rscale>
<asrwt>0</asrwt>
<pdfrwt beam="1">  1        1 0.18283656E+00 0.10527656E+04</pdfrwt>
<pdfrwt beam="2">  1       -2 0.15596210E+00 0.10527656E+04</pdfrwt>
<totfact> 0.25551294E+00</totfact>
</mgrwt>
</event>
<event>
12    3  0.1176505E-007  0.4521258E+03  0.7818608E-02  0.1027090E+00
         -2   -1    0    0    0  501 -0.00000000000E+00  0.00000000000E+00  0.56359503357E+03  0.56359503357E+03  0.00000000000E+00 0.  1.
          1   -1    0    0  501    0  0.00000000000E+00 -0.00000000000E+00 -0.79365780642E+03  0.79365780642E+03  0.00000000000E+00 0. -1.
        -24    2    1    2    0    0  0.45027781907E+02 -0.44560685764E+03 -0.38097958564E+03  0.59356132599E+03  0.81096426006E+02 0.  0.
    5000000    2    1    2    0    0 -0.45027781907E+02  0.44560685764E+03  0.15091681279E+03  0.76369151400E+03  0.59987988085E+03 0.  0.
        -24    2    4    4    0    0 -0.31423349754E+02  0.17901984315E+03 -0.22181589052E+03  0.29772791454E+03  0.80025562504E+02 0.  0.
         24    2    4    4    0    0 -0.13604432153E+02  0.26658701449E+03  0.37273270331E+03  0.46596359946E+03  0.83298805734E+02 0.  0.
         13    1    5    5    0    0 -0.18856608400E+02  0.71444938174E+02 -0.34941711824E+02  0.81736614172E+02  0.00000000000E+00 0. -1.
        -14    1    5    5    0    0 -0.12566741354E+02  0.10757490498E+03 -0.18687417870E+03  0.21599130036E+03  0.00000000000E+00 0.  1.
         15    1    3    3    0    0  0.62669114255E+02 -0.40093324351E+03 -0.32581134621E+03  0.52041432982E+03  0.17770000000E+01 0. -1.
        -16    1    3    3    0    0 -0.17641332348E+02 -0.44673614139E+02 -0.55168239430E+02  0.73146996173E+02  0.00000000000E+00 0.  1.
          4    1    6    6  502    0 -0.16540891901E+02  0.84333843409E+02  0.18662593690E+03  0.20546298589E+03  0.00000000000E+00 0. -1.
         -3    1    6    6    0  502  0.29364597484E+01  0.18225317108E+03  0.18610676642E+03  0.26050061357E+03  0.00000000000E+00 0.  1.
<mgrwt>
<rscale>  0 0.45212577E+03</rscale>
<asrwt>0</asrwt>
<pdfrwt beam="1">  1        1 0.12210120E+00 0.45212577E+03</pdfrwt>
<pdfrwt beam="2">  1       -2 0.86706929E-01 0.45212577E+03</pdfrwt>
<totfact> 0.23907195E+01</totfact>
</mgrwt>
</event>
<event>
12    3  0.1176505E-007  0.1202270E+04  0.7818608E-02  0.9110872E-01
         -2   -1    0    0    0  501 -0.00000000000E+00  0.00000000000E+00  0.14912257653E+04  0.14912257653E+04  0.00000000000E+00 0.  1.
          1   -1    0    0  501    0  0.00000000000E+00 -0.00000000000E+00 -0.11601658894E+04  0.11601658894E+04  0.00000000000E+00 0. -1.
        -24    2    1    2    0    0  0.71953836597E+03  0.89949826388E+03  0.63468367944E+03  0.13176355716E+04  0.80669324303E+02 0.  0.
    5000000    2    1    2    0    0 -0.71953836597E+03 -0.89949826388E+03 -0.30362380351E+03  0.13337560830E+04  0.59990439916E+03 0.  0.
        -24    2    4    4    0    0 -0.30479587705E+03 -0.73709119932E+03 -0.35706767257E+03  0.87761998031E+03  0.80718921338E+02 0.  0.
         24    2    4    4    0    0 -0.41474248891E+03 -0.16240706456E+03  0.53443869061E+02  0.45613610271E+03  0.82562160401E+02 0.  0.
         13    1    5    5    0    0 -0.96441415892E+02 -0.28284322365E+03 -0.96569992359E+02  0.31404935805E+03  0.00000000000E+00 0. -1.
        -14    1    5    5    0    0 -0.20835446116E+03 -0.45424797567E+03 -0.26049768021E+03  0.56357062226E+03  0.00000000000E+00 0.  1.
         15    1    3    3    0    0  0.20000124713E+03  0.21472315935E+03  0.19316748802E+03  0.35131662382E+03  0.17770000000E+01 0. -1.
        -16    1    3    3    0    0  0.51953711883E+03  0.68477510453E+03  0.44151619143E+03  0.96631894782E+03  0.00000000000E+00 0.  1.
          2    1    6    6  502    0 -0.16812078227E+03 -0.10975392869E+03  0.26694537542E+02  0.20254165159E+03  0.00000000000E+00 0. -1.
         -1    1    6    6    0  502 -0.24662170664E+03 -0.52653135869E+02  0.26749331519E+02  0.25359445112E+03  0.00000000000E+00 0.  1.
<mgrwt>
<rscale>  0 0.12022702E+04</rscale>
<asrwt>0</asrwt>
<pdfrwt beam="1">  1        1 0.17848706E+00 0.12022702E+04</pdfrwt>
<pdfrwt beam="2">  1       -2 0.22941935E+00 0.12022702E+04</pdfrwt>
<totfact> 0.84257163E-01</totfact>
</mgrwt>
</event>
